<event>
 5   1  0.1388354E+00  0.8713055E+02  0.7818608E-02  0.1309953E+00
          1   -1    0    0  501    0  0.00000000000E+00  0.00000000000E+00  0.74956928105E+02  0.74956928251E+02  0.46700000000E-02 0. -1.
         -1   -1    0    0    0  501 -0.00000000000E+00 -0.00000000000E+00 -0.25320315199E+02  0.25320315630E+02  0.46700000000E-02 0.  1.
         23    2    1    2    0    0  0.00000000000E+00  0.00000000000E+00  0.49636612906E+02  0.10027724388E+03  0.87130547453E+02 0.  0.
        -13    1    3    3    0    0 -0.13086843016E+02  0.20099097079E+02 -0.17037892738E+02  0.29420063307E+02  0.10570000000E+00 0.  1.
         13    1    3    3    0    0  0.13086843016E+02 -0.20099097079E+02  0.66674505644E+02  0.70857180574E+02  0.10570000000E+00 0. -1.
<mgrwt>
<rscale>  0 0.87130547E+02</rscale>
<asrwt>0</asrwt>
<pdfrwt beam="1">  1        1 0.11531835E-01 0.87130547E+02</pdfrwt>
<pdfrwt beam="2">  1       -1 0.38954332E-02 0.87130547E+02</pdfrwt>
<totfact> 0.11292702E+05</totfact>
</mgrwt>
</event>
<event>
 5   1  0.1388354E+00  0.9283614E+02  0.7818608E-02  0.1296125E+00
         -1   -1    0    0    0  501 -0.00000000000E+00  0.00000000000E+00  0.91518350137E+02  0.91518350256E+02  0.46700000000E-02 0.  1.
          1   -1    0    0  501    0  0.00000000000E+00 -0.00000000000E+00 -0.23543225992E+02  0.23543226455E+02  0.46700000000E-02 0. -1.
         23    2    1    2    0    0  0.00000000000E+00  0.00000000000E+00  0.67975124145E+02  0.11506157671E+03  0.92836140230E+02 0.  0.
        -13    1    3    3    0    0 -0.20500457914E+02 -0.40709279810E+02  0.44871191125E+02  0.63960528475E+02  0.10570000000E+00 0.  1.
         13    1    3    3    0    0  0.20500457914E+02  0.40709279810E+02  0.23103933020E+02  0.51101048236E+02  0.10570000000E+00 0. -1.
<mgrwt>
<rscale>  0 0.92836140E+02</rscale>
<asrwt>0</asrwt>
<pdfrwt beam="2">  1        1 0.36220349E-02 0.92836140E+02</pdfrwt>
<pdfrwt beam="1">  1       -1 0.14079746E-01 0.92836140E+02</pdfrwt>
<totfact> 0.78946224E+04</totfact>
</mgrwt>
</event>
<event>
 5   1  0.1388354E+00  0.9084091E+02  0.7818608E-02  0.1300828E+00
          1   -1    0    0  501    0  0.00000000000E+00  0.00000000000E+00  0.25113533219E+03  0.25113533224E+03  0.46700000000E-02 0. -1.
         -1   -1    0    0    0  501 -0.00000000000E+00 -0.00000000000E+00 -0.82147641224E+01  0.82147654498E+01  0.46700000000E-02 0.  1.
         23    2    1    2    0    0  0.00000000000E+00  0.00000000000E+00  0.24292056807E+03  0.25935009769E+03  0.90840909166E+02 0.  0.
        -13    1    3    3    0    0  0.20133410584E+02  0.36822019966E+02  0.17105760186E+03  0.17613043377E+03  0.10570000000E+00 0.  1.
         13    1    3    3    0    0 -0.20133410584E+02 -0.36822019966E+02  0.71862966215E+02  0.83219663913E+02  0.10570000000E+00 0. -1.
<mgrwt>
<rscale>  0 0.90840909E+02</rscale>
<asrwt>0</asrwt>
<pdfrwt beam="1">  1        1 0.38636210E-01 0.90840909E+02</pdfrwt>
<pdfrwt beam="2">  1       -1 0.12638098E-02 0.90840909E+02</pdfrwt>
<totfact> 0.12500531E+05</totfact>
</mgrwt>
</event>
<event>
 5   1  0.1388354E+00  0.8920604E+02  0.7818608E-02  0.1304786E+00
          1   -1    0    0  501    0  0.00000000000E+00  0.00000000000E+00  0.24915066848E+02  0.24915067286E+02  0.46700000000E-02 0. -1.
         -1   -1    0    0    0  501 -0.00000000000E+00 -0.00000000000E+00 -0.79848438323E+02  0.79848438459E+02  0.46700000000E-02 0.  1.
         23    2    1    2    0    0  0.00000000000E+00  0.00000000000E+00 -0.54933371475E+02  0.10476350575E+03  0.89206035863E+02 0.  0.
        -13    1    3    3    0    0 -0.23368846236E+02  0.31737497890E+02 -0.51990164677E+02  0.65240785881E+02  0.10570000000E+00 0. -1.
         13    1    3    3    0    0  0.23368846236E+02 -0.31737497890E+02 -0.29432067976E+01  0.39522719864E+02  0.10570000000E+00 0.  1.
<mgrwt>
<rscale>  0 0.89206036E+02</rscale>
<asrwt>0</asrwt>
<pdfrwt beam="1">  1        1 0.38330873E-02 0.89206036E+02</pdfrwt>
<pdfrwt beam="2">  1       -1 0.12284375E-01 0.89206036E+02</pdfrwt>
<totfact> 0.89543472E+04</totfact>
</mgrwt>
</event>
<event>
 5   1  0.1388354E+00  0.9028660E+02  0.7818608E-02  0.1302159E+00
          1   -1    0    0  501    0  0.00000000000E+00  0.00000000000E+00  0.22004457502E+03  0.22004457507E+03  0.46700000000E-02 0. -1.
         -1   -1    0    0    0  501 -0.00000000000E+00 -0.00000000000E+00 -0.92613846072E+01  0.92613857846E+01  0.46700000000E-02 0.  1.
         23    2    1    2    0    0  0.00000000000E+00  0.00000000000E+00  0.21078319041E+03  0.22930596085E+03  0.90286601013E+02 0.  0.
        -13    1    3    3    0    0 -0.43624013051E+02 -0.88878212006E+01  0.12437336855E+03  0.13210145290E+03  0.10570000000E+00 0. -1.
         13    1    3    3    0    0  0.43624013051E+02  0.88878212006E+01  0.86409821858E+02  0.97204507953E+02  0.10570000000E+00 0.  1.
<mgrwt>
<rscale>  0 0.90286601E+02</rscale>
<asrwt>0</asrwt>
<pdfrwt beam="1">  1        1 0.33853012E-01 0.90286601E+02</pdfrwt>
<pdfrwt beam="2">  1       -1 0.14248285E-02 0.90286601E+02</pdfrwt>
<totfact> 0.12383552E+05</totfact>
</mgrwt>
</event>
<event>
 5   1  0.1388354E+00  0.8977214E+02  0.7818608E-02  0.1303404E+00
          1   -1    0    0  501    0  0.00000000000E+00  0.00000000000E+00  0.15445265263E+02  0.15445265969E+02  0.46700000000E-02 0. -1.
         -1   -1    0    0    0  501 -0.00000000000E+00 -0.00000000000E+00 -0.13044509028E+03  0.13044509037E+03  0.46700000000E-02 0.  1.
         23    2    1    2    0    0  0.00000000000E+00  0.00000000000E+00 -0.11499982502E+03  0.14589035634E+03  0.89772135527E+02 0.  0.
        -13    1    3    3    0    0 -0.27752062206E+02  0.29477766136E+02 -0.26003110057E+02  0.48117445466E+02  0.10570000000E+00 0. -1.
         13    1    3    3    0    0  0.27752062206E+02 -0.29477766136E+02 -0.88996714966E+02  0.97772910871E+02  0.10570000000E+00 0.  1.
<mgrwt>
<rscale>  0 0.89772136E+02</rscale>
<asrwt>0</asrwt>
<pdfrwt beam="1">  1        1 0.23761948E-02 0.89772136E+02</pdfrwt>
<pdfrwt beam="2">  1       -1 0.20068475E-01 0.89772136E+02</pdfrwt>
<totfact> 0.80330110E+04</totfact>
</mgrwt>
</event>
<event>
 5   1  0.1388354E+00  0.9558425E+02  0.7818608E-02  0.1289866E+00
          1   -1    0    0  501    0  0.00000000000E+00  0.00000000000E+00  0.42741543121E+02  0.42741543376E+02  0.46700000000E-02 0. -1.
         -1   -1    0    0    0  501 -0.00000000000E+00 -0.00000000000E+00 -0.53439512010E+02  0.53439512214E+02  0.46700000000E-02 0.  1.
         23    2    1    2    0    0  0.00000000000E+00  0.00000000000E+00 -0.10697968888E+02  0.96181055590E+02  0.95584250356E+02 0.  0.
        -13    1    3    3    0    0 -0.70495203790E+01 -0.31670052944E+02 -0.40659224555E+02  0.52017994049E+02  0.10570000000E+00 0.  1.
         13    1    3    3    0    0  0.70495203790E+01  0.31670052944E+02  0.29961255666E+02  0.44163061541E+02  0.10570000000E+00 0. -1.
<mgrwt>
<rscale>  0 0.95584250E+02</rscale>
<asrwt>0</asrwt>
<pdfrwt beam="1">  1        1 0.65756221E-02 0.95584250E+02</pdfrwt>
<pdfrwt beam="2">  1       -1 0.82214634E-02 0.95584250E+02</pdfrwt>
<totfact> 0.80128976E+04</totfact>
</mgrwt>
</event>
<event>
 5   1  0.1388354E+00  0.9543572E+02  0.7818608E-02  0.1290198E+00
         -1   -1    0    0    0  501 -0.00000000000E+00  0.00000000000E+00  0.10583427665E+03  0.10583427676E+03  0.46700000000E-02 0.  1.
          1   -1    0    0  501    0  0.00000000000E+00 -0.00000000000E+00 -0.21514714359E+02  0.21514714866E+02  0.46700000000E-02 0. -1.
         23    2    1    2    0    0  0.00000000000E+00  0.00000000000E+00  0.84319562293E+02  0.12734899162E+03  0.95435722251E+02 0.  0.
        -13    1    3    3    0    0  0.26376254566E+02  0.32220441129E+02  0.73257764761E+02  0.84264909077E+02  0.10570000000E+00 0.  1.
         13    1    3    3    0    0 -0.26376254566E+02 -0.32220441129E+02  0.11061797532E+02  0.43084082544E+02  0.10570000000E+00 0. -1.
<mgrwt>
<rscale>  0 0.95435722E+02</rscale>
<asrwt>0</asrwt>
<pdfrwt beam="2">  1        1 0.33099561E-02 0.95435722E+02</pdfrwt>
<pdfrwt beam="1">  1       -1 0.16282197E-01 0.95435722E+02</pdfrwt>
<totfact> 0.71551313E+04</totfact>
</mgrwt>
</event>
<event>
 5   1  0.1388354E+00  0.9457049E+02  0.7818608E-02  0.1292146E+00
         -1   -1    0    0    0  501 -0.00000000000E+00  0.00000000000E+00  0.18031771533E+03  0.18031771539E+03  0.46700000000E-02 0.  1.
          1   -1    0    0  501    0  0.00000000000E+00 -0.00000000000E+00 -0.12399749583E+02  0.12399750462E+02  0.46700000000E-02 0. -1.
         23    2    1    2    0    0  0.00000000000E+00  0.00000000000E+00  0.16791796575E+03  0.19271746585E+03  0.94570494469E+02 0.  0.
        -13    1    3    3    0    0 -0.44750575626E+02  0.74417785935E+01  0.56779550298E+02  0.72676836696E+02  0.10570000000E+00 0. -1.
         13    1    3    3    0    0  0.44750575626E+02 -0.74417785935E+01  0.11113841545E+03  0.12004062916E+03  0.10570000000E+00 0.  1.
<mgrwt>
<rscale>  0 0.94570494E+02</rscale>
<asrwt>0</asrwt>
<pdfrwt beam="2">  1        1 0.19076538E-02 0.94570494E+02</pdfrwt>
<pdfrwt beam="1">  1       -1 0.27741187E-01 0.94570494E+02</pdfrwt>
<totfact> 0.64944943E+04</totfact>
</mgrwt>
</event>
<event>
 5   1  0.1388354E+00  0.9231292E+02  0.7818608E-02  0.1297345E+00
          1   -1    0    0  501    0  0.00000000000E+00  0.00000000000E+00  0.11298980004E+02  0.11298980969E+02  0.46700000000E-02 0. -1.
         -1   -1    0    0    0  501 -0.00000000000E+00 -0.00000000000E+00 -0.18854963766E+03  0.18854963772E+03  0.46700000000E-02 0.  1.
         23    2    1    2    0    0  0.00000000000E+00  0.00000000000E+00 -0.17725065766E+03  0.19984861869E+03  0.92312917577E+02 0.  0.
        -13    1    3    3    0    0  0.30523219849E+02 -0.25878093992E+02 -0.13842117475E+03  0.14408947044E+03  0.10570000000E+00 0.  1.
         13    1    3    3    0    0 -0.30523219849E+02  0.25878093992E+02 -0.38829482911E+02  0.55759148256E+02  0.10570000000E+00 0. -1.
<mgrwt>
<rscale>  0 0.92312918E+02</rscale>
<asrwt>0</asrwt>
<pdfrwt beam="1">  1        1 0.17383048E-02 0.92312918E+02</pdfrwt>
<pdfrwt beam="2">  1       -1 0.29007634E-01 0.92312918E+02</pdfrwt>
<totfact> 0.68338487E+04</totfact>
</mgrwt>
</event>
<event>
 5   1  0.1388354E+00  0.9094919E+02  0.7818608E-02  0.1300569E+00
         -1   -1    0    0    0  501 -0.00000000000E+00  0.00000000000E+00  0.69665739548E+01  0.69665755200E+01  0.46700000000E-02 0.  1.
          1   -1    0    0  501    0  0.00000000000E+00 -0.00000000000E+00 -0.29683725580E+03  0.29683725583E+03  0.46700000000E-02 0. -1.
         23    2    1    2    0    0  0.00000000000E+00  0.00000000000E+00 -0.28987068184E+03  0.30380383135E+03  0.90949193254E+02 0.  0.
        -13    1    3    3    0    0 -0.37515170296E+02 -0.18076095033E+02 -0.83906655184E+02  0.93672147251E+02  0.10570000000E+00 0.  1.
         13    1    3    3    0    0  0.37515170296E+02  0.18076095033E+02 -0.20596402666E+03  0.21013168410E+03  0.10570000000E+00 0. -1.
<mgrwt>
<rscale>  0 0.90949193E+02</rscale>
<asrwt>0</asrwt>
<pdfrwt beam="2">  1        1 0.45667260E-01 0.90949193E+02</pdfrwt>
<pdfrwt beam="1">  1       -1 0.10717810E-02 0.90949193E+02</pdfrwt>
<totfact> 0.12871762E+05</totfact>
</mgrwt>
</event>
<event>
 5   1  0.1388354E+00  0.8835371E+02  0.7818608E-02  0.1306888E+00
          1   -1    0    0  501    0  0.00000000000E+00  0.00000000000E+00  0.39971677508E+02  0.39971677781E+02  0.46700000000E-02 0. -1.
         -1   -1    0    0    0  501 -0.00000000000E+00 -0.00000000000E+00 -0.48824432272E+02  0.48824432495E+02  0.46700000000E-02 0.  1.
         23    2    1    2    0    0  0.00000000000E+00  0.00000000000E+00 -0.88527547633E+01  0.88796110276E+02  0.88353709222E+02 0.  0.
        -13    1    3    3    0    0 -0.38485497761E+02 -0.21408096572E+02 -0.79285315985E+01  0.44747211338E+02  0.10570000000E+00 0.  1.
         13    1    3    3    0    0  0.38485497761E+02  0.21408096572E+02 -0.92422316480E+00  0.44048898938E+02  0.10570000000E+00 0. -1.
<mgrwt>
<rscale>  0 0.88353709E+02</rscale>
<asrwt>0</asrwt>
<pdfrwt beam="1">  1        1 0.61494889E-02 0.88353709E+02</pdfrwt>
<pdfrwt beam="2">  1       -1 0.75114511E-02 0.88353709E+02</pdfrwt>
<totfact> 0.99046075E+04</totfact>
</mgrwt>
</event>
<event>
 5   1  0.1388354E+00  0.9192082E+02  0.7818608E-02  0.1298266E+00
         -1   -1    0    0    0  501 -0.00000000000E+00  0.00000000000E+00  0.59733657976E+02  0.59733658158E+02  0.46700000000E-02 0.  1.
          1   -1    0    0  501    0  0.00000000000E+00 -0.00000000000E+00 -0.35362966315E+02  0.35362966624E+02  0.46700000000E-02 0. -1.
         23    2    1    2    0    0  0.00000000000E+00  0.00000000000E+00  0.24370691661E+02  0.95096624782E+02  0.91920821542E+02 0.  0.
        -13    1    3    3    0    0  0.33525636029E+01  0.35088599564E+02  0.42698390347E+02  0.55367980032E+02  0.10570000000E+00 0.  1.
         13    1    3    3    0    0 -0.33525636029E+01 -0.35088599564E+02 -0.18327698686E+02  0.39728644750E+02  0.10570000000E+00 0. -1.
<mgrwt>
<rscale>  0 0.91920822E+02</rscale>
<asrwt>0</asrwt>
<pdfrwt beam="2">  1        1 0.54404565E-02 0.91920822E+02</pdfrwt>
<pdfrwt beam="1">  1       -1 0.91897935E-02 0.91920822E+02</pdfrwt>
<totfact> 0.86930587E+04</totfact>
</mgrwt>
</event>
<event>
 5   1  0.1388354E+00  0.9176771E+02  0.7818608E-02  0.1298627E+00
         -1   -1    0    0    0  501 -0.00000000000E+00  0.00000000000E+00  0.28408350990E+02  0.28408351374E+02  0.46700000000E-02 0.  1.
          1   -1    0    0  501    0  0.00000000000E+00 -0.00000000000E+00 -0.74109481630E+02  0.74109481777E+02  0.46700000000E-02 0. -1.
         23    2    1    2    0    0  0.00000000000E+00  0.00000000000E+00 -0.45701130640E+02  0.10251783315E+03  0.91767710945E+02 0.  0.
        -13    1    3    3    0    0  0.20806363795E+01  0.36568282372E+02 -0.53723986711E+02  0.65021890498E+02  0.10570000000E+00 0. -1.
         13    1    3    3    0    0 -0.20806363795E+01 -0.36568282372E+02  0.80228560707E+01  0.37495942652E+02  0.10570000000E+00 0.  1.
<mgrwt>
<rscale>  0 0.91767711E+02</rscale>
<asrwt>0</asrwt>
<pdfrwt beam="2">  1        1 0.11401459E-01 0.91767711E+02</pdfrwt>
<pdfrwt beam="1">  1       -1 0.43705156E-02 0.91767711E+02</pdfrwt>
<totfact> 0.97787005E+04</totfact>
</mgrwt>
</event>
<event>
 5   1  0.1388354E+00  0.9279505E+02  0.7818608E-02  0.1296221E+00
          1   -1    0    0  501    0  0.00000000000E+00  0.00000000000E+00  0.23006453407E+02  0.23006453881E+02  0.46700000000E-02 0. -1.
         -1   -1    0    0    0  501 -0.00000000000E+00 -0.00000000000E+00 -0.93570719304E+02  0.93570719420E+02  0.46700000000E-02 0.  1.
         23    2    1    2    0    0  0.00000000000E+00  0.00000000000E+00 -0.70564265897E+02  0.11657717330E+03  0.92795052203E+02 0.  0.
        -13    1    3    3    0    0  0.10881714628E+01  0.45956370962E+02 -0.43182477965E+02  0.63070672462E+02  0.10570000000E+00 0.  1.
         13    1    3    3    0    0 -0.10881714628E+01 -0.45956370962E+02 -0.27381787932E+02  0.53506500839E+02  0.10570000000E+00 0. -1.
<mgrwt>
<rscale>  0 0.92795052E+02</rscale>
<asrwt>0</asrwt>
<pdfrwt beam="1">  1        1 0.35394545E-02 0.92795052E+02</pdfrwt>
<pdfrwt beam="2">  1       -1 0.14395495E-01 0.92795052E+02</pdfrwt>
<totfact> 0.78720094E+04</totfact>
</mgrwt>
</event>
<event>
 5   1  0.1388354E+00  0.9121357E+02  0.7818608E-02  0.1299939E+00
         -1   -1    0    0    0  501 -0.00000000000E+00  0.00000000000E+00  0.81414775110E+01  0.81414788504E+01  0.46700000000E-02 0.  1.
          1   -1    0    0  501    0  0.00000000000E+00 -0.00000000000E+00 -0.25547926135E+03  0.25547926139E+03  0.46700000000E-02 0. -1.
         23    2    1    2    0    0  0.00000000000E+00  0.00000000000E+00 -0.24733778384E+03  0.26362074024E+03  0.91213570108E+02 0.  0.
        -13    1    3    3    0    0 -0.39444744200E+02 -0.54323430889E+01 -0.18794266193E+03  0.19211416799E+03  0.10570000000E+00 0. -1.
         13    1    3    3    0    0  0.39444744200E+02  0.54323430889E+01 -0.59395121910E+02  0.71506572255E+02  0.10570000000E+00 0.  1.
<mgrwt>
<rscale>  0 0.91213570E+02</rscale>
<asrwt>0</asrwt>
<pdfrwt beam="2">  1        1 0.39304496E-01 0.91213570E+02</pdfrwt>
<pdfrwt beam="1">  1       -1 0.12525353E-02 0.91213570E+02</pdfrwt>
<totfact> 0.12405919E+05</totfact>
</mgrwt>
</event>
<event>
 5   1  0.1388354E+00  0.9272930E+02  0.7818608E-02  0.1296374E+00
         -1   -1    0    0    0  501 -0.00000000000E+00  0.00000000000E+00  0.83823595950E+02  0.83823596080E+02  0.46700000000E-02 0.  1.
          1   -1    0    0  501    0  0.00000000000E+00 -0.00000000000E+00 -0.25645291393E+02  0.25645291818E+02  0.46700000000E-02 0. -1.
         23    2    1    2    0    0  0.00000000000E+00  0.00000000000E+00  0.58178304557E+02  0.10946888790E+03  0.92729295784E+02 0.  0.
        -13    1    3    3    0    0  0.23058944896E+02  0.32583969140E+02  0.56931421274E+02  0.69531488445E+02  0.10570000000E+00 0.  1.
         13    1    3    3    0    0 -0.23058944896E+02 -0.32583969140E+02  0.12468832826E+01  0.39937399453E+02  0.10570000000E+00 0. -1.
<mgrwt>
<rscale>  0 0.92729296E+02</rscale>
<asrwt>0</asrwt>
<pdfrwt beam="2">  1        1 0.39454295E-02 0.92729296E+02</pdfrwt>
<pdfrwt beam="1">  1       -1 0.12895938E-01 0.92729296E+02</pdfrwt>
<totfact> 0.80418138E+04</totfact>
</mgrwt>
</event>
<event>
 5   1  0.1388354E+00  0.8791131E+02  0.7818608E-02  0.1307990E+00
         -1   -1    0    0    0  501 -0.00000000000E+00  0.00000000000E+00  0.25443916501E+02  0.25443916929E+02  0.46700000000E-02 0.  1.
          1   -1    0    0  501    0  0.00000000000E+00 -0.00000000000E+00 -0.75935628038E+02  0.75935628182E+02  0.46700000000E-02 0. -1.
         23    2    1    2    0    0  0.00000000000E+00  0.00000000000E+00 -0.50491711537E+02  0.10137954511E+03  0.87911314590E+02 0.  0.
        -13    1    3    3    0    0 -0.18124708851E+02  0.33614445157E+02 -0.50343649502E+02  0.63189636902E+02  0.10570000000E+00 0. -1.
         13    1    3    3    0    0  0.18124708851E+02 -0.33614445157E+02 -0.14806203552E+00  0.38189908209E+02  0.10570000000E+00 0.  1.
<mgrwt>
<rscale>  0 0.87911315E+02</rscale>
<asrwt>0</asrwt>
<pdfrwt beam="2">  1        1 0.11682404E-01 0.87911315E+02</pdfrwt>
<pdfrwt beam="1">  1       -1 0.39144488E-02 0.87911315E+02</pdfrwt>
<totfact> 0.11042560E+05</totfact>
</mgrwt>
</event>
<event>
 5   1  0.1388354E+00  0.8964874E+02  0.7818608E-02  0.1303705E+00
         -1   -1    0    0    0  501 -0.00000000000E+00  0.00000000000E+00  0.61184796695E+01  0.61184814517E+01  0.46700000000E-02 0.  1.
          1   -1    0    0  501    0  0.00000000000E+00 -0.00000000000E+00 -0.32838613712E+03  0.32838613715E+03  0.46700000000E-02 0. -1.
         23    2    1    2    0    0  0.00000000000E+00  0.00000000000E+00 -0.32226765745E+03  0.33450461860E+03  0.89648741370E+02 0.  0.
        -13    1    3    3    0    0  0.27355921509E+02  0.35272134987E+02 -0.14586605606E+03  0.15254306746E+03  0.10570000000E+00 0. -1.
         13    1    3    3    0    0 -0.27355921509E+02 -0.35272134987E+02 -0.17640160139E+03  0.18196155114E+03  0.10570000000E+00 0.  1.
<mgrwt>
<rscale>  0 0.89648741E+02</rscale>
<asrwt>0</asrwt>
<pdfrwt beam="2">  1        1 0.50520931E-01 0.89648741E+02</pdfrwt>
<pdfrwt beam="1">  1       -1 0.94130496E-03 0.89648741E+02</pdfrwt>
<totfact> 0.13630255E+05</totfact>
</mgrwt>
</event>
<event>
 5   1  0.1388354E+00  0.9257567E+02  0.7818608E-02  0.1296732E+00
          1   -1    0    0  501    0  0.00000000000E+00  0.00000000000E+00  0.26714198395E+03  0.26714198399E+03  0.46700000000E-02 0. -1.
         -1   -1    0    0    0  501 -0.00000000000E+00 -0.00000000000E+00 -0.80203169180E+01  0.80203182776E+01  0.46700000000E-02 0.  1.
         23    2    1    2    0    0  0.00000000000E+00  0.00000000000E+00  0.25912166703E+03  0.27516230227E+03  0.92575667776E+02 0.  0.
        -13    1    3    3    0    0  0.22529480616E+02 -0.31525097545E+02  0.54299904531E+02  0.66707571359E+02  0.10570000000E+00 0.  1.
         13    1    3    3    0    0 -0.22529480616E+02  0.31525097545E+02  0.20482176250E+03  0.20845473091E+03  0.10570000000E+00 0. -1.
<mgrwt>
<rscale>  0 0.92575668E+02</rscale>
<asrwt>0</asrwt>
<pdfrwt beam="1">  1        1 0.41098767E-01 0.92575668E+02</pdfrwt>
<pdfrwt beam="2">  1       -1 0.12338950E-02 0.92575668E+02</pdfrwt>
<totfact> 0.12028609E+05</totfact>
</mgrwt>
</event>
<event>
 5   1  0.1388354E+00  0.9059245E+02  0.7818608E-02  0.1301423E+00
          1   -1    0    0  501    0  0.00000000000E+00  0.00000000000E+00  0.58303684101E+02  0.58303684288E+02  0.46700000000E-02 0. -1.
         -1   -1    0    0    0  501 -0.00000000000E+00 -0.00000000000E+00 -0.35190712223E+02  0.35190712533E+02  0.46700000000E-02 0.  1.
         23    2    1    2    0    0  0.00000000000E+00  0.00000000000E+00  0.23112971877E+02  0.93494396821E+02  0.90592454255E+02 0.  0.
        -13    1    3    3    0    0 -0.41328316079E+02 -0.69278440669E+01 -0.61906486606E+01  0.42359887119E+02  0.10570000000E+00 0.  1.
         13    1    3    3    0    0  0.41328316079E+02  0.69278440669E+01  0.29303620538E+02  0.51134509702E+02  0.10570000000E+00 0. -1.
<mgrwt>
<rscale>  0 0.90592454E+02</rscale>
<asrwt>0</asrwt>
<pdfrwt beam="1">  1        1 0.89697975E-02 0.90592454E+02</pdfrwt>
<pdfrwt beam="2">  1       -1 0.54139558E-02 0.90592454E+02</pdfrwt>
<totfact> 0.97681378E+04</totfact>
</mgrwt>
</event>
<event>
 5   1  0.1388354E+00  0.9053556E+02  0.7818608E-02  0.1301560E+00
          1   -1    0    0  501    0  0.00000000000E+00  0.00000000000E+00  0.30043199123E+02  0.30043199486E+02  0.46700000000E-02 0. -1.
         -1   -1    0    0    0  501 -0.00000000000E+00 -0.00000000000E+00 -0.68207505067E+02  0.68207505227E+02  0.46700000000E-02 0.  1.
         23    2    1    2    0    0  0.00000000000E+00  0.00000000000E+00 -0.38164305944E+02  0.98250704713E+02  0.90535555051E+02 0.  0.
        -13    1    3    3    0    0 -0.36787159466E+02  0.91421814432E+01 -0.45935204436E+02  0.59556097608E+02  0.10570000000E+00 0.  1.
         13    1    3    3    0    0  0.36787159466E+02 -0.91421814432E+01  0.77708984929E+01  0.38694607105E+02  0.10570000000E+00 0. -1.
<mgrwt>
<rscale>  0 0.90535555E+02</rscale>
<asrwt>0</asrwt>
<pdfrwt beam="1">  1        1 0.46220307E-02 0.90535555E+02</pdfrwt>
<pdfrwt beam="2">  1       -1 0.10493462E-01 0.90535555E+02</pdfrwt>
<totfact> 0.88477255E+04</totfact>
</mgrwt>
</event>
<event>
 5   1  0.1388354E+00  0.9485993E+02  0.7818608E-02  0.1291492E+00
          1   -1    0    0  501    0  0.00000000000E+00  0.00000000000E+00  0.10162916632E+03  0.10162916643E+03  0.46700000000E-02 0. -1.
         -1   -1    0    0    0  501 -0.00000000000E+00 -0.00000000000E+00 -0.22135392043E+02  0.22135392536E+02  0.46700000000E-02 0.  1.
         23    2    1    2    0    0  0.00000000000E+00  0.00000000000E+00  0.79493774276E+02  0.12376455896E+03  0.94859927822E+02 0.  0.
        -13    1    3    3    0    0  0.30416931806E+02  0.86125704977E+01  0.85879436809E+02  0.91513140860E+02  0.10570000000E+00 0. -1.
         13    1    3    3    0    0 -0.30416931806E+02 -0.86125704977E+01 -0.63856625332E+01  0.32251418101E+02  0.10570000000E+00 0.  1.
<mgrwt>
<rscale>  0 0.94859928E+02</rscale>
<asrwt>0</asrwt>
<pdfrwt beam="1">  1        1 0.15635256E-01 0.94859928E+02</pdfrwt>
<pdfrwt beam="2">  1       -1 0.34054450E-02 0.94859928E+02</pdfrwt>
<totfact> 0.93986055E+04</totfact>
</mgrwt>
</event>
<event>
 5   1  0.1388354E+00  0.8931213E+02  0.7818608E-02  0.1304526E+00
         -1   -1    0    0    0  501 -0.00000000000E+00  0.00000000000E+00  0.10077974925E+02  0.10077976007E+02  0.46700000000E-02 0.  1.
          1   -1    0    0  501    0  0.00000000000E+00 -0.00000000000E+00 -0.19787347437E+03  0.19787347442E+03  0.46700000000E-02 0. -1.
         23    2    1    2    0    0  0.00000000000E+00  0.00000000000E+00 -0.18779549944E+03  0.20795145043E+03  0.89312127534E+02 0.  0.
        -13    1    3    3    0    0  0.12348453923E+02 -0.42749489724E+02 -0.85139350921E+02  0.96066245027E+02  0.10570000000E+00 0.  1.
         13    1    3    3    0    0 -0.12348453923E+02  0.42749489724E+02 -0.10265614852E+03  0.11188520540E+03  0.10570000000E+00 0. -1.
<mgrwt>
<rscale>  0 0.89312128E+02</rscale>
<asrwt>0</asrwt>
<pdfrwt beam="2">  1        1 0.30442070E-01 0.89312128E+02</pdfrwt>
<pdfrwt beam="1">  1       -1 0.15504579E-02 0.89312128E+02</pdfrwt>
<totfact> 0.12488286E+05</totfact>
</mgrwt>
</event>
<event>
 5   1  0.1388354E+00  0.8003165E+02  0.7818608E-02  0.1328962E+00
         -1   -1    0    0    0  501 -0.00000000000E+00  0.00000000000E+00  0.23436323654E+03  0.23436323659E+03  0.46700000000E-02 0.  1.
          1   -1    0    0  501    0  0.00000000000E+00 -0.00000000000E+00 -0.68324119400E+01  0.68324135359E+01  0.46700000000E-02 0. -1.
         23    2    1    2    0    0  0.00000000000E+00  0.00000000000E+00  0.22753082460E+03  0.24119565013E+03  0.80031653081E+02 0.  0.
        -13    1    3    3    0    0  0.20352659570E+02 -0.32198322765E+02  0.76818658947E+02  0.85744272551E+02  0.10570000000E+00 0. -1.
         13    1    3    3    0    0 -0.20352659570E+02  0.32198322765E+02  0.15071216566E+03  0.15545137757E+03  0.10570000000E+00 0.  1.
<mgrwt>
<rscale>  0 0.80031653E+02</rscale>
<asrwt>0</asrwt>
<pdfrwt beam="2">  1        1 0.10511403E-02 0.80031653E+02</pdfrwt>
<pdfrwt beam="1">  1       -1 0.36055886E-01 0.80031653E+02</pdfrwt>
<totfact> 0.92828709E+04</totfact>
</mgrwt>
</event>
<event>
 5   1  0.1388354E+00  0.9106680E+02  0.7818608E-02  0.1300289E+00
         -1   -1    0    0    0  501 -0.00000000000E+00  0.00000000000E+00  0.66479589141E+01  0.66479605544E+01  0.46700000000E-02 0.  1.
          1   -1    0    0  501    0  0.00000000000E+00 -0.00000000000E+00 -0.31186868887E+03  0.31186868891E+03  0.46700000000E-02 0. -1.
         23    2    1    2    0    0  0.00000000000E+00  0.00000000000E+00 -0.30522072996E+03  0.31851664946E+03  0.91066799593E+02 0.  0.
        -13    1    3    3    0    0 -0.42099554910E+02 -0.58214565216E+01 -0.20976374011E+03  0.21402593235E+03  0.10570000000E+00 0.  1.
         13    1    3    3    0    0  0.42099554910E+02  0.58214565216E+01 -0.95456989844E+02  0.10449071711E+03  0.10570000000E+00 0. -1.
<mgrwt>
<rscale>  0 0.91066800E+02</rscale>
<asrwt>0</asrwt>
<pdfrwt beam="2">  1        1 0.47979787E-01 0.91066800E+02</pdfrwt>
<pdfrwt beam="1">  1       -1 0.10227633E-02 0.91066800E+02</pdfrwt>
<totfact> 0.12948333E+05</totfact>
</mgrwt>
</event>
<event>
 5   1  0.1388354E+00  0.9175516E+02  0.7818608E-02  0.1298656E+00
          1   -1    0    0  501    0  0.00000000000E+00  0.00000000000E+00  0.61512305612E+02  0.61512305789E+02  0.46700000000E-02 0. -1.
         -1   -1    0    0    0  501 -0.00000000000E+00 -0.00000000000E+00 -0.34216771894E+02  0.34216772212E+02  0.46700000000E-02 0.  1.
         23    2    1    2    0    0  0.00000000000E+00  0.00000000000E+00  0.27295533718E+02  0.95729078001E+02  0.91755164509E+02 0.  0.
        -13    1    3    3    0    0  0.29874681368E+02  0.21612889945E+02 -0.14831495480E+02  0.39744157172E+02  0.10570000000E+00 0. -1.
         13    1    3    3    0    0 -0.29874681368E+02 -0.21612889945E+02  0.42127029199E+02  0.55984920829E+02  0.10570000000E+00 0.  1.
<mgrwt>
<rscale>  0 0.91755165E+02</rscale>
<asrwt>0</asrwt>
<pdfrwt beam="1">  1        1 0.94634316E-02 0.91755165E+02</pdfrwt>
<pdfrwt beam="2">  1       -1 0.52641188E-02 0.91755165E+02</pdfrwt>
<totfact> 0.95052847E+04</totfact>
</mgrwt>
</event>
<event>
 5   1  0.1388354E+00  0.9334379E+02  0.7818608E-02  0.1294950E+00
         -1   -1    0    0    0  501 -0.00000000000E+00  0.00000000000E+00  0.13623592110E+02  0.13623592910E+02  0.46700000000E-02 0.  1.
          1   -1    0    0  501    0  0.00000000000E+00 -0.00000000000E+00 -0.15988924248E+03  0.15988924255E+03  0.46700000000E-02 0. -1.
         23    2    1    2    0    0  0.00000000000E+00  0.00000000000E+00 -0.14626565037E+03  0.17351283546E+03  0.93343792460E+02 0.  0.
        -13    1    3    3    0    0  0.28282785290E+02  0.22827395187E+02 -0.12755797217E+03  0.13263503818E+03  0.10570000000E+00 0. -1.
         13    1    3    3    0    0 -0.28282785290E+02 -0.22827395187E+02 -0.18707678202E+02  0.40877797286E+02  0.10570000000E+00 0.  1.
<mgrwt>
<rscale>  0 0.93343792E+02</rscale>
<asrwt>0</asrwt>
<pdfrwt beam="2">  1        1 0.24598344E-01 0.93343792E+02</pdfrwt>
<pdfrwt beam="1">  1       -1 0.20959374E-02 0.93343792E+02</pdfrwt>
<totfact> 0.10649354E+05</totfact>
</mgrwt>
</event>
<event>
 5   1  0.1388354E+00  0.9096453E+02  0.7818608E-02  0.1300533E+00
          1   -1    0    0  501    0  0.00000000000E+00  0.00000000000E+00  0.10901309366E+03  0.10901309376E+03  0.46700000000E-02 0. -1.
         -1   -1    0    0    0  501 -0.00000000000E+00 -0.00000000000E+00 -0.18976033947E+02  0.18976034522E+02  0.46700000000E-02 0.  1.
         23    2    1    2    0    0  0.00000000000E+00  0.00000000000E+00  0.90037059716E+02  0.12798912828E+03  0.90964525155E+02 0.  0.
        -13    1    3    3    0    0 -0.20212934948E+02 -0.31588832046E+02  0.88110554996E+01  0.38523537230E+02  0.10570000000E+00 0. -1.
         13    1    3    3    0    0  0.20212934948E+02  0.31588832046E+02  0.81226004216E+02  0.89465591054E+02  0.10570000000E+00 0.  1.
<mgrwt>
<rscale>  0 0.90964525E+02</rscale>
<asrwt>0</asrwt>
<pdfrwt beam="1">  1        1 0.16771245E-01 0.90964525E+02</pdfrwt>
<pdfrwt beam="2">  1       -1 0.29193900E-02 0.90964525E+02</pdfrwt>
<totfact> 0.10665152E+05</totfact>
</mgrwt>
</event>
<event>
 5   1  0.1388354E+00  0.9098165E+02  0.7818608E-02  0.1300492E+00
          1   -1    0    0  501    0  0.00000000000E+00  0.00000000000E+00  0.98561654877E+01  0.98561665941E+01  0.46700000000E-02 0. -1.
         -1   -1    0    0    0  501 -0.00000000000E+00 -0.00000000000E+00 -0.20996145633E+03  0.20996145639E+03  0.46700000000E-02 0.  1.
         23    2    1    2    0    0  0.00000000000E+00  0.00000000000E+00 -0.20010529085E+03  0.21981762298E+03  0.90981646215E+02 0.  0.
        -13    1    3    3    0    0 -0.13423247994E+02  0.37686583035E+02 -0.15237269385E+03  0.15753701512E+03  0.10570000000E+00 0.  1.
         13    1    3    3    0    0  0.13423247994E+02 -0.37686583035E+02 -0.47732596996E+02  0.62280607865E+02  0.10570000000E+00 0. -1.
<mgrwt>
<rscale>  0 0.90981646E+02</rscale>
<asrwt>0</asrwt>
<pdfrwt beam="1">  1        1 0.15163334E-02 0.90981646E+02</pdfrwt>
<pdfrwt beam="2">  1       -1 0.32301759E-01 0.90981646E+02</pdfrwt>
<totfact> 0.68832438E+04</totfact>
</mgrwt>
</event>
<event>
 5   1  0.1388354E+00  0.8948149E+02  0.7818608E-02  0.1304112E+00
          1   -1    0    0  501    0  0.00000000000E+00  0.00000000000E+00  0.11538472631E+03  0.11538472640E+03  0.46700000000E-02 0. -1.
         -1   -1    0    0    0  501 -0.00000000000E+00 -0.00000000000E+00 -0.17348346373E+02  0.17348347001E+02  0.46700000000E-02 0.  1.
         23    2    1    2    0    0  0.00000000000E+00  0.00000000000E+00  0.98036379935E+02  0.13273307340E+03  0.89481489619E+02 0.  0.
        -13    1    3    3    0    0 -0.23162971490E+02 -0.37794954230E+02  0.40026880025E+02  0.59725573338E+02  0.10570000000E+00 0.  1.
         13    1    3    3    0    0  0.23162971490E+02  0.37794954230E+02  0.58009499911E+02  0.73007500066E+02  0.10570000000E+00 0. -1.
<mgrwt>
<rscale>  0 0.89481490E+02</rscale>
<asrwt>0</asrwt>
<pdfrwt beam="1">  1        1 0.17751497E-01 0.89481490E+02</pdfrwt>
<pdfrwt beam="2">  1       -1 0.26689764E-02 0.89481490E+02</pdfrwt>
<totfact> 0.11259381E+05</totfact>
</mgrwt>
</event>
<event>
 5   1  0.1388354E+00  0.9098847E+02  0.7818608E-02  0.1300475E+00
          1   -1    0    0  501    0  0.00000000000E+00  0.00000000000E+00  0.17920822842E+02  0.17920823450E+02  0.46700000000E-02 0. -1.
         -1   -1    0    0    0  501 -0.00000000000E+00 -0.00000000000E+00 -0.11549275438E+03  0.11549275447E+03  0.46700000000E-02 0.  1.
         23    2    1    2    0    0  0.00000000000E+00  0.00000000000E+00 -0.97571931534E+02  0.13341357792E+03  0.90988466029E+02 0.  0.
        -13    1    3    3    0    0 -0.14436409605E+02  0.29213972555E+02 -0.95335055896E+02  0.10075043509E+03  0.10570000000E+00 0.  1.
         13    1    3    3    0    0  0.14436409605E+02 -0.29213972555E+02 -0.22368756375E+01  0.32663142835E+02  0.10570000000E+00 0. -1.
<mgrwt>
<rscale>  0 0.90988466E+02</rscale>
<asrwt>0</asrwt>
<pdfrwt beam="1">  1        1 0.27570498E-02 0.90988466E+02</pdfrwt>
<pdfrwt beam="2">  1       -1 0.17768116E-01 0.90988466E+02</pdfrwt>
<totfact> 0.79565582E+04</totfact>
</mgrwt>
</event>
<event>
 5   1  0.1388354E+00  0.9351235E+02  0.7818608E-02  0.1294562E+00
         -1   -1    0    0    0  501 -0.00000000000E+00  0.00000000000E+00  0.22450693832E+03  0.22450693837E+03  0.46700000000E-02 0.  1.
          1   -1    0    0  501    0  0.00000000000E+00 -0.00000000000E+00 -0.97375162324E+01  0.97375173522E+01  0.46700000000E-02 0. -1.
         23    2    1    2    0    0  0.00000000000E+00  0.00000000000E+00  0.21476942208E+03  0.23424445572E+03  0.93512354114E+02 0.  0.
        -13    1    3    3    0    0 -0.35309302755E+02  0.30649023593E+02  0.10703570084E+03  0.11680223429E+03  0.10570000000E+00 0.  1.
         13    1    3    3    0    0  0.35309302755E+02 -0.30649023593E+02  0.10773372124E+03  0.11744222142E+03  0.10570000000E+00 0. -1.
<mgrwt>
<rscale>  0 0.93512354E+02</rscale>
<asrwt>0</asrwt>
<pdfrwt beam="2">  1        1 0.14980795E-02 0.93512354E+02</pdfrwt>
<pdfrwt beam="1">  1       -1 0.34539529E-01 0.93512354E+02</pdfrwt>
<totfact> 0.62780331E+04</totfact>
</mgrwt>
</event>
<event>
 5   1  0.1388354E+00  0.9165071E+02  0.7818608E-02  0.1298903E+00
         -1   -1    0    0    0  501 -0.00000000000E+00  0.00000000000E+00  0.91629736612E+01  0.91629748512E+01  0.46700000000E-02 0.  1.
          1   -1    0    0  501    0  0.00000000000E+00 -0.00000000000E+00 -0.22917921433E+03  0.22917921437E+03  0.46700000000E-02 0. -1.
         23    2    1    2    0    0  0.00000000000E+00  0.00000000000E+00 -0.22001624067E+03  0.23834218923E+03  0.91650711990E+02 0.  0.
        -13    1    3    3    0    0 -0.32202544038E+02 -0.25812559059E+02 -0.58214734550E+02  0.71360062632E+02  0.10570000000E+00 0.  1.
         13    1    3    3    0    0  0.32202544038E+02  0.25812559059E+02 -0.16180150612E+03  0.16698212659E+03  0.10570000000E+00 0. -1.
<mgrwt>
<rscale>  0 0.91650712E+02</rscale>
<asrwt>0</asrwt>
<pdfrwt beam="2">  1        1 0.35258337E-01 0.91650712E+02</pdfrwt>
<pdfrwt beam="1">  1       -1 0.14096885E-02 0.91650712E+02</pdfrwt>
<totfact> 0.11991356E+05</totfact>
</mgrwt>
</event>
<event>
 5   1  0.1388354E+00  0.8968171E+02  0.7818608E-02  0.1303624E+00
          1   -1    0    0  501    0  0.00000000000E+00  0.00000000000E+00  0.16604680850E+03  0.16604680857E+03  0.46700000000E-02 0. -1.
         -1   -1    0    0    0  501 -0.00000000000E+00 -0.00000000000E+00 -0.12109249233E+02  0.12109250133E+02  0.46700000000E-02 0.  1.
         23    2    1    2    0    0  0.00000000000E+00  0.00000000000E+00  0.15393755927E+03  0.17815605870E+03  0.89681709941E+02 0.  0.
        -13    1    3    3    0    0 -0.29713999937E+01 -0.41409293180E+02  0.43306946879E+02  0.59992179491E+02  0.10570000000E+00 0.  1.
         13    1    3    3    0    0  0.29713999937E+01  0.41409293180E+02  0.11063061239E+03  0.11816387921E+03  0.10570000000E+00 0. -1.
<mgrwt>
<rscale>  0 0.89681710E+02</rscale>
<asrwt>0</asrwt>
<pdfrwt beam="1">  1        1 0.25545661E-01 0.89681710E+02</pdfrwt>
<pdfrwt beam="2">  1       -1 0.18629617E-02 0.89681710E+02</pdfrwt>
<totfact> 0.11946069E+05</totfact>
</mgrwt>
</event>
<event>
 5   1  0.1388354E+00  0.9410732E+02  0.7818608E-02  0.1293199E+00
         -1   -1    0    0    0  501 -0.00000000000E+00  0.00000000000E+00  0.23538923844E+03  0.23538923849E+03  0.46700000000E-02 0.  1.
          1   -1    0    0  501    0  0.00000000000E+00 -0.00000000000E+00 -0.94058973084E+01  0.94058984677E+01  0.46700000000E-02 0. -1.
         23    2    1    2    0    0  0.00000000000E+00  0.00000000000E+00  0.22598334113E+03  0.24479513696E+03  0.94107324940E+02 0.  0.
        -13    1    3    3    0    0 -0.13375422202E+02 -0.38795096598E+02  0.53102564573E+02  0.67110766468E+02  0.10570000000E+00 0.  1.
         13    1    3    3    0    0  0.13375422202E+02  0.38795096598E+02  0.17288077656E+03  0.17768437049E+03  0.10570000000E+00 0. -1.
<mgrwt>
<rscale>  0 0.94107325E+02</rscale>
<asrwt>0</asrwt>
<pdfrwt beam="2">  1        1 0.14470612E-02 0.94107325E+02</pdfrwt>
<pdfrwt beam="1">  1       -1 0.36213730E-01 0.94107325E+02</pdfrwt>
<totfact> 0.60824590E+04</totfact>
</mgrwt>
</event>
<event>
 5   1  0.1388354E+00  0.9091327E+02  0.7818608E-02  0.1300655E+00
          1   -1    0    0  501    0  0.00000000000E+00  0.00000000000E+00  0.49255850159E+02  0.49255850380E+02  0.46700000000E-02 0. -1.
         -1   -1    0    0    0  501 -0.00000000000E+00 -0.00000000000E+00 -0.41950458589E+02  0.41950458849E+02  0.46700000000E-02 0.  1.
         23    2    1    2    0    0  0.00000000000E+00  0.00000000000E+00  0.73053915700E+01  0.91206309229E+02  0.90913266893E+02 0.  0.
        -13    1    3    3    0    0 -0.14581680157E+02 -0.12952921781E+02 -0.37539252601E+02  0.42303785141E+02  0.10570000000E+00 0.  1.
         13    1    3    3    0    0  0.14581680157E+02  0.12952921781E+02  0.44844644171E+02  0.48902524088E+02  0.10570000000E+00 0. -1.
<mgrwt>
<rscale>  0 0.90913267E+02</rscale>
<asrwt>0</asrwt>
<pdfrwt beam="1">  1        1 0.75778231E-02 0.90913267E+02</pdfrwt>
<pdfrwt beam="2">  1       -1 0.64539168E-02 0.90913267E+02</pdfrwt>
<totfact> 0.94313641E+04</totfact>
</mgrwt>
</event>
<event>
 5   1  0.1388354E+00  0.9106713E+02  0.7818608E-02  0.1300288E+00
         -1   -1    0    0    0  501 -0.00000000000E+00  0.00000000000E+00  0.14105327842E+03  0.14105327850E+03  0.46700000000E-02 0.  1.
          1   -1    0    0  501    0  0.00000000000E+00 -0.00000000000E+00 -0.14698740281E+02  0.14698741023E+02  0.46700000000E-02 0. -1.
         23    2    1    2    0    0  0.00000000000E+00  0.00000000000E+00  0.12635453814E+03  0.15575201952E+03  0.91067130605E+02 0.  0.
        -13    1    3    3    0    0  0.17738357808E+02 -0.21165409183E+02  0.12590012662E+01  0.27644531833E+02  0.10570000000E+00 0. -1.
         13    1    3    3    0    0 -0.17738357808E+02  0.21165409183E+02  0.12509553688E+03  0.12810748769E+03  0.10570000000E+00 0.  1.
<mgrwt>
<rscale>  0 0.91067131E+02</rscale>
<asrwt>0</asrwt>
<pdfrwt beam="2">  1        1 0.22613447E-02 0.91067131E+02</pdfrwt>
<pdfrwt beam="1">  1       -1 0.21700504E-01 0.91067131E+02</pdfrwt>
<totfact> 0.76089601E+04</totfact>
</mgrwt>
</event>
<event>
 5   1  0.1388354E+00  0.8926261E+02  0.7818608E-02  0.1304647E+00
          1   -1    0    0  501    0  0.00000000000E+00  0.00000000000E+00  0.77874586710E+02  0.77874586850E+02  0.46700000000E-02 0. -1.
         -1   -1    0    0    0  501 -0.00000000000E+00 -0.00000000000E+00 -0.25578990537E+02  0.25578990963E+02  0.46700000000E-02 0.  1.
         23    2    1    2    0    0  0.00000000000E+00  0.00000000000E+00  0.52295596173E+02  0.10345357781E+03  0.89262609100E+02 0.  0.
        -13    1    3    3    0    0 -0.14785501928E+02  0.35661365392E+02  0.19083438055E+00  0.38605590776E+02  0.10570000000E+00 0.  1.
         13    1    3    3    0    0  0.14785501928E+02 -0.35661365392E+02  0.52104761792E+02  0.64847987037E+02  0.10570000000E+00 0. -1.
<mgrwt>
<rscale>  0 0.89262609E+02</rscale>
<asrwt>0</asrwt>
<pdfrwt beam="1">  1        1 0.11980706E-01 0.89262609E+02</pdfrwt>
<pdfrwt beam="2">  1       -1 0.39352294E-02 0.89262609E+02</pdfrwt>
<totfact> 0.10632535E+05</totfact>
</mgrwt>
</event>
<event>
 5   1  0.1388354E+00  0.9116136E+02  0.7818608E-02  0.1300063E+00
          1   -1    0    0  501    0  0.00000000000E+00  0.00000000000E+00  0.44250495196E+02  0.44250495442E+02  0.46700000000E-02 0. -1.
         -1   -1    0    0    0  501 -0.00000000000E+00 -0.00000000000E+00 -0.46950855048E+02  0.46950855280E+02  0.46700000000E-02 0.  1.
         23    2    1    2    0    0  0.00000000000E+00  0.00000000000E+00 -0.27003598520E+01  0.91201350722E+02  0.91161364789E+02 0.  0.
        -13    1    3    3    0    0  0.20732135403E+02  0.36879202107E+02 -0.18319059742E+02  0.46103103027E+02  0.10570000000E+00 0.  1.
         13    1    3    3    0    0 -0.20732135403E+02 -0.36879202107E+02  0.15618699890E+02  0.45098247695E+02  0.10570000000E+00 0. -1.
<mgrwt>
<rscale>  0 0.91161365E+02</rscale>
<asrwt>0</asrwt>
<pdfrwt beam="1">  1        1 0.68077685E-02 0.91161365E+02</pdfrwt>
<pdfrwt beam="2">  1       -1 0.72232085E-02 0.91161365E+02</pdfrwt>
<totfact> 0.92102719E+04</totfact>
</mgrwt>
</event>
<event>
 5   1  0.1388354E+00  0.9159227E+02  0.7818608E-02  0.1299041E+00
         -1   -1    0    0    0  501 -0.00000000000E+00  0.00000000000E+00  0.34755692862E+03  0.34755692865E+03  0.46700000000E-02 0.  1.
          1   -1    0    0  501    0  0.00000000000E+00 -0.00000000000E+00 -0.60343660967E+01  0.60343679037E+01  0.46700000000E-02 0. -1.
         23    2    1    2    0    0  0.00000000000E+00  0.00000000000E+00  0.34152256253E+03  0.35359129656E+03  0.91592271983E+02 0.  0.
        -13    1    3    3    0    0  0.41602971053E+02  0.18453819436E+02  0.15110525107E+03  0.15781051526E+03  0.10570000000E+00 0. -1.
         13    1    3    3    0    0 -0.41602971053E+02 -0.18453819436E+02  0.19041731145E+03  0.19578078130E+03  0.10570000000E+00 0.  1.
<mgrwt>
<rscale>  0 0.91592272E+02</rscale>
<asrwt>0</asrwt>
<pdfrwt beam="2">  1        1 0.92836399E-03 0.91592272E+02</pdfrwt>
<pdfrwt beam="1">  1       -1 0.53470306E-01 0.91592272E+02</pdfrwt>
<totfact> 0.56290637E+04</totfact>
</mgrwt>
</event>
<event>
 5   1  0.1388354E+00  0.9522583E+02  0.7818608E-02  0.1290668E+00
         -1   -1    0    0    0  501 -0.00000000000E+00  0.00000000000E+00  0.19630351520E+03  0.19630351526E+03  0.46700000000E-02 0.  1.
          1   -1    0    0  501    0  0.00000000000E+00 -0.00000000000E+00 -0.11548389507E+02  0.11548390451E+02  0.46700000000E-02 0. -1.
         23    2    1    2    0    0  0.00000000000E+00  0.00000000000E+00  0.18475512570E+03  0.20785190571E+03  0.95225827568E+02 0.  0.
        -13    1    3    3    0    0 -0.15999918404E+01  0.29487432342E+02  0.17389909051E+03  0.17638870002E+03  0.10570000000E+00 0.  1.
         13    1    3    3    0    0  0.15999918404E+01 -0.29487432342E+02  0.10856035184E+02  0.31463205692E+02  0.10570000000E+00 0. -1.
<mgrwt>
<rscale>  0 0.95225828E+02</rscale>
<asrwt>0</asrwt>
<pdfrwt beam="2">  1        1 0.17766753E-02 0.95225828E+02</pdfrwt>
<pdfrwt beam="1">  1       -1 0.30200542E-01 0.95225828E+02</pdfrwt>
<totfact> 0.62310981E+04</totfact>
</mgrwt>
</event>
<event>
 5   1  0.1388354E+00  0.8040645E+02  0.7818608E-02  0.1327902E+00
          1   -1    0    0  501    0  0.00000000000E+00  0.00000000000E+00  0.21140816826E+02  0.21140817342E+02  0.46700000000E-02 0. -1.
         -1   -1    0    0    0  501 -0.00000000000E+00 -0.00000000000E+00 -0.76453964396E+02  0.76453964538E+02  0.46700000000E-02 0.  1.
         23    2    1    2    0    0  0.00000000000E+00  0.00000000000E+00 -0.55313147570E+02  0.97594781880E+02  0.80406449718E+02 0.  0.
        -13    1    3    3    0    0  0.85656632383E+01 -0.36049952793E+02 -0.46589738666E+02  0.59528015292E+02  0.10570000000E+00 0.  1.
         13    1    3    3    0    0 -0.85656632383E+01  0.36049952793E+02 -0.87234089033E+01  0.38066766588E+02  0.10570000000E+00 0. -1.
<mgrwt>
<rscale>  0 0.80406450E+02</rscale>
<asrwt>0</asrwt>
<pdfrwt beam="1">  1        1 0.32524334E-02 0.80406450E+02</pdfrwt>
<pdfrwt beam="2">  1       -1 0.11762148E-01 0.80406450E+02</pdfrwt>
<totfact> 0.11754326E+05</totfact>
</mgrwt>
</event>
<event>
 5   1  0.1388354E+00  0.1138471E+03  0.7818608E-02  0.1253607E+00
          1   -1    0    0  501    0  0.00000000000E+00  0.00000000000E+00  0.17477398828E+03  0.17477398835E+03  0.46700000000E-02 0. -1.
         -1   -1    0    0    0  501 -0.00000000000E+00 -0.00000000000E+00 -0.18539904269E+02  0.18539904857E+02  0.46700000000E-02 0.  1.
         23    2    1    2    0    0  0.00000000000E+00  0.00000000000E+00  0.15623408402E+03  0.19331389320E+03  0.11384714444E+03 0.  0.
        -13    1    3    3    0    0 -0.31611017354E+02 -0.24531491975E+01 -0.21579778965E+01  0.31779590938E+02  0.10570000000E+00 0.  1.
         13    1    3    3    0    0  0.31611017354E+02  0.24531491975E+01  0.15839206191E+03  0.16153430227E+03  0.10570000000E+00 0. -1.
<mgrwt>
<rscale>  0 0.11384714E+03</rscale>
<asrwt>0</asrwt>
<pdfrwt beam="1">  1        1 0.26888306E-01 0.11384714E+03</pdfrwt>
<pdfrwt beam="2">  1       -1 0.28522930E-02 0.11384714E+03</pdfrwt>
<totfact> 0.62998931E+04</totfact>
</mgrwt>
</event>
<event>
 5   1  0.1388354E+00  0.9252110E+02  0.7818608E-02  0.1296859E+00
          1   -1    0    0  501    0  0.00000000000E+00  0.00000000000E+00  0.28336946887E+03  0.28336946890E+03  0.46700000000E-02 0. -1.
         -1   -1    0    0    0  501 -0.00000000000E+00 -0.00000000000E+00 -0.75521137301E+01  0.75521151740E+01  0.46700000000E-02 0.  1.
         23    2    1    2    0    0  0.00000000000E+00  0.00000000000E+00  0.27581735514E+03  0.29092158408E+03  0.92521104017E+02 0.  0.
        -13    1    3    3    0    0 -0.11263540281E+02 -0.41574603770E+02  0.19096515230E+03  0.19576265114E+03  0.10570000000E+00 0. -1.
         13    1    3    3    0    0  0.11263540281E+02  0.41574603770E+02  0.84852202838E+02  0.95158932934E+02  0.10570000000E+00 0.  1.
<mgrwt>
<rscale>  0 0.92521104E+02</rscale>
<asrwt>0</asrwt>
<pdfrwt beam="1">  1        1 0.43595304E-01 0.92521104E+02</pdfrwt>
<pdfrwt beam="2">  1       -1 0.11618637E-02 0.92521104E+02</pdfrwt>
<totfact> 0.12186893E+05</totfact>
</mgrwt>
</event>
<event>
 5   1  0.1388354E+00  0.7943230E+02  0.7818608E-02  0.1330670E+00
         -1   -1    0    0    0  501 -0.00000000000E+00  0.00000000000E+00  0.29999230431E+02  0.29999230794E+02  0.46700000000E-02 0.  1.
          1   -1    0    0  501    0  0.00000000000E+00 -0.00000000000E+00 -0.52580431819E+02  0.52580432026E+02  0.46700000000E-02 0. -1.
         23    2    1    2    0    0  0.00000000000E+00  0.00000000000E+00 -0.22581201388E+02  0.82579662821E+02  0.79432298566E+02 0.  0.
        -13    1    3    3    0    0  0.38519879763E+02 -0.91021120701E+01 -0.14696340438E+02  0.42221122389E+02  0.10570000000E+00 0. -1.
         13    1    3    3    0    0 -0.38519879763E+02  0.91021120701E+01 -0.78848609507E+01  0.40358540431E+02  0.10570000000E+00 0.  1.
<mgrwt>
<rscale>  0 0.79432299E+02</rscale>
<asrwt>0</asrwt>
<pdfrwt beam="2">  1        1 0.80892973E-02 0.79432299E+02</pdfrwt>
<pdfrwt beam="1">  1       -1 0.46152663E-02 0.79432299E+02</pdfrwt>
<totfact> 0.13819113E+05</totfact>
</mgrwt>
</event>
<event>
 5   1  0.1388354E+00  0.1048620E+03  0.7818608E-02  0.1270392E+00
          1   -1    0    0  501    0  0.00000000000E+00  0.00000000000E+00  0.15584538349E+03  0.15584538356E+03  0.46700000000E-02 0. -1.
         -1   -1    0    0    0  501 -0.00000000000E+00 -0.00000000000E+00 -0.17639328655E+02  0.17639329273E+02  0.46700000000E-02 0.  1.
         23    2    1    2    0    0  0.00000000000E+00  0.00000000000E+00  0.13820605484E+03  0.17348471283E+03  0.10486196638E+03 0.  0.
        -13    1    3    3    0    0 -0.42136268776E+02  0.30100885506E+02  0.55513845034E+02  0.75916576698E+02  0.10570000000E+00 0.  1.
         13    1    3    3    0    0  0.42136268776E+02 -0.30100885506E+02  0.82692209802E+02  0.97568136136E+02  0.10570000000E+00 0. -1.
<mgrwt>
<rscale>  0 0.10486197E+03</rscale>
<asrwt>0</asrwt>
<pdfrwt beam="1">  1        1 0.23976212E-01 0.10486197E+03</pdfrwt>
<pdfrwt beam="2">  1       -1 0.27137430E-02 0.10486197E+03</pdfrwt>
<totfact> 0.77208127E+04</totfact>
</mgrwt>
</event>
<event>
 5   1  0.1388354E+00  0.9862706E+02  0.7818608E-02  0.1283210E+00
         -1   -1    0    0    0  501 -0.00000000000E+00  0.00000000000E+00  0.74373062246E+02  0.74373062392E+02  0.46700000000E-02 0.  1.
          1   -1    0    0  501    0  0.00000000000E+00 -0.00000000000E+00 -0.32697645396E+02  0.32697645730E+02  0.46700000000E-02 0. -1.
         23    2    1    2    0    0  0.00000000000E+00  0.00000000000E+00  0.41675416850E+02  0.10707070812E+03  0.98627055964E+02 0.  0.
        -13    1    3    3    0    0  0.49010784499E+02  0.53111836501E+01  0.22188063282E+02  0.54060956278E+02  0.10570000000E+00 0. -1.
         13    1    3    3    0    0 -0.49010784499E+02 -0.53111836501E+01  0.19487353567E+02  0.53009751844E+02  0.10570000000E+00 0.  1.
<mgrwt>
<rscale>  0 0.98627056E+02</rscale>
<asrwt>0</asrwt>
<pdfrwt beam="2">  1        1 0.50304071E-02 0.98627056E+02</pdfrwt>
<pdfrwt beam="1">  1       -1 0.11442009E-01 0.98627056E+02</pdfrwt>
<totfact> 0.70092486E+04</totfact>
</mgrwt>
</event>
<event>
 5   1  0.1388354E+00  0.8198665E+02  0.7818608E-02  0.1323506E+00
          1   -1    0    0  501    0  0.00000000000E+00  0.00000000000E+00  0.33245581222E+03  0.33245581225E+03  0.46700000000E-02 0. -1.
         -1   -1    0    0    0  501 -0.00000000000E+00 -0.00000000000E+00 -0.50546635424E+01  0.50546656997E+01  0.46700000000E-02 0.  1.
         23    2    1    2    0    0  0.00000000000E+00  0.00000000000E+00  0.32740114868E+03  0.33751047795E+03  0.81986648744E+02 0.  0.
        -13    1    3    3    0    0  0.62906153266E+01  0.40332541686E+02  0.14821205286E+03  0.15373063958E+03  0.10570000000E+00 0. -1.
         13    1    3    3    0    0 -0.62906153266E+01 -0.40332541686E+02  0.17918909582E+03  0.18377983837E+03  0.10570000000E+00 0.  1.
<mgrwt>
<rscale>  0 0.81986649E+02</rscale>
<asrwt>0</asrwt>
<pdfrwt beam="1">  1        1 0.51147049E-01 0.81986649E+02</pdfrwt>
<pdfrwt beam="2">  1       -1 0.77764070E-03 0.81986649E+02</pdfrwt>
<totfact> 0.17299989E+05</totfact>
</mgrwt>
</event>
<event>
 5   1  0.1388354E+00  0.8949985E+02  0.7818608E-02  0.1304067E+00
          1   -1    0    0  501    0  0.00000000000E+00  0.00000000000E+00  0.10736815430E+03  0.10736815440E+03  0.46700000000E-02 0. -1.
         -1   -1    0    0    0  501 -0.00000000000E+00 -0.00000000000E+00 -0.18651301502E+02  0.18651302086E+02  0.46700000000E-02 0.  1.
         23    2    1    2    0    0  0.00000000000E+00  0.00000000000E+00  0.88716852796E+02  0.12601945649E+03  0.89499851636E+02 0.  0.
        -13    1    3    3    0    0 -0.97362214992E+01 -0.27918431490E+02 -0.29381672849E+01  0.29713243267E+02  0.10570000000E+00 0.  1.
         13    1    3    3    0    0  0.97362214992E+01  0.27918431490E+02  0.91655020081E+02  0.96306213219E+02  0.10570000000E+00 0. -1.
<mgrwt>
<rscale>  0 0.89499852E+02</rscale>
<asrwt>0</asrwt>
<pdfrwt beam="1">  1        1 0.16518178E-01 0.89499852E+02</pdfrwt>
<pdfrwt beam="2">  1       -1 0.28694310E-02 0.89499852E+02</pdfrwt>
<totfact> 0.11116899E+05</totfact>
</mgrwt>
</event>
<event>
 5   1  0.1388354E+00  0.6283860E+02  0.7818608E-02  0.1386291E+00
          1   -1    0    0  501    0  0.00000000000E+00  0.00000000000E+00  0.21750029833E+03  0.21750029838E+03  0.46700000000E-02 0.  1.
         -1   -1    0    0    0  501 -0.00000000000E+00 -0.00000000000E+00 -0.45387166922E+01  0.45387190948E+01  0.46700000000E-02 0. -1.
         23    2    1    2    0    0  0.00000000000E+00  0.00000000000E+00  0.21296158164E+03  0.22203901747E+03  0.62838603004E+02 0.  0.
        -13    1    3    3    0    0  0.30975940182E+02  0.18870188131E+01  0.12382425373E+03  0.12765393333E+03  0.10570000000E+00 0. -1.
         13    1    3    3    0    0 -0.30975940182E+02 -0.18870188131E+01  0.89137327909E+02  0.94385084147E+02  0.10570000000E+00 0.  1.
<mgrwt>
<rscale>  0 0.62838603E+02</rscale>
<asrwt>0</asrwt>
<pdfrwt beam="1">  1        1 0.33461578E-01 0.62838603E+02</pdfrwt>
<pdfrwt beam="2">  1       -1 0.69826444E-03 0.62838603E+02</pdfrwt>
<totfact> 0.31951393E+05</totfact>
</mgrwt>
</event>
<event>
 5   1  0.1388354E+00  0.9115858E+02  0.7818608E-02  0.1300070E+00
          1   -1    0    0  501    0  0.00000000000E+00  0.00000000000E+00  0.20821677264E+02  0.20821677788E+02  0.46700000000E-02 0. -1.
         -1   -1    0    0    0  501 -0.00000000000E+00 -0.00000000000E+00 -0.99774468571E+02  0.99774468681E+02  0.46700000000E-02 0.  1.
         23    2    1    2    0    0  0.00000000000E+00  0.00000000000E+00 -0.78952791307E+02  0.12059614647E+03  0.91158583183E+02 0.  0.
        -13    1    3    3    0    0  0.22819077749E+02  0.14069430937E+02 -0.88242028584E+02  0.92224324217E+02  0.10570000000E+00 0.  1.
         13    1    3    3    0    0 -0.22819077749E+02 -0.14069430937E+02  0.92892372768E+01  0.28371822252E+02  0.10570000000E+00 0. -1.
<mgrwt>
<rscale>  0 0.91158583E+02</rscale>
<asrwt>0</asrwt>
<pdfrwt beam="1">  1        1 0.32033351E-02 0.91158583E+02</pdfrwt>
<pdfrwt beam="2">  1       -1 0.15349918E-01 0.91158583E+02</pdfrwt>
<totfact> 0.81446774E+04</totfact>
</mgrwt>
</event>
<event>
 5   1  0.1388354E+00  0.9483548E+02  0.7818608E-02  0.1291547E+00
          1   -1    0    0  501    0  0.00000000000E+00  0.00000000000E+00  0.40960793206E+03  0.40960793208E+03  0.46700000000E-02 0. -1.
         -1   -1    0    0    0  501 -0.00000000000E+00 -0.00000000000E+00 -0.54892527071E+01  0.54892546936E+01  0.46700000000E-02 0.  1.
         23    2    1    2    0    0  0.00000000000E+00  0.00000000000E+00  0.40411867935E+03  0.41509718678E+03  0.94835475804E+02 0.  0.
        -13    1    3    3    0    0 -0.45834849557E+02  0.74944162251E+01  0.16020642904E+03  0.16680261025E+03  0.10570000000E+00 0.  1.
         13    1    3    3    0    0  0.45834849557E+02 -0.74944162251E+01  0.24391225031E+03  0.24829457652E+03  0.10570000000E+00 0. -1.
<mgrwt>
<rscale>  0 0.94835476E+02</rscale>
<asrwt>0</asrwt>
<pdfrwt beam="1">  1        1 0.63016612E-01 0.94835476E+02</pdfrwt>
<pdfrwt beam="2">  1       -1 0.84450048E-03 0.94835476E+02</pdfrwt>
<totfact> 0.12195128E+05</totfact>
</mgrwt>
</event>
<event>
 5   1  0.1388354E+00  0.9277175E+02  0.7818608E-02  0.1296275E+00
          1   -1    0    0  501    0  0.00000000000E+00  0.00000000000E+00  0.14561851863E+03  0.14561851871E+03  0.46700000000E-02 0. -1.
         -1   -1    0    0    0  501 -0.00000000000E+00 -0.00000000000E+00 -0.14775931567E+02  0.14775932305E+02  0.46700000000E-02 0.  1.
         23    2    1    2    0    0  0.00000000000E+00  0.00000000000E+00  0.13084258707E+03  0.16039445101E+03  0.92771748531E+02 0.  0.
        -13    1    3    3    0    0 -0.16723312913E+02  0.30185044252E+02  0.11829617201E+02  0.36479543677E+02  0.10570000000E+00 0.  1.
         13    1    3    3    0    0  0.16723312913E+02 -0.30185044252E+02  0.11901296987E+03  0.12391490734E+03  0.10570000000E+00 0. -1.
<mgrwt>
<rscale>  0 0.92771749E+02</rscale>
<asrwt>0</asrwt>
<pdfrwt beam="1">  1        1 0.22402850E-01 0.92771749E+02</pdfrwt>
<pdfrwt beam="2">  1       -1 0.22732202E-02 0.92771749E+02</pdfrwt>
<totfact> 0.10641528E+05</totfact>
</mgrwt>
</event>
<event>
 5   1  0.1388354E+00  0.9268256E+02  0.7818608E-02  0.1296482E+00
         -1   -1    0    0    0  501 -0.00000000000E+00  0.00000000000E+00  0.65372271854E+02  0.65372272021E+02  0.46700000000E-02 0.  1.
          1   -1    0    0  501    0  0.00000000000E+00 -0.00000000000E+00 -0.32850538318E+02  0.32850538650E+02  0.46700000000E-02 0. -1.
         23    2    1    2    0    0  0.00000000000E+00  0.00000000000E+00  0.32521733536E+02  0.98222810670E+02  0.92682562458E+02 0.  0.
        -13    1    3    3    0    0  0.18098914629E+02 -0.10532889931E+02  0.60071968396E+02  0.63617332862E+02  0.10570000000E+00 0.  1.
         13    1    3    3    0    0 -0.18098914629E+02  0.10532889931E+02 -0.27550234859E+02  0.34605477808E+02  0.10570000000E+00 0. -1.
<mgrwt>
<rscale>  0 0.92682562E+02</rscale>
<asrwt>0</asrwt>
<pdfrwt beam="2">  1        1 0.50539291E-02 0.92682562E+02</pdfrwt>
<pdfrwt beam="1">  1       -1 0.10057272E-01 0.92682562E+02</pdfrwt>
<totfact> 0.83919092E+04</totfact>
</mgrwt>
</event>
<event>
 5   1  0.1388354E+00  0.9228463E+02  0.7818608E-02  0.1297412E+00
         -1   -1    0    0    0  501 -0.00000000000E+00  0.00000000000E+00  0.26449059727E+03  0.26449059731E+03  0.46700000000E-02 0.  1.
          1   -1    0    0  501    0  0.00000000000E+00 -0.00000000000E+00 -0.80498635766E+01  0.80498649312E+01  0.46700000000E-02 0. -1.
         23    2    1    2    0    0  0.00000000000E+00  0.00000000000E+00  0.25644073369E+03  0.27254046224E+03  0.92284633944E+02 0.  0.
        -13    1    3    3    0    0 -0.33396927046E+02 -0.13791544136E+02  0.43469498074E+02  0.56525833572E+02  0.10570000000E+00 0. -1.
         13    1    3    3    0    0  0.33396927046E+02  0.13791544136E+02  0.21297123562E+03  0.21601462867E+03  0.10570000000E+00 0.  1.
<mgrwt>
<rscale>  0 0.92284634E+02</rscale>
<asrwt>0</asrwt>
<pdfrwt beam="2">  1        1 0.12384408E-02 0.92284634E+02</pdfrwt>
<pdfrwt beam="1">  1       -1 0.40690856E-01 0.92284634E+02</pdfrwt>
<totfact> 0.61535892E+04</totfact>
</mgrwt>
</event>
<event>
 5   1  0.1388354E+00  0.9076876E+02  0.7818608E-02  0.1301001E+00
         -1   -1    0    0    0  501 -0.00000000000E+00  0.00000000000E+00  0.94222694742E+02  0.94222694858E+02  0.46700000000E-02 0.  1.
          1   -1    0    0  501    0  0.00000000000E+00 -0.00000000000E+00 -0.21860360148E+02  0.21860360647E+02  0.46700000000E-02 0. -1.
         23    2    1    2    0    0  0.00000000000E+00  0.00000000000E+00  0.72362334594E+02  0.11608305550E+03  0.90768762839E+02 0.  0.
        -13    1    3    3    0    0  0.15269495708E+02 -0.32804858210E+02  0.11477036817E+01  0.36202826099E+02  0.10570000000E+00 0. -1.
         13    1    3    3    0    0 -0.15269495708E+02  0.32804858210E+02  0.71214630912E+02  0.79880229405E+02  0.10570000000E+00 0.  1.
<mgrwt>
<rscale>  0 0.90768763E+02</rscale>
<asrwt>0</asrwt>
<pdfrwt beam="2">  1        1 0.33631324E-02 0.90768763E+02</pdfrwt>
<pdfrwt beam="1">  1       -1 0.14495799E-01 0.90768763E+02</pdfrwt>
<totfact> 0.83217621E+04</totfact>
</mgrwt>
</event>
<event>
 5   1  0.1388354E+00  0.9107361E+02  0.7818608E-02  0.1300272E+00
         -1   -1    0    0    0  501 -0.00000000000E+00  0.00000000000E+00  0.72008416999E+02  0.72008417151E+02  0.46700000000E-02 0.  1.
          1   -1    0    0  501    0  0.00000000000E+00 -0.00000000000E+00 -0.28796642625E+02  0.28796643003E+02  0.46700000000E-02 0. -1.
         23    2    1    2    0    0  0.00000000000E+00  0.00000000000E+00  0.43211774374E+02  0.10080506015E+03  0.91073611480E+02 0.  0.
        -13    1    3    3    0    0 -0.39259865656E+01  0.44426293324E+02  0.11432437124E+02  0.46041510619E+02  0.10570000000E+00 0. -1.
         13    1    3    3    0    0  0.39259865656E+01 -0.44426293324E+02  0.31779337251E+02  0.54763549534E+02  0.10570000000E+00 0.  1.
<mgrwt>
<rscale>  0 0.91073611E+02</rscale>
<asrwt>0</asrwt>
<pdfrwt beam="2">  1        1 0.44302528E-02 0.91073611E+02</pdfrwt>
<pdfrwt beam="1">  1       -1 0.11078218E-01 0.91073611E+02</pdfrwt>
<totfact> 0.86392206E+04</totfact>
</mgrwt>
</event>
<event>
 5   1  0.1388354E+00  0.9120431E+02  0.7818608E-02  0.1299961E+00
          1   -1    0    0  501    0  0.00000000000E+00  0.00000000000E+00  0.53328705384E+01  0.53328725832E+01  0.46700000000E-02 0. -1.
         -1   -1    0    0    0  501 -0.00000000000E+00 -0.00000000000E+00 -0.38995059430E+03  0.38995059433E+03  0.46700000000E-02 0.  1.
         23    2    1    2    0    0  0.00000000000E+00  0.00000000000E+00 -0.38461772376E+03  0.39528346691E+03  0.91204307912E+02 0.  0.
        -13    1    3    3    0    0  0.14014025025E+01 -0.44025715458E+02 -0.14115287342E+03  0.14786606236E+03  0.10570000000E+00 0.  1.
         13    1    3    3    0    0 -0.14014025025E+01  0.44025715458E+02 -0.24346485034E+03  0.24741740455E+03  0.10570000000E+00 0. -1.
<mgrwt>
<rscale>  0 0.91204308E+02</rscale>
<asrwt>0</asrwt>
<pdfrwt beam="1">  1        1 0.82044209E-03 0.91204308E+02</pdfrwt>
<pdfrwt beam="2">  1       -1 0.59992377E-01 0.91204308E+02</pdfrwt>
<totfact> 0.53928927E+04</totfact>
</mgrwt>
</event>
<event>
 5   1  0.1388354E+00  0.9083634E+02  0.7818608E-02  0.1300839E+00
          1   -1    0    0  501    0  0.00000000000E+00  0.00000000000E+00  0.83819167699E+02  0.83819167829E+02  0.46700000000E-02 0. -1.
         -1   -1    0    0    0  501 -0.00000000000E+00 -0.00000000000E+00 -0.24610243473E+02  0.24610243917E+02  0.46700000000E-02 0.  1.
         23    2    1    2    0    0  0.00000000000E+00  0.00000000000E+00  0.59208924226E+02  0.10842941175E+03  0.90836339774E+02 0.  0.
        -13    1    3    3    0    0  0.16768633869E+02  0.58569936043E+01  0.79501199528E+02  0.81461299737E+02  0.10570000000E+00 0. -1.
         13    1    3    3    0    0 -0.16768633869E+02 -0.58569936043E+01 -0.20292275302E+02  0.26968112009E+02  0.10570000000E+00 0.  1.
<mgrwt>
<rscale>  0 0.90836340E+02</rscale>
<asrwt>0</asrwt>
<pdfrwt beam="1">  1        1 0.12895256E-01 0.90836340E+02</pdfrwt>
<pdfrwt beam="2">  1       -1 0.37861914E-02 0.90836340E+02</pdfrwt>
<totfact> 0.10253771E+05</totfact>
</mgrwt>
</event>
<event>
 5   1  0.1388354E+00  0.9192137E+02  0.7818608E-02  0.1298264E+00
         -1   -1    0    0    0  501 -0.00000000000E+00  0.00000000000E+00  0.32530013128E+02  0.32530013463E+02  0.46700000000E-02 0.  1.
          1   -1    0    0  501    0  0.00000000000E+00 -0.00000000000E+00 -0.64936472790E+02  0.64936472958E+02  0.46700000000E-02 0. -1.
         23    2    1    2    0    0  0.00000000000E+00  0.00000000000E+00 -0.32406459662E+02  0.97466486421E+02  0.91921365022E+02 0.  0.
        -13    1    3    3    0    0 -0.16656575280E+02 -0.42652018377E+02 -0.11996934933E+02  0.47334699660E+02  0.10570000000E+00 0.  1.
         13    1    3    3    0    0  0.16656575280E+02  0.42652018377E+02 -0.20409524729E+02  0.50131786761E+02  0.10570000000E+00 0. -1.
<mgrwt>
<rscale>  0 0.91921365E+02</rscale>
<asrwt>0</asrwt>
<pdfrwt beam="2">  1        1 0.99902266E-02 0.91921365E+02</pdfrwt>
<pdfrwt beam="1">  1       -1 0.50046175E-02 0.91921365E+02</pdfrwt>
<totfact> 0.95363816E+04</totfact>
</mgrwt>
</event>
<event>
 5   1  0.1388354E+00  0.9267159E+02  0.7818608E-02  0.1296508E+00
         -1   -1    0    0    0  501 -0.00000000000E+00  0.00000000000E+00  0.46934349630E+01  0.46934372863E+01  0.46700000000E-02 0.  1.
          1   -1    0    0  501    0  0.00000000000E+00 -0.00000000000E+00 -0.45744864238E+03  0.45744864240E+03  0.46700000000E-02 0. -1.
         23    2    1    2    0    0  0.00000000000E+00  0.00000000000E+00 -0.45275520741E+03  0.46214207969E+03  0.92671592072E+02 0.  0.
        -13    1    3    3    0    0 -0.81052381158E+01  0.45560565139E+02 -0.23810985806E+03  0.24256499265E+03  0.10570000000E+00 0. -1.
         13    1    3    3    0    0  0.81052381158E+01 -0.45560565139E+02 -0.21464534935E+03  0.21957708704E+03  0.10570000000E+00 0.  1.
<mgrwt>
<rscale>  0 0.92671592E+02</rscale>
<asrwt>0</asrwt>
<pdfrwt beam="2">  1        1 0.70376680E-01 0.92671592E+02</pdfrwt>
<pdfrwt beam="1">  1       -1 0.72206746E-03 0.92671592E+02</pdfrwt>
<totfact> 0.13185795E+05</totfact>
</mgrwt>
</event>
<event>
 5   1  0.1388354E+00  0.9141966E+02  0.7818608E-02  0.1299450E+00
         -1   -1    0    0    0  501 -0.00000000000E+00  0.00000000000E+00  0.90365591589E+02  0.90365591710E+02  0.46700000000E-02 0.  1.
          1   -1    0    0  501    0  0.00000000000E+00 -0.00000000000E+00 -0.23121505251E+02  0.23121505723E+02  0.46700000000E-02 0. -1.
         23    2    1    2    0    0  0.00000000000E+00  0.00000000000E+00  0.67244086338E+02  0.11348709743E+03  0.91419659463E+02 0.  0.
        -13    1    3    3    0    0  0.29881798806E+02 -0.11744207073E+02 -0.67665087518E+01  0.32812270766E+02  0.10570000000E+00 0. -1.
         13    1    3    3    0    0 -0.29881798806E+02  0.11744207073E+02  0.74010595089E+02  0.80674826666E+02  0.10570000000E+00 0.  1.
<mgrwt>
<rscale>  0 0.91419659E+02</rscale>
<asrwt>0</asrwt>
<pdfrwt beam="2">  1        1 0.35571547E-02 0.91419659E+02</pdfrwt>
<pdfrwt beam="1">  1       -1 0.13902399E-01 0.91419659E+02</pdfrwt>
<totfact> 0.82317524E+04</totfact>
</mgrwt>
</event>
<event>
 5   1  0.1388354E+00  0.8888725E+02  0.7818608E-02  0.1305569E+00
          1   -1    0    0  501    0  0.00000000000E+00  0.00000000000E+00  0.74518753639E+02  0.74518753785E+02  0.46700000000E-02 0. -1.
         -1   -1    0    0    0  501 -0.00000000000E+00 -0.00000000000E+00 -0.26506560592E+02  0.26506561003E+02  0.46700000000E-02 0.  1.
         23    2    1    2    0    0  0.00000000000E+00  0.00000000000E+00  0.48012193047E+02  0.10102531479E+03  0.88887251881E+02 0.  0.
        -13    1    3    3    0    0  0.38848108860E+02 -0.19773663369E+02  0.14159863701E+02  0.45833243803E+02  0.10570000000E+00 0.  1.
         13    1    3    3    0    0 -0.38848108860E+02  0.19773663369E+02  0.33852329345E+02  0.55192070985E+02  0.10570000000E+00 0. -1.
<mgrwt>
<rscale>  0 0.88887252E+02</rscale>
<asrwt>0</asrwt>
<pdfrwt beam="1">  1        1 0.11464424E-01 0.88887252E+02</pdfrwt>
<pdfrwt beam="2">  1       -1 0.40779324E-02 0.88887252E+02</pdfrwt>
<totfact> 0.10683098E+05</totfact>
</mgrwt>
</event>
<event>
 5   1  0.1388354E+00  0.9176282E+02  0.7818608E-02  0.1298638E+00
         -1   -1    0    0    0  501 -0.00000000000E+00  0.00000000000E+00  0.12068325666E+02  0.12068326570E+02  0.46700000000E-02 0.  1.
          1   -1    0    0  501    0  0.00000000000E+00 -0.00000000000E+00 -0.17443212507E+03  0.17443212513E+03  0.46700000000E-02 0. -1.
         23    2    1    2    0    0  0.00000000000E+00  0.00000000000E+00 -0.16236379940E+03  0.18650045170E+03  0.91762819967E+02 0.  0.
        -13    1    3    3    0    0 -0.36474366042E+02  0.27504001521E+02 -0.72501038061E+02  0.85692830332E+02  0.10570000000E+00 0.  1.
         13    1    3    3    0    0  0.36474366042E+02 -0.27504001521E+02 -0.89862761340E+02  0.10080762137E+03  0.10570000000E+00 0. -1.
<mgrwt>
<rscale>  0 0.91762820E+02</rscale>
<asrwt>0</asrwt>
<pdfrwt beam="2">  1        1 0.26835710E-01 0.91762820E+02</pdfrwt>
<pdfrwt beam="1">  1       -1 0.18566657E-02 0.91762820E+02</pdfrwt>
<totfact> 0.11336239E+05</totfact>
</mgrwt>
</event>
<event>
 5   1  0.1388354E+00  0.9450437E+02  0.7818608E-02  0.1292296E+00
         -1   -1    0    0    0  501 -0.00000000000E+00  0.00000000000E+00  0.24078686682E+02  0.24078687135E+02  0.46700000000E-02 0.  1.
          1   -1    0    0  501    0  0.00000000000E+00 -0.00000000000E+00 -0.92728026460E+02  0.92728026578E+02  0.46700000000E-02 0. -1.
         23    2    1    2    0    0  0.00000000000E+00  0.00000000000E+00 -0.68649339778E+02  0.11680671371E+03  0.94504373002E+02 0.  0.
        -13    1    3    3    0    0  0.14095676768E+02  0.41935138607E+02 -0.13808903799E+02  0.46345883853E+02  0.10570000000E+00 0.  1.
         13    1    3    3    0    0 -0.14095676768E+02 -0.41935138607E+02 -0.54840435979E+02  0.70460829859E+02  0.10570000000E+00 0. -1.
<mgrwt>
<rscale>  0 0.94504373E+02</rscale>
<asrwt>0</asrwt>
<pdfrwt beam="2">  1        1 0.14265850E-01 0.94504373E+02</pdfrwt>
<pdfrwt beam="1">  1       -1 0.37044134E-02 0.94504373E+02</pdfrwt>
<totfact> 0.93506946E+04</totfact>
</mgrwt>
</event>
<event>
 5   1  0.1388354E+00  0.9143362E+02  0.7818608E-02  0.1299417E+00
          1   -1    0    0  501    0  0.00000000000E+00  0.00000000000E+00  0.24500695798E+02  0.24500696243E+02  0.46700000000E-02 0. -1.
         -1   -1    0    0    0  501 -0.00000000000E+00 -0.00000000000E+00 -0.85304785926E+02  0.85304786054E+02  0.46700000000E-02 0.  1.
         23    2    1    2    0    0  0.00000000000E+00  0.00000000000E+00 -0.60804090128E+02  0.10980548230E+03  0.91433618358E+02 0.  0.
        -13    1    3    3    0    0  0.29759057767E+01  0.38312007775E+02 -0.60144179334E+02  0.71372259563E+02  0.10570000000E+00 0.  1.
         13    1    3    3    0    0 -0.29759057767E+01 -0.38312007775E+02 -0.65991079429E+00  0.38433222733E+02  0.10570000000E+00 0. -1.
<mgrwt>
<rscale>  0 0.91433618E+02</rscale>
<asrwt>0</asrwt>
<pdfrwt beam="1">  1        1 0.37693379E-02 0.91433618E+02</pdfrwt>
<pdfrwt beam="2">  1       -1 0.13123813E-01 0.91433618E+02</pdfrwt>
<totfact> 0.83122941E+04</totfact>
</mgrwt>
</event>
<event>
 5   1  0.1388354E+00  0.9162216E+02  0.7818608E-02  0.1298970E+00
         -1   -1    0    0    0  501 -0.00000000000E+00  0.00000000000E+00  0.11683911884E+02  0.11683912817E+02  0.46700000000E-02 0.  1.
          1   -1    0    0  501    0  0.00000000000E+00 -0.00000000000E+00 -0.17961921250E+03  0.17961921256E+03  0.46700000000E-02 0. -1.
         23    2    1    2    0    0  0.00000000000E+00  0.00000000000E+00 -0.16793530061E+03  0.19130312538E+03  0.91622162091E+02 0.  0.
        -13    1    3    3    0    0 -0.59267205288E+00  0.35818702997E+02 -0.14358652493E+03  0.14798794565E+03  0.10570000000E+00 0. -1.
         13    1    3    3    0    0  0.59267205288E+00 -0.35818702997E+02 -0.24348775681E+02  0.43315179720E+02  0.10570000000E+00 0.  1.
<mgrwt>
<rscale>  0 0.91622162E+02</rscale>
<asrwt>0</asrwt>
<pdfrwt beam="2">  1        1 0.27633723E-01 0.91622162E+02</pdfrwt>
<pdfrwt beam="1">  1       -1 0.17975251E-02 0.91622162E+02</pdfrwt>
<totfact> 0.11446889E+05</totfact>
</mgrwt>
</event>
<event>
 5   1  0.1388354E+00  0.9104069E+02  0.7818608E-02  0.1300351E+00
          1   -1    0    0  501    0  0.00000000000E+00  0.00000000000E+00  0.20801038139E+03  0.20801038144E+03  0.46700000000E-02 0. -1.
         -1   -1    0    0    0  501 -0.00000000000E+00 -0.00000000000E+00 -0.99615292579E+01  0.99615303526E+01  0.46700000000E-02 0.  1.
         23    2    1    2    0    0  0.00000000000E+00  0.00000000000E+00  0.19804885213E+03  0.21797191179E+03  0.91040685963E+02 0.  0.
        -13    1    3    3    0    0 -0.41566361576E+02  0.56609370844E+01  0.56714879654E+02  0.70543584896E+02  0.10570000000E+00 0.  1.
         13    1    3    3    0    0  0.41566361576E+02 -0.56609370844E+01  0.14133397248E+03  0.14742832690E+03  0.10570000000E+00 0. -1.
<mgrwt>
<rscale>  0 0.91040686E+02</rscale>
<asrwt>0</asrwt>
<pdfrwt beam="1">  1        1 0.32001597E-01 0.91040686E+02</pdfrwt>
<pdfrwt beam="2">  1       -1 0.15325431E-02 0.91040686E+02</pdfrwt>
<totfact> 0.11979200E+05</totfact>
</mgrwt>
</event>
<event>
 5   1  0.1388354E+00  0.9293317E+02  0.7818608E-02  0.1295900E+00
         -1   -1    0    0    0  501 -0.00000000000E+00  0.00000000000E+00  0.49180223572E+02  0.49180223794E+02  0.46700000000E-02 0.  1.
          1   -1    0    0  501    0  0.00000000000E+00 -0.00000000000E+00 -0.43902673994E+02  0.43902674242E+02  0.46700000000E-02 0. -1.
         23    2    1    2    0    0  0.00000000000E+00  0.00000000000E+00  0.52775495779E+01  0.93082898036E+02  0.92933166186E+02 0.  0.
        -13    1    3    3    0    0  0.25614040372E+02 -0.10757717841E+02 -0.34668043207E+02  0.44426252932E+02  0.10570000000E+00 0. -1.
         13    1    3    3    0    0 -0.25614040372E+02  0.10757717841E+02  0.39945592785E+02  0.48656645104E+02  0.10570000000E+00 0.  1.
<mgrwt>
<rscale>  0 0.92933166E+02</rscale>
<asrwt>0</asrwt>
<pdfrwt beam="2">  1        1 0.67542576E-02 0.92933166E+02</pdfrwt>
<pdfrwt beam="1">  1       -1 0.75661883E-02 0.92933166E+02</pdfrwt>
<totfact> 0.87134381E+04</totfact>
</mgrwt>
</event>
<event>
 5   1  0.1388354E+00  0.9100858E+02  0.7818608E-02  0.1300427E+00
          1   -1    0    0  501    0  0.00000000000E+00  0.00000000000E+00  0.57872437963E+01  0.57872456806E+01  0.46700000000E-02 0. -1.
         -1   -1    0    0    0  501 -0.00000000000E+00 -0.00000000000E+00 -0.35779382704E+03  0.35779382707E+03  0.46700000000E-02 0.  1.
         23    2    1    2    0    0  0.00000000000E+00  0.00000000000E+00 -0.35200658324E+03  0.36358107275E+03  0.91008581001E+02 0.  0.
        -13    1    3    3    0    0 -0.12177594833E+02  0.41706742134E+02 -0.12197692739E+03  0.12948408452E+03  0.10570000000E+00 0.  1.
         13    1    3    3    0    0  0.12177594833E+02 -0.41706742134E+02 -0.23002965585E+03  0.23409698823E+03  0.10570000000E+00 0. -1.
<mgrwt>
<rscale>  0 0.91008581E+02</rscale>
<asrwt>0</asrwt>
<pdfrwt beam="1">  1        1 0.89034562E-03 0.91008581E+02</pdfrwt>
<pdfrwt beam="2">  1       -1 0.55045187E-01 0.91008581E+02</pdfrwt>
<totfact> 0.56496797E+04</totfact>
</mgrwt>
</event>
<event>
 5   1  0.1388354E+00  0.9112658E+02  0.7818608E-02  0.1300146E+00
         -1   -1    0    0    0  501 -0.00000000000E+00  0.00000000000E+00  0.12155410518E+03  0.12155410527E+03  0.46700000000E-02 0.  1.
          1   -1    0    0  501    0  0.00000000000E+00 -0.00000000000E+00 -0.17078922991E+02  0.17078923629E+02  0.46700000000E-02 0. -1.
         23    2    1    2    0    0  0.00000000000E+00  0.00000000000E+00  0.10447518219E+03  0.13863302890E+03  0.91126576850E+02 0.  0.
        -13    1    3    3    0    0  0.11726897514E+02 -0.37559826744E+02  0.87186387629E+02  0.95654263212E+02  0.10570000000E+00 0. -1.
         13    1    3    3    0    0 -0.11726897514E+02  0.37559826744E+02  0.17288794564E+02  0.42978765691E+02  0.10570000000E+00 0.  1.
<mgrwt>
<rscale>  0 0.91126577E+02</rscale>
<asrwt>0</asrwt>
<pdfrwt beam="2">  1        1 0.26275267E-02 0.91126577E+02</pdfrwt>
<pdfrwt beam="1">  1       -1 0.18700631E-01 0.91126577E+02</pdfrwt>
<totfact> 0.78435457E+04</totfact>
</mgrwt>
</event>
<event>
 5   1  0.1388354E+00  0.1001450E+03  0.7818608E-02  0.1279991E+00
          1   -1    0    0  501    0  0.00000000000E+00  0.00000000000E+00  0.50708848577E+02  0.50708848792E+02  0.46700000000E-02 0. -1.
         -1   -1    0    0    0  501 -0.00000000000E+00 -0.00000000000E+00 -0.49444170351E+02  0.49444170571E+02  0.46700000000E-02 0.  1.
         23    2    1    2    0    0  0.00000000000E+00  0.00000000000E+00  0.12646782259E+01  0.10015301936E+03  0.10014503421E+03 0.  0.
        -13    1    3    3    0    0  0.32000761847E+02  0.38159089758E+02  0.58366859055E+01  0.50142227361E+02  0.10570000000E+00 0.  1.
         13    1    3    3    0    0 -0.32000761847E+02 -0.38159089758E+02 -0.45720076796E+01  0.50010792002E+02  0.10570000000E+00 0. -1.
<mgrwt>
<rscale>  0 0.10014503E+03</rscale>
<asrwt>0</asrwt>
<pdfrwt beam="1">  1        1 0.78013613E-02 0.10014503E+03</pdfrwt>
<pdfrwt beam="2">  1       -1 0.76067955E-02 0.10014503E+03</pdfrwt>
<totfact> 0.72142362E+04</totfact>
</mgrwt>
</event>
<event>
 5   1  0.1388354E+00  0.9842359E+02  0.7818608E-02  0.1283646E+00
         -1   -1    0    0    0  501 -0.00000000000E+00  0.00000000000E+00  0.52895812015E+02  0.52895812221E+02  0.46700000000E-02 0.  1.
          1   -1    0    0  501    0  0.00000000000E+00 -0.00000000000E+00 -0.45784357061E+02  0.45784357299E+02  0.46700000000E-02 0. -1.
         23    2    1    2    0    0  0.00000000000E+00  0.00000000000E+00  0.71114549539E+01  0.98680169519E+02  0.98423589981E+02 0.  0.
        -13    1    3    3    0    0 -0.93688992814E+01 -0.37165766693E+02 -0.27390885419E+02  0.47109895608E+02  0.10570000000E+00 0. -1.
         13    1    3    3    0    0  0.93688992814E+01  0.37165766693E+02  0.34502340373E+02  0.51570273912E+02  0.10570000000E+00 0.  1.
<mgrwt>
<rscale>  0 0.98423590E+02</rscale>
<asrwt>0</asrwt>
<pdfrwt beam="2">  1        1 0.70437473E-02 0.98423590E+02</pdfrwt>
<pdfrwt beam="1">  1       -1 0.81378172E-02 0.98423590E+02</pdfrwt>
<totfact> 0.74544370E+04</totfact>
</mgrwt>
</event>
<event>
 5   1  0.1388354E+00  0.6736176E+02  0.7818608E-02  0.1369301E+00
         -1   -1    0    0    0  501 -0.00000000000E+00  0.00000000000E+00  0.70381134603E+01  0.70381150096E+01  0.46700000000E-02 0.  1.
          1   -1    0    0  501    0  0.00000000000E+00 -0.00000000000E+00 -0.16117976865E+03  0.16117976871E+03  0.46700000000E-02 0. -1.
         23    2    1    2    0    0  0.00000000000E+00  0.00000000000E+00 -0.15414165519E+03  0.16821788372E+03  0.67361758743E+02 0.  0.
        -13    1    3    3    0    0  0.27832588683E+02  0.17180828670E+02 -0.57006294443E+02  0.65723379746E+02  0.10570000000E+00 0. -1.
         13    1    3    3    0    0 -0.27832588683E+02 -0.17180828670E+02 -0.97135360743E+02  0.10249450398E+03  0.10570000000E+00 0.  1.
<mgrwt>
<rscale>  0 0.67361759E+02</rscale>
<asrwt>0</asrwt>
<pdfrwt beam="2">  1        1 0.24796885E-01 0.67361759E+02</pdfrwt>
<pdfrwt beam="1">  1       -1 0.10827869E-02 0.67361759E+02</pdfrwt>
<totfact> 0.25312613E+05</totfact>
</mgrwt>
</event>
<event>
 5   1  0.1388354E+00  0.8897990E+02  0.7818608E-02  0.1305341E+00
          1   -1    0    0  501    0  0.00000000000E+00  0.00000000000E+00  0.67668944391E+01  0.67668960505E+01  0.46700000000E-02 0. -1.
         -1   -1    0    0    0  501 -0.00000000000E+00 -0.00000000000E+00 -0.29250573308E+03  0.29250573311E+03  0.46700000000E-02 0.  1.
         23    2    1    2    0    0  0.00000000000E+00  0.00000000000E+00 -0.28573883864E+03  0.29927262916E+03  0.88979900320E+02 0.  0.
        -13    1    3    3    0    0  0.32637433721E+02  0.26267663362E+02 -0.19322488991E+03  0.19771459600E+03  0.10570000000E+00 0.  1.
         13    1    3    3    0    0 -0.32637433721E+02 -0.26267663362E+02 -0.92513948723E+02  0.10155803316E+03  0.10570000000E+00 0. -1.
<mgrwt>
<rscale>  0 0.88979900E+02</rscale>
<asrwt>0</asrwt>
<pdfrwt beam="1">  1        1 0.10410610E-02 0.88979900E+02</pdfrwt>
<pdfrwt beam="2">  1       -1 0.45000872E-01 0.88979900E+02</pdfrwt>
<totfact> 0.65209907E+04</totfact>
</mgrwt>
</event>
<event>
 5   1  0.1388354E+00  0.6892649E+02  0.7818608E-02  0.1363782E+00
          1   -1    0    0  501    0  0.00000000000E+00  0.00000000000E+00  0.16333033573E+03  0.16333033580E+03  0.46700000000E-02 0. -1.
         -1   -1    0    0    0  501 -0.00000000000E+00 -0.00000000000E+00 -0.72718586972E+01  0.72718601967E+01  0.46700000000E-02 0.  1.
         23    2    1    2    0    0  0.00000000000E+00  0.00000000000E+00  0.15605847703E+03  0.17060219599E+03  0.68926490002E+02 0.  0.
        -13    1    3    3    0    0  0.21952391371E+02 -0.97642766194E+01  0.16875155427E+02  0.29360358104E+02  0.10570000000E+00 0.  1.
         13    1    3    3    0    0 -0.21952391371E+02  0.97642766194E+01  0.13918332161E+03  0.14124183789E+03  0.10570000000E+00 0. -1.
<mgrwt>
<rscale>  0 0.68926490E+02</rscale>
<asrwt>0</asrwt>
<pdfrwt beam="1">  1        1 0.25127745E-01 0.68926490E+02</pdfrwt>
<pdfrwt beam="2">  1       -1 0.11187476E-02 0.68926490E+02</pdfrwt>
<totfact> 0.23898671E+05</totfact>
</mgrwt>
</event>
<event>
 5   1  0.1388354E+00  0.9226439E+02  0.7818608E-02  0.1297459E+00
          1   -1    0    0  501    0  0.00000000000E+00  0.00000000000E+00  0.25143161370E+03  0.25143161374E+03  0.46700000000E-02 0. -1.
         -1   -1    0    0    0  501 -0.00000000000E+00 -0.00000000000E+00 -0.84642464654E+01  0.84642477537E+01  0.46700000000E-02 0.  1.
         23    2    1    2    0    0  0.00000000000E+00  0.00000000000E+00  0.24296736724E+03  0.25989586150E+03  0.92264387943E+02 0.  0.
        -13    1    3    3    0    0 -0.44646814658E+01  0.39391758401E+02  0.55031805237E+02  0.67824440806E+02  0.10570000000E+00 0.  1.
         13    1    3    3    0    0  0.44646814658E+01 -0.39391758401E+02  0.18793556200E+03  0.19207142069E+03  0.10570000000E+00 0. -1.
<mgrwt>
<rscale>  0 0.92264388E+02</rscale>
<asrwt>0</asrwt>
<pdfrwt beam="1">  1        1 0.38681790E-01 0.92264388E+02</pdfrwt>
<pdfrwt beam="2">  1       -1 0.13021918E-02 0.92264388E+02</pdfrwt>
<totfact> 0.11994251E+05</totfact>
</mgrwt>
</event>
<event>
 5   1  0.1388354E+00  0.9397758E+02  0.7818608E-02  0.1293496E+00
         -1   -1    0    0    0  501 -0.00000000000E+00  0.00000000000E+00  0.10066698102E+03  0.10066698113E+03  0.46700000000E-02 0.  1.
          1   -1    0    0  501    0  0.00000000000E+00 -0.00000000000E+00 -0.21933171069E+02  0.21933171566E+02  0.46700000000E-02 0. -1.
         23    2    1    2    0    0  0.00000000000E+00  0.00000000000E+00  0.78733809956E+02  0.12260015270E+03  0.93977575047E+02 0.  0.
        -13    1    3    3    0    0 -0.44806124495E+01  0.39121546477E+02  0.72814864868E+02  0.82780353979E+02  0.10570000000E+00 0.  1.
         13    1    3    3    0    0  0.44806124495E+01 -0.39121546477E+02  0.59189450878E+01  0.39819798720E+02  0.10570000000E+00 0. -1.
<mgrwt>
<rscale>  0 0.93977575E+02</rscale>
<asrwt>0</asrwt>
<pdfrwt beam="2">  1        1 0.33743340E-02 0.93977575E+02</pdfrwt>
<pdfrwt beam="1">  1       -1 0.15487228E-01 0.93977575E+02</pdfrwt>
<totfact> 0.75169172E+04</totfact>
</mgrwt>
</event>
<event>
 5   1  0.1388354E+00  0.9442183E+02  0.7818608E-02  0.1292484E+00
          1   -1    0    0  501    0  0.00000000000E+00  0.00000000000E+00  0.17923830742E+03  0.17923830748E+03  0.46700000000E-02 0. -1.
         -1   -1    0    0    0  501 -0.00000000000E+00 -0.00000000000E+00 -0.12435234286E+02  0.12435235163E+02  0.46700000000E-02 0.  1.
         23    2    1    2    0    0  0.00000000000E+00  0.00000000000E+00  0.16680307313E+03  0.19167354264E+03  0.94421828740E+02 0.  0.
        -13    1    3    3    0    0  0.33357282644E+02  0.33314021483E+02  0.78295472137E+02  0.91393240792E+02  0.10570000000E+00 0.  1.
         13    1    3    3    0    0 -0.33357282644E+02 -0.33314021483E+02  0.88507600996E+02  0.10028030185E+03  0.10570000000E+00 0. -1.
<mgrwt>
<rscale>  0 0.94421829E+02</rscale>
<asrwt>0</asrwt>
<pdfrwt beam="1">  1        1 0.27575124E-01 0.94421829E+02</pdfrwt>
<pdfrwt beam="2">  1       -1 0.19131131E-02 0.94421829E+02</pdfrwt>
<totfact> 0.10550606E+05</totfact>
</mgrwt>
</event>
<event>
 5   1  0.1388354E+00  0.8931380E+02  0.7818608E-02  0.1304522E+00
         -1   -1    0    0    0  501 -0.00000000000E+00  0.00000000000E+00  0.91185471206E+01  0.91185483164E+01  0.46700000000E-02 0.  1.
          1   -1    0    0  501    0  0.00000000000E+00 -0.00000000000E+00 -0.21870136217E+03  0.21870136222E+03  0.46700000000E-02 0. -1.
         23    2    1    2    0    0  0.00000000000E+00  0.00000000000E+00 -0.20958281505E+03  0.22781991054E+03  0.89313802252E+02 0.  0.
        -13    1    3    3    0    0  0.26087616114E+02 -0.34972531564E+02 -0.12906888508E+03  0.13624400885E+03  0.10570000000E+00 0. -1.
         13    1    3    3    0    0 -0.26087616114E+02  0.34972531564E+02 -0.80513929970E+02  0.91575901689E+02  0.10570000000E+00 0.  1.
<mgrwt>
<rscale>  0 0.89313802E+02</rscale>
<asrwt>0</asrwt>
<pdfrwt beam="2">  1        1 0.33646360E-01 0.89313802E+02</pdfrwt>
<pdfrwt beam="1">  1       -1 0.14028537E-02 0.89313802E+02</pdfrwt>
<totfact> 0.12731955E+05</totfact>
</mgrwt>
</event>
<event>
 5   1  0.1388354E+00  0.9400841E+02  0.7818608E-02  0.1293425E+00
          1   -1    0    0  501    0  0.00000000000E+00  0.00000000000E+00  0.13471013930E+02  0.13471014740E+02  0.46700000000E-02 0. -1.
         -1   -1    0    0    0  501 -0.00000000000E+00 -0.00000000000E+00 -0.16401106929E+03  0.16401106935E+03  0.46700000000E-02 0.  1.
         23    2    1    2    0    0  0.00000000000E+00  0.00000000000E+00 -0.15054005536E+03  0.17748208409E+03  0.94008414025E+02 0.  0.
        -13    1    3    3    0    0  0.13773006826E+02  0.37230911266E+02 -0.27749910930E+02  0.48434545521E+02  0.10570000000E+00 0. -1.
         13    1    3    3    0    0 -0.13773006826E+02 -0.37230911266E+02 -0.12279014443E+03  0.12904753857E+03  0.10570000000E+00 0.  1.
<mgrwt>
<rscale>  0 0.94008414E+02</rscale>
<asrwt>0</asrwt>
<pdfrwt beam="1">  1        1 0.20724639E-02 0.94008414E+02</pdfrwt>
<pdfrwt beam="2">  1       -1 0.25232471E-01 0.94008414E+02</pdfrwt>
<totfact> 0.67594230E+04</totfact>
</mgrwt>
</event>
<event>
 5   1  0.1388354E+00  0.9253878E+02  0.7818608E-02  0.1296818E+00
          1   -1    0    0  501    0  0.00000000000E+00  0.00000000000E+00  0.18599913148E+02  0.18599913734E+02  0.46700000000E-02 0. -1.
         -1   -1    0    0    0  501 -0.00000000000E+00 -0.00000000000E+00 -0.11510033412E+03  0.11510033422E+03  0.46700000000E-02 0.  1.
         23    2    1    2    0    0  0.00000000000E+00  0.00000000000E+00 -0.96500420975E+02  0.13370024795E+03  0.92538775949E+02 0.  0.
        -13    1    3    3    0    0  0.22051525187E+02  0.15852175124E+02 -0.10237313170E+03  0.10591426006E+03  0.10570000000E+00 0.  1.
         13    1    3    3    0    0 -0.22051525187E+02 -0.15852175124E+02  0.58727107200E+01  0.27785987889E+02  0.10570000000E+00 0. -1.
<mgrwt>
<rscale>  0 0.92538776E+02</rscale>
<asrwt>0</asrwt>
<pdfrwt beam="1">  1        1 0.28615252E-02 0.92538776E+02</pdfrwt>
<pdfrwt beam="2">  1       -1 0.17707743E-01 0.92538776E+02</pdfrwt>
<totfact> 0.76216060E+04</totfact>
</mgrwt>
</event>
<event>
 5   1  0.1388354E+00  0.5877547E+02  0.7818608E-02  0.1403044E+00
          1   -1    0    0  501    0  0.00000000000E+00  0.00000000000E+00  0.15938449933E+02  0.15938450617E+02  0.46700000000E-02 0.  1.
         -1   -1    0    0    0  501 -0.00000000000E+00 -0.00000000000E+00 -0.54185878463E+02  0.54185878664E+02  0.46700000000E-02 0. -1.
         23    2    1    2    0    0  0.00000000000E+00  0.00000000000E+00 -0.38247428530E+02  0.70124329281E+02  0.58775469100E+02 0.  0.
        -13    1    3    3    0    0  0.25959625310E+02  0.12217830756E+02 -0.11535612611E+02  0.30923438771E+02  0.10570000000E+00 0.  1.
         13    1    3    3    0    0 -0.25959625310E+02 -0.12217830756E+02 -0.26711815920E+02  0.39200890510E+02  0.10570000000E+00 0. -1.
<mgrwt>
<rscale>  0 0.58775469E+02</rscale>
<asrwt>0</asrwt>
<pdfrwt beam="1">  1        1 0.24520693E-02 0.58775469E+02</pdfrwt>
<pdfrwt beam="2">  1       -1 0.83362890E-02 0.58775469E+02</pdfrwt>
<totfact> 0.27142687E+05</totfact>
</mgrwt>
</event>
<event>
 5   1  0.1388354E+00  0.1010310E+03  0.7818608E-02  0.1278143E+00
         -1   -1    0    0    0  501 -0.00000000000E+00  0.00000000000E+00  0.19414651734E+02  0.19414652295E+02  0.46700000000E-02 0.  1.
          1   -1    0    0  501    0  0.00000000000E+00 -0.00000000000E+00 -0.13143751802E+03  0.13143751810E+03  0.46700000000E-02 0. -1.
         23    2    1    2    0    0  0.00000000000E+00  0.00000000000E+00 -0.11202286628E+03  0.15085217039E+03  0.10103095933E+03 0.  0.
        -13    1    3    3    0    0 -0.19360196302E+02 -0.36840896618E+02 -0.98761172128E+02  0.10717205399E+03  0.10570000000E+00 0. -1.
         13    1    3    3    0    0  0.19360196302E+02  0.36840896618E+02 -0.13261694154E+02  0.43680116401E+02  0.10570000000E+00 0.  1.
<mgrwt>
<rscale>  0 0.10103096E+03</rscale>
<asrwt>0</asrwt>
<pdfrwt beam="2">  1        1 0.20221156E-01 0.10103096E+03</pdfrwt>
<pdfrwt beam="1">  1       -1 0.29868696E-02 0.10103096E+03</pdfrwt>
<totfact> 0.82775504E+04</totfact>
</mgrwt>
</event>
<event>
 5   1  0.1388354E+00  0.9082489E+02  0.7818608E-02  0.1300866E+00
          1   -1    0    0  501    0  0.00000000000E+00  0.00000000000E+00  0.10242579682E+03  0.10242579693E+03  0.46700000000E-02 0. -1.
         -1   -1    0    0    0  501 -0.00000000000E+00 -0.00000000000E+00 -0.20134479324E+02  0.20134479866E+02  0.46700000000E-02 0.  1.
         23    2    1    2    0    0  0.00000000000E+00  0.00000000000E+00  0.82291317495E+02  0.12256027679E+03  0.90824889277E+02 0.  0.
        -13    1    3    3    0    0 -0.22784690261E+02 -0.38487473615E+02  0.30533127276E+02  0.54154508301E+02  0.10570000000E+00 0.  1.
         13    1    3    3    0    0  0.22784690261E+02  0.38487473615E+02  0.51758190219E+02  0.68405768491E+02  0.10570000000E+00 0. -1.
<mgrwt>
<rscale>  0 0.90824889E+02</rscale>
<asrwt>0</asrwt>
<pdfrwt beam="1">  1        1 0.15757815E-01 0.90824889E+02</pdfrwt>
<pdfrwt beam="2">  1       -1 0.30976123E-02 0.90824889E+02</pdfrwt>
<totfact> 0.10598030E+05</totfact>
</mgrwt>
</event>
<event>
 5   1  0.1388354E+00  0.9497926E+02  0.7818608E-02  0.1291223E+00
          1   -1    0    0  501    0  0.00000000000E+00  0.00000000000E+00  0.27290212641E+03  0.27290212645E+03  0.46700000000E-02 0. -1.
         -1   -1    0    0    0  501 -0.00000000000E+00 -0.00000000000E+00 -0.82640056296E+01  0.82640069491E+01  0.46700000000E-02 0.  1.
         23    2    1    2    0    0  0.00000000000E+00  0.00000000000E+00  0.26463812078E+03  0.28116613340E+03  0.94979258790E+02 0.  0.
        -13    1    3    3    0    0 -0.38209202835E+02 -0.26670119753E+02  0.10518509187E+03  0.11504413585E+03  0.10570000000E+00 0.  1.
         13    1    3    3    0    0  0.38209202835E+02  0.26670119753E+02  0.15945302891E+03  0.16612199755E+03  0.10570000000E+00 0. -1.
<mgrwt>
<rscale>  0 0.94979259E+02</rscale>
<asrwt>0</asrwt>
<pdfrwt beam="1">  1        1 0.41984935E-01 0.94979259E+02</pdfrwt>
<pdfrwt beam="2">  1       -1 0.12713858E-02 0.94979259E+02</pdfrwt>
<totfact> 0.11277777E+05</totfact>
</mgrwt>
</event>
<event>
 5   1  0.1388354E+00  0.8916595E+02  0.7818608E-02  0.1304884E+00
          1   -1    0    0  501    0  0.00000000000E+00  0.00000000000E+00  0.33523124217E+03  0.33523124220E+03  0.46700000000E-02 0. -1.
         -1   -1    0    0    0  501 -0.00000000000E+00 -0.00000000000E+00 -0.59291653253E+01  0.59291671645E+01  0.46700000000E-02 0.  1.
         23    2    1    2    0    0  0.00000000000E+00  0.00000000000E+00  0.32930207685E+03  0.34116040937E+03  0.89165952612E+02 0.  0.
        -13    1    3    3    0    0 -0.10621577289E+02  0.43099016298E+02  0.18055940510E+03  0.18593561534E+03  0.10570000000E+00 0. -1.
         13    1    3    3    0    0  0.10621577289E+02 -0.43099016298E+02  0.14874267175E+03  0.15522479403E+03  0.10570000000E+00 0.  1.
<mgrwt>
<rscale>  0 0.89165953E+02</rscale>
<asrwt>0</asrwt>
<pdfrwt beam="1">  1        1 0.51574039E-01 0.89165953E+02</pdfrwt>
<pdfrwt beam="2">  1       -1 0.91217939E-03 0.89165953E+02</pdfrwt>
<totfact> 0.13879279E+05</totfact>
</mgrwt>
</event>
<event>
 5   1  0.1388354E+00  0.8941984E+02  0.7818608E-02  0.1304263E+00
         -1   -1    0    0    0  501 -0.00000000000E+00  0.00000000000E+00  0.66842522002E+02  0.66842522165E+02  0.46700000000E-02 0.  1.
          1   -1    0    0  501    0  0.00000000000E+00 -0.00000000000E+00 -0.29905770176E+02  0.29905770541E+02  0.46700000000E-02 0. -1.
         23    2    1    2    0    0  0.00000000000E+00  0.00000000000E+00  0.36936751826E+02  0.96748292706E+02  0.89419844028E+02 0.  0.
        -13    1    3    3    0    0 -0.16473614757E+02  0.38689115984E+00  0.63437085039E+02  0.65542387802E+02  0.10570000000E+00 0.  1.
         13    1    3    3    0    0  0.16473614757E+02 -0.38689115984E+00 -0.26500333214E+02  0.31205904904E+02  0.10570000000E+00 0. -1.
<mgrwt>
<rscale>  0 0.89419844E+02</rscale>
<asrwt>0</asrwt>
<pdfrwt beam="2">  1        1 0.46008878E-02 0.89419844E+02</pdfrwt>
<pdfrwt beam="1">  1       -1 0.10283465E-01 0.89419844E+02</pdfrwt>
<totfact> 0.91605764E+04</totfact>
</mgrwt>
</event>
<event>
 5   1  0.1388354E+00  0.9091844E+02  0.7818608E-02  0.1300643E+00
          1   -1    0    0  501    0  0.00000000000E+00  0.00000000000E+00  0.12506269213E+03  0.12506269222E+03  0.46700000000E-02 0. -1.
         -1   -1    0    0    0  501 -0.00000000000E+00 -0.00000000000E+00 -0.16524036819E+02  0.16524037479E+02  0.46700000000E-02 0.  1.
         23    2    1    2    0    0  0.00000000000E+00  0.00000000000E+00  0.10853865531E+03  0.14158672970E+03  0.90918437785E+02 0.  0.
        -13    1    3    3    0    0 -0.26797329429E+02  0.20767822237E+02  0.10143065945E+03  0.10694666499E+03  0.10570000000E+00 0. -1.
         13    1    3    3    0    0  0.26797329429E+02 -0.20767822237E+02  0.71079958670E+01  0.34640064705E+02  0.10570000000E+00 0.  1.
<mgrwt>
<rscale>  0 0.90918438E+02</rscale>
<asrwt>0</asrwt>
<pdfrwt beam="1">  1        1 0.19240415E-01 0.90918438E+02</pdfrwt>
<pdfrwt beam="2">  1       -1 0.25421595E-02 0.90918438E+02</pdfrwt>
<totfact> 0.10935845E+05</totfact>
</mgrwt>
</event>
<event>
 5   1  0.1388354E+00  0.9552706E+02  0.7818608E-02  0.1289993E+00
         -1   -1    0    0    0  501 -0.00000000000E+00  0.00000000000E+00  0.22239056458E+03  0.22239056463E+03  0.46700000000E-02 0.  1.
          1   -1    0    0  501    0  0.00000000000E+00 -0.00000000000E+00 -0.10258324016E+02  0.10258325079E+02  0.46700000000E-02 0. -1.
         23    2    1    2    0    0  0.00000000000E+00  0.00000000000E+00  0.21213224056E+03  0.23264888971E+03  0.95527055831E+02 0.  0.
        -13    1    3    3    0    0 -0.40183406185E+02  0.18004665441E+02  0.15113589888E+03  0.15741964685E+03  0.10570000000E+00 0.  1.
         13    1    3    3    0    0  0.40183406185E+02 -0.18004665441E+02  0.60996341679E+02  0.75229242858E+02  0.10570000000E+00 0. -1.
<mgrwt>
<rscale>  0 0.95527056E+02</rscale>
<asrwt>0</asrwt>
<pdfrwt beam="2">  1        1 0.15782037E-02 0.95527056E+02</pdfrwt>
<pdfrwt beam="1">  1       -1 0.34213935E-01 0.95527056E+02</pdfrwt>
<totfact> 0.59551054E+04</totfact>
</mgrwt>
</event>
<event>
 5   1  0.1388354E+00  0.9154495E+02  0.7818608E-02  0.1299153E+00
         -1   -1    0    0    0  501 -0.00000000000E+00  0.00000000000E+00  0.44684857598E+02  0.44684857842E+02  0.46700000000E-02 0.  1.
          1   -1    0    0  501    0  0.00000000000E+00 -0.00000000000E+00 -0.46886565276E+02  0.46886565509E+02  0.46700000000E-02 0. -1.
         23    2    1    2    0    0  0.00000000000E+00  0.00000000000E+00 -0.22017076778E+01  0.91571423351E+02  0.91544951023E+02 0.  0.
        -13    1    3    3    0    0 -0.16664689000E+02 -0.13209526117E+02 -0.41645338138E+02  0.46760547482E+02  0.10570000000E+00 0. -1.
         13    1    3    3    0    0  0.16664689000E+02  0.13209526117E+02  0.39443630460E+02  0.44810875869E+02  0.10570000000E+00 0.  1.
<mgrwt>
<rscale>  0 0.91544951E+02</rscale>
<asrwt>0</asrwt>
<pdfrwt beam="2">  1        1 0.72133178E-02 0.91544951E+02</pdfrwt>
<pdfrwt beam="1">  1       -1 0.68745935E-02 0.91544951E+02</pdfrwt>
<totfact> 0.91818913E+04</totfact>
</mgrwt>
</event>
<event>
 5   1  0.1388354E+00  0.9042003E+02  0.7818608E-02  0.1301838E+00
          1   -1    0    0  501    0  0.00000000000E+00  0.00000000000E+00  0.34077277776E+02  0.34077278096E+02  0.46700000000E-02 0. -1.
         -1   -1    0    0    0  501 -0.00000000000E+00 -0.00000000000E+00 -0.59979712350E+02  0.59979712531E+02  0.46700000000E-02 0.  1.
         23    2    1    2    0    0  0.00000000000E+00  0.00000000000E+00 -0.25902434573E+02  0.94056990628E+02  0.90420027478E+02 0.  0.
        -13    1    3    3    0    0  0.20051593394E+02  0.36387005853E+01 -0.54930725239E+02  0.58589267681E+02  0.10570000000E+00 0.  1.
         13    1    3    3    0    0 -0.20051593394E+02 -0.36387005853E+01  0.29028290666E+02  0.35467722947E+02  0.10570000000E+00 0. -1.
<mgrwt>
<rscale>  0 0.90420027E+02</rscale>
<asrwt>0</asrwt>
<pdfrwt beam="1">  1        1 0.52426582E-02 0.90420027E+02</pdfrwt>
<pdfrwt beam="2">  1       -1 0.92276481E-02 0.90420027E+02</pdfrwt>
<totfact> 0.90577910E+04</totfact>
</mgrwt>
</event>
<event>
 5   1  0.1388354E+00  0.8895676E+02  0.7818608E-02  0.1305398E+00
         -1   -1    0    0    0  501 -0.00000000000E+00  0.00000000000E+00  0.45457517247E+02  0.45457517487E+02  0.46700000000E-02 0.  1.
          1   -1    0    0  501    0  0.00000000000E+00 -0.00000000000E+00 -0.43520329587E+02  0.43520329837E+02  0.46700000000E-02 0. -1.
         23    2    1    2    0    0  0.00000000000E+00  0.00000000000E+00  0.19371876603E+01  0.88977847324E+02  0.88956757013E+02 0.  0.
        -13    1    3    3    0    0  0.90543122448E+01  0.12286400484E+02  0.42756229314E+02  0.45398706200E+02  0.10570000000E+00 0.  1.
         13    1    3    3    0    0 -0.90543122448E+01 -0.12286400484E+02 -0.40819041653E+02  0.43579141123E+02  0.10570000000E+00 0. -1.
<mgrwt>
<rscale>  0 0.88956757E+02</rscale>
<asrwt>0</asrwt>
<pdfrwt beam="2">  1        1 0.66954354E-02 0.88956757E+02</pdfrwt>
<pdfrwt beam="1">  1       -1 0.69934642E-02 0.88956757E+02</pdfrwt>
<totfact> 0.98402184E+04</totfact>
</mgrwt>
</event>
<event>
 5   1  0.1388354E+00  0.8752442E+02  0.7818608E-02  0.1308960E+00
          1   -1    0    0  501    0  0.00000000000E+00  0.00000000000E+00  0.48240630835E+02  0.48240631061E+02  0.46700000000E-02 0. -1.
         -1   -1    0    0    0  501 -0.00000000000E+00 -0.00000000000E+00 -0.39699542147E+02  0.39699542421E+02  0.46700000000E-02 0.  1.
         23    2    1    2    0    0  0.00000000000E+00  0.00000000000E+00  0.85410886881E+01  0.87940173482E+02  0.87524418970E+02 0.  0.
        -13    1    3    3    0    0  0.21545029284E+02  0.18890827410E+02  0.37504364942E+02  0.47197883525E+02  0.10570000000E+00 0. -1.
         13    1    3    3    0    0 -0.21545029284E+02 -0.18890827410E+02 -0.28963276254E+02  0.40742289957E+02  0.10570000000E+00 0.  1.
<mgrwt>
<rscale>  0 0.87524419E+02</rscale>
<asrwt>0</asrwt>
<pdfrwt beam="1">  1        1 0.74216355E-02 0.87524419E+02</pdfrwt>
<pdfrwt beam="2">  1       -1 0.61076219E-02 0.87524419E+02</pdfrwt>
<totfact> 0.10452129E+05</totfact>
</mgrwt>
</event>
<event>
 5   1  0.1388354E+00  0.9547582E+02  0.7818608E-02  0.1290108E+00
         -1   -1    0    0    0  501 -0.00000000000E+00  0.00000000000E+00  0.11365650222E+03  0.11365650232E+03  0.46700000000E-02 0.  1.
          1   -1    0    0  501    0  0.00000000000E+00 -0.00000000000E+00 -0.20050838268E+02  0.20050838812E+02  0.46700000000E-02 0. -1.
         23    2    1    2    0    0  0.00000000000E+00  0.00000000000E+00  0.93605663951E+02  0.13370734113E+03  0.95475822843E+02 0.  0.
        -13    1    3    3    0    0 -0.23067026699E+02  0.37983117659E+02  0.71223885060E+02  0.83950330097E+02  0.10570000000E+00 0. -1.
         13    1    3    3    0    0  0.23067026699E+02 -0.37983117659E+02  0.22381778891E+02  0.49757011030E+02  0.10570000000E+00 0.  1.
<mgrwt>
<rscale>  0 0.95475823E+02</rscale>
<asrwt>0</asrwt>
<pdfrwt beam="2">  1        1 0.30847444E-02 0.95475823E+02</pdfrwt>
<pdfrwt beam="1">  1       -1 0.17485616E-01 0.95475823E+02</pdfrwt>
<totfact> 0.70474527E+04</totfact>
</mgrwt>
</event>
<event>
 5   1  0.1388354E+00  0.9368025E+02  0.7818608E-02  0.1294176E+00
         -1   -1    0    0    0  501 -0.00000000000E+00  0.00000000000E+00  0.18498254287E+02  0.18498254876E+02  0.46700000000E-02 0.  1.
          1   -1    0    0  501    0  0.00000000000E+00 -0.00000000000E+00 -0.11860564713E+03  0.11860564723E+03  0.46700000000E-02 0. -1.
         23    2    1    2    0    0  0.00000000000E+00  0.00000000000E+00 -0.10010739285E+03  0.13710390210E+03  0.93680253357E+02 0.  0.
        -13    1    3    3    0    0 -0.22143871615E+02 -0.11058141727E+02  0.81453859722E+01  0.26057475581E+02  0.10570000000E+00 0.  1.
         13    1    3    3    0    0  0.22143871615E+02  0.11058141727E+02 -0.10825277882E+03  0.11104642652E+03  0.10570000000E+00 0. -1.
<mgrwt>
<rscale>  0 0.93680253E+02</rscale>
<asrwt>0</asrwt>
<pdfrwt beam="2">  1        1 0.18247022E-01 0.93680253E+02</pdfrwt>
<pdfrwt beam="1">  1       -1 0.28458854E-02 0.93680253E+02</pdfrwt>
<totfact> 0.99884212E+04</totfact>
</mgrwt>
</event>
<event>
 5   1  0.1388354E+00  0.8868007E+02  0.7818608E-02  0.1306080E+00
          1   -1    0    0  501    0  0.00000000000E+00  0.00000000000E+00  0.11319809389E+02  0.11319810353E+02  0.46700000000E-02 0. -1.
         -1   -1    0    0    0  501 -0.00000000000E+00 -0.00000000000E+00 -0.17368122918E+03  0.17368122925E+03  0.46700000000E-02 0.  1.
         23    2    1    2    0    0  0.00000000000E+00  0.00000000000E+00 -0.16236141979E+03  0.18500103960E+03  0.88680065489E+02 0.  0.
        -13    1    3    3    0    0  0.33495702017E+02 -0.29049634426E+02 -0.82075616236E+02  0.93285911407E+02  0.10570000000E+00 0.  1.
         13    1    3    3    0    0 -0.33495702017E+02  0.29049634426E+02 -0.80285803558E+02  0.91715128192E+02  0.10570000000E+00 0. -1.
<mgrwt>
<rscale>  0 0.88680065E+02</rscale>
<asrwt>0</asrwt>
<pdfrwt beam="1">  1        1 0.17415093E-02 0.88680065E+02</pdfrwt>
<pdfrwt beam="2">  1       -1 0.26720187E-01 0.88680065E+02</pdfrwt>
<totfact> 0.77534822E+04</totfact>
</mgrwt>
</event>
<event>
 5   1  0.1388354E+00  0.9105091E+02  0.7818608E-02  0.1300327E+00
         -1   -1    0    0    0  501 -0.00000000000E+00  0.00000000000E+00  0.50705539349E+02  0.50705539564E+02  0.46700000000E-02 0.  1.
          1   -1    0    0  501    0  0.00000000000E+00 -0.00000000000E+00 -0.40874566091E+02  0.40874566358E+02  0.46700000000E-02 0. -1.
         23    2    1    2    0    0  0.00000000000E+00  0.00000000000E+00  0.98309732577E+01  0.91580105922E+02  0.91050907549E+02 0.  0.
        -13    1    3    3    0    0  0.47444758671E+01 -0.20780760068E+02  0.45376218077E+02  0.50133445719E+02  0.10570000000E+00 0.  1.
         13    1    3    3    0    0 -0.47444758671E+01  0.20780760068E+02 -0.35545244819E+02  0.41446660203E+02  0.10570000000E+00 0. -1.
<mgrwt>
<rscale>  0 0.91050908E+02</rscale>
<asrwt>0</asrwt>
<pdfrwt beam="2">  1        1 0.62883948E-02 0.91050908E+02</pdfrwt>
<pdfrwt beam="1">  1       -1 0.78008522E-02 0.91050908E+02</pdfrwt>
<totfact> 0.91317599E+04</totfact>
</mgrwt>
</event>
<event>
 5   1  0.1388354E+00  0.9231082E+02  0.7818608E-02  0.1297350E+00
         -1   -1    0    0    0  501 -0.00000000000E+00  0.00000000000E+00  0.72639042620E+01  0.72639057632E+01  0.46700000000E-02 0.  1.
          1   -1    0    0  501    0  0.00000000000E+00 -0.00000000000E+00 -0.29327502241E+03  0.29327502244E+03  0.46700000000E-02 0. -1.
         23    2    1    2    0    0  0.00000000000E+00  0.00000000000E+00 -0.28601111815E+03  0.30053892821E+03  0.92310820955E+02 0.  0.
        -13    1    3    3    0    0 -0.10092069280E+02  0.42452869367E+02 -0.94037984551E+02  0.10366894275E+03  0.10570000000E+00 0.  1.
         13    1    3    3    0    0  0.10092069280E+02 -0.42452869367E+02 -0.19197313359E+03  0.19686998546E+03  0.10570000000E+00 0. -1.
<mgrwt>
<rscale>  0 0.92310821E+02</rscale>
<asrwt>0</asrwt>
<pdfrwt beam="2">  1        1 0.45119225E-01 0.92310821E+02</pdfrwt>
<pdfrwt beam="1">  1       -1 0.11175241E-02 0.92310821E+02</pdfrwt>
<totfact> 0.12342821E+05</totfact>
</mgrwt>
</event>
<event>
 5   1  0.1388354E+00  0.9212020E+02  0.7818608E-02  0.1297797E+00
          1   -1    0    0  501    0  0.00000000000E+00  0.00000000000E+00  0.63317697421E+02  0.63317697593E+02  0.46700000000E-02 0. -1.
         -1   -1    0    0    0  501 -0.00000000000E+00 -0.00000000000E+00 -0.33506160720E+02  0.33506161046E+02  0.46700000000E-02 0.  1.
         23    2    1    2    0    0  0.00000000000E+00  0.00000000000E+00  0.29811536701E+02  0.96823858639E+02  0.92120203437E+02 0.  0.
        -13    1    3    3    0    0 -0.28156723397E+02 -0.70668834831E+01 -0.22680169877E+02  0.36839424436E+02  0.10570000000E+00 0.  1.
         13    1    3    3    0    0  0.28156723397E+02  0.70668834831E+01  0.52491706578E+02  0.59984434202E+02  0.10570000000E+00 0. -1.
<mgrwt>
<rscale>  0 0.92120203E+02</rscale>
<asrwt>0</asrwt>
<pdfrwt beam="1">  1        1 0.97411842E-02 0.92120203E+02</pdfrwt>
<pdfrwt beam="2">  1       -1 0.51547941E-02 0.92120203E+02</pdfrwt>
<totfact> 0.94427653E+04</totfact>
</mgrwt>
</event>
<event>
 5   1  0.1388354E+00  0.8930060E+02  0.7818608E-02  0.1304554E+00
          1   -1    0    0  501    0  0.00000000000E+00  0.00000000000E+00  0.13587130347E+02  0.13587131149E+02  0.46700000000E-02 0. -1.
         -1   -1    0    0    0  501 -0.00000000000E+00 -0.00000000000E+00 -0.14673072064E+03  0.14673072071E+03  0.46700000000E-02 0.  1.
         23    2    1    2    0    0  0.00000000000E+00  0.00000000000E+00 -0.13314359029E+03  0.16031785186E+03  0.89300604645E+02 0.  0.
        -13    1    3    3    0    0 -0.39200282332E+01 -0.27473208469E+02 -0.12936729182E+03  0.13231043485E+03  0.10570000000E+00 0.  1.
         13    1    3    3    0    0  0.39200282332E+01  0.27473208469E+02 -0.37762984688E+01  0.28007417009E+02  0.10570000000E+00 0. -1.
<mgrwt>
<rscale>  0 0.89300605E+02</rscale>
<asrwt>0</asrwt>
<pdfrwt beam="1">  1        1 0.20903279E-02 0.89300605E+02</pdfrwt>
<pdfrwt beam="2">  1       -1 0.22573956E-01 0.89300605E+02</pdfrwt>
<totfact> 0.79333993E+04</totfact>
</mgrwt>
</event>
<event>
 5   1  0.1388354E+00  0.1014775E+03  0.7818608E-02  0.1277219E+00
          1   -1    0    0  501    0  0.00000000000E+00  0.00000000000E+00  0.28178712261E+02  0.28178712648E+02  0.46700000000E-02 0. -1.
         -1   -1    0    0    0  501 -0.00000000000E+00 -0.00000000000E+00 -0.91360395795E+02  0.91360395915E+02  0.46700000000E-02 0.  1.
         23    2    1    2    0    0  0.00000000000E+00  0.00000000000E+00 -0.63181683534E+02  0.11953910856E+03  0.10147745238E+03 0.  0.
        -13    1    3    3    0    0 -0.19260289829E+02  0.91179941171E+00 -0.86876177677E+02  0.88990289148E+02  0.10570000000E+00 0.  1.
         13    1    3    3    0    0  0.19260289829E+02 -0.91179941171E+00  0.23694494143E+02  0.30548819414E+02  0.10570000000E+00 0. -1.
<mgrwt>
<rscale>  0 0.10147745E+03</rscale>
<asrwt>0</asrwt>
<pdfrwt beam="1">  1        1 0.43351866E-02 0.10147745E+03</pdfrwt>
<pdfrwt beam="2">  1       -1 0.14055445E-01 0.10147745E+03</pdfrwt>
<totfact> 0.62799367E+04</totfact>
</mgrwt>
</event>
<event>
 5   1  0.1388354E+00  0.5735169E+02  0.7818608E-02  0.1409294E+00
          1   -1    0    0  501    0  0.00000000000E+00  0.00000000000E+00  0.60262136616E+02  0.60262136797E+02  0.46700000000E-02 0. -1.
         -1   -1    0    0    0  501 -0.00000000000E+00 -0.00000000000E+00 -0.13645449973E+02  0.13645450772E+02  0.46700000000E-02 0.  1.
         23    2    1    2    0    0  0.00000000000E+00  0.00000000000E+00  0.46616686642E+02  0.73907587569E+02  0.57351687218E+02 0.  0.
        -13    1    3    3    0    0  0.11019665352E+02 -0.26469073531E+02  0.23950040698E+02  0.37358539854E+02  0.10570000000E+00 0. -1.
         13    1    3    3    0    0 -0.11019665352E+02  0.26469073531E+02  0.22666645944E+02  0.36549047715E+02  0.10570000000E+00 0.  1.
<mgrwt>
<rscale>  0 0.57351687E+02</rscale>
<asrwt>0</asrwt>
<pdfrwt beam="1">  1        1 0.92710982E-02 0.57351687E+02</pdfrwt>
<pdfrwt beam="2">  1       -1 0.20993000E-02 0.57351687E+02</pdfrwt>
<totfact> 0.33410105E+05</totfact>
</mgrwt>
</event>
<event>
 5   1  0.1388354E+00  0.9256305E+02  0.7818608E-02  0.1296761E+00
         -1   -1    0    0    0  501 -0.00000000000E+00  0.00000000000E+00  0.53895469342E+01  0.53895489574E+01  0.46700000000E-02 0.  1.
          1   -1    0    0  501    0  0.00000000000E+00 -0.00000000000E+00 -0.39743213097E+03  0.39743213100E+03  0.46700000000E-02 0. -1.
         23    2    1    2    0    0  0.00000000000E+00  0.00000000000E+00 -0.39204258404E+03  0.40282167996E+03  0.92563049562E+02 0.  0.
        -13    1    3    3    0    0 -0.45981844171E+02  0.52428532979E+01 -0.19771158289E+03  0.20305590040E+03  0.10570000000E+00 0.  1.
         13    1    3    3    0    0  0.45981844171E+02 -0.52428532979E+01 -0.19433100115E+03  0.19976577956E+03  0.10570000000E+00 0. -1.
<mgrwt>
<rscale>  0 0.92563050E+02</rscale>
<asrwt>0</asrwt>
<pdfrwt beam="2">  1        1 0.61143382E-01 0.92563050E+02</pdfrwt>
<pdfrwt beam="1">  1       -1 0.82916154E-03 0.92563050E+02</pdfrwt>
<totfact> 0.12944996E+05</totfact>
</mgrwt>
</event>
<event>
 5   1  0.1388354E+00  0.9368620E+02  0.7818608E-02  0.1294163E+00
          1   -1    0    0  501    0  0.00000000000E+00  0.00000000000E+00  0.11131816277E+02  0.11131817257E+02  0.46700000000E-02 0. -1.
         -1   -1    0    0    0  501 -0.00000000000E+00 -0.00000000000E+00 -0.19711752482E+03  0.19711752487E+03  0.46700000000E-02 0.  1.
         23    2    1    2    0    0  0.00000000000E+00  0.00000000000E+00 -0.18598570854E+03  0.20824934213E+03  0.93686203445E+02 0.  0.
        -13    1    3    3    0    0  0.45871969892E+02  0.42759589851E+01 -0.11182064915E+03  0.12093961384E+03  0.10570000000E+00 0.  1.
         13    1    3    3    0    0 -0.45871969892E+02 -0.42759589851E+01 -0.74165059391E+02  0.87309728290E+02  0.10570000000E+00 0. -1.
<mgrwt>
<rscale>  0 0.93686203E+02</rscale>
<asrwt>0</asrwt>
<pdfrwt beam="1">  1        1 0.17125873E-02 0.93686203E+02</pdfrwt>
<pdfrwt beam="2">  1       -1 0.30325770E-01 0.93686203E+02</pdfrwt>
<totfact> 0.64944691E+04</totfact>
</mgrwt>
</event>
<event>
 4   1  0.1388354E+00  0.1476061E+03  0.7818608E-02  0.1203446E+00
          1   -1    0    0  501    0  0.00000000000E+00  0.00000000000E+00  0.16403912683E+03  0.16403912690E+03  0.46700000000E-02 0. -1.
         -1   -1    0    0    0  501 -0.00000000000E+00 -0.00000000000E+00 -0.33204824780E+02  0.33204825108E+02  0.46700000000E-02 0.  1.
        -13    1    1    2    0    0 -0.82593166299E+01 -0.25835588132E+02 -0.26302939643E+02  0.37782929104E+02  0.10570000000E+00 0.  1.
         13    1    1    2    0    0  0.82593166299E+01  0.25835588132E+02  0.15713724170E+03  0.15946102290E+03  0.10570000000E+00 0. -1.
<mgrwt>
<rscale>  0 0.14760610E+03</rscale>
<asrwt>0</asrwt>
<pdfrwt beam="1">  1        1 0.25236788E-01 0.14760610E+03</pdfrwt>
<pdfrwt beam="2">  1       -1 0.51084347E-02 0.14760610E+03</pdfrwt>
<totfact> 0.29952379E+04</totfact>
</mgrwt>
</event>
<event>
 5   1  0.1388354E+00  0.9291851E+02  0.7818608E-02  0.1295934E+00
         -1   -1    0    0    0  501 -0.00000000000E+00  0.00000000000E+00  0.62271705570E+02  0.62271705745E+02  0.46700000000E-02 0.  1.
          1   -1    0    0  501    0  0.00000000000E+00 -0.00000000000E+00 -0.34662008323E+02  0.34662008637E+02  0.46700000000E-02 0. -1.
         23    2    1    2    0    0  0.00000000000E+00  0.00000000000E+00  0.27609697247E+02  0.96933714382E+02  0.92918510545E+02 0.  0.
        -13    1    3    3    0    0 -0.30521138947E+02  0.15837759220E+02  0.46397116820E+02  0.57750135597E+02  0.10570000000E+00 0.  1.
         13    1    3    3    0    0  0.30521138947E+02 -0.15837759220E+02 -0.18787419572E+02  0.39183578786E+02  0.10570000000E+00 0. -1.
<mgrwt>
<rscale>  0 0.92918511E+02</rscale>
<asrwt>0</asrwt>
<pdfrwt beam="2">  1        1 0.53326167E-02 0.92918511E+02</pdfrwt>
<pdfrwt beam="1">  1       -1 0.95802624E-02 0.92918511E+02</pdfrwt>
<totfact> 0.84026858E+04</totfact>
</mgrwt>
</event>
<event>
 5   1  0.1388354E+00  0.8847092E+02  0.7818608E-02  0.1306597E+00
         -1   -1    0    0    0  501 -0.00000000000E+00  0.00000000000E+00  0.29390265681E+02  0.29390266052E+02  0.46700000000E-02 0.  1.
          1   -1    0    0  501    0  0.00000000000E+00 -0.00000000000E+00 -0.66579042772E+02  0.66579042936E+02  0.46700000000E-02 0. -1.
         23    2    1    2    0    0  0.00000000000E+00  0.00000000000E+00 -0.37188777092E+02  0.95969308988E+02  0.88470916837E+02 0.  0.
        -13    1    3    3    0    0  0.18313617453E+02  0.30415386831E+02  0.10029187048E+02  0.36892819161E+02  0.10570000000E+00 0.  1.
         13    1    3    3    0    0 -0.18313617453E+02 -0.30415386831E+02 -0.47217964140E+02  0.59076489827E+02  0.10570000000E+00 0. -1.
<mgrwt>
<rscale>  0 0.88470917E+02</rscale>
<asrwt>0</asrwt>
<pdfrwt beam="2">  1        1 0.10242930E-01 0.88470917E+02</pdfrwt>
<pdfrwt beam="1">  1       -1 0.45215794E-02 0.88470917E+02</pdfrwt>
<totfact> 0.10638151E+05</totfact>
</mgrwt>
</event>
<event>
 5   1  0.1388354E+00  0.9125606E+02  0.7818608E-02  0.1299838E+00
          1   -1    0    0  501    0  0.00000000000E+00  0.00000000000E+00  0.18810564565E+03  0.18810564570E+03  0.46700000000E-02 0. -1.
         -1   -1    0    0    0  501 -0.00000000000E+00 -0.00000000000E+00 -0.11067807070E+02  0.11067808055E+02  0.46700000000E-02 0.  1.
         23    2    1    2    0    0  0.00000000000E+00  0.00000000000E+00  0.17703783858E+03  0.19917345376E+03  0.91256059495E+02 0.  0.
        -13    1    3    3    0    0  0.86314750640E+01 -0.28427921513E+02  0.12935620032E+02  0.32403557234E+02  0.10570000000E+00 0.  1.
         13    1    3    3    0    0 -0.86314750640E+01  0.28427921513E+02  0.16410221854E+03  0.16676989653E+03  0.10570000000E+00 0. -1.
<mgrwt>
<rscale>  0 0.91256059E+02</rscale>
<asrwt>0</asrwt>
<pdfrwt beam="1">  1        1 0.28939329E-01 0.91256059E+02</pdfrwt>
<pdfrwt beam="2">  1       -1 0.17027397E-02 0.91256059E+02</pdfrwt>
<totfact> 0.11673839E+05</totfact>
</mgrwt>
</event>
<event>
 5   1  0.1388354E+00  0.8637635E+02  0.7818608E-02  0.1311872E+00
          1   -1    0    0  501    0  0.00000000000E+00  0.00000000000E+00  0.30832763441E+02  0.30832763795E+02  0.46700000000E-02 0. -1.
         -1   -1    0    0    0  501 -0.00000000000E+00 -0.00000000000E+00 -0.60494690542E+02  0.60494690722E+02  0.46700000000E-02 0.  1.
         23    2    1    2    0    0  0.00000000000E+00  0.00000000000E+00 -0.29661927100E+02  0.91327454517E+02  0.86376351100E+02 0.  0.
        -13    1    3    3    0    0  0.18762480711E+02 -0.38236640096E+02 -0.22391801046E+02  0.48119385437E+02  0.10570000000E+00 0.  1.
         13    1    3    3    0    0 -0.18762480711E+02  0.38236640096E+02 -0.72701260546E+01  0.43208069080E+02  0.10570000000E+00 0. -1.
<mgrwt>
<rscale>  0 0.86376351E+02</rscale>
<asrwt>0</asrwt>
<pdfrwt beam="1">  1        1 0.47435021E-02 0.86376351E+02</pdfrwt>
<pdfrwt beam="2">  1       -1 0.93068755E-02 0.86376351E+02</pdfrwt>
<totfact> 0.10157367E+05</totfact>
</mgrwt>
</event>
<event>
 5   1  0.1388354E+00  0.8854644E+02  0.7818608E-02  0.1306410E+00
         -1   -1    0    0    0  501 -0.00000000000E+00  0.00000000000E+00  0.62477172298E+02  0.62477172473E+02  0.46700000000E-02 0.  1.
          1   -1    0    0  501    0  0.00000000000E+00 -0.00000000000E+00 -0.31373343580E+02  0.31373343928E+02  0.46700000000E-02 0. -1.
         23    2    1    2    0    0  0.00000000000E+00  0.00000000000E+00  0.31103828718E+02  0.93850516401E+02  0.88546435658E+02 0.  0.
        -13    1    3    3    0    0  0.44133108068E+02 -0.28794144439E+01  0.13409866645E+02  0.46215343245E+02  0.10570000000E+00 0. -1.
         13    1    3    3    0    0 -0.44133108068E+02  0.28794144439E+01  0.17693962073E+02  0.47635173156E+02  0.10570000000E+00 0.  1.
<mgrwt>
<rscale>  0 0.88546436E+02</rscale>
<asrwt>0</asrwt>
<pdfrwt beam="2">  1        1 0.48266683E-02 0.88546436E+02</pdfrwt>
<pdfrwt beam="1">  1       -1 0.96118726E-02 0.88546436E+02</pdfrwt>
<totfact> 0.94913566E+04</totfact>
</mgrwt>
</event>
<event>
 5   1  0.1388354E+00  0.9058932E+02  0.7818608E-02  0.1301431E+00
         -1   -1    0    0    0  501 -0.00000000000E+00  0.00000000000E+00  0.77871633460E+02  0.77871633600E+02  0.46700000000E-02 0.  1.
          1   -1    0    0  501    0  0.00000000000E+00 -0.00000000000E+00 -0.26346004660E+02  0.26346005074E+02  0.46700000000E-02 0. -1.
         23    2    1    2    0    0  0.00000000000E+00  0.00000000000E+00  0.51525628800E+02  0.10421763867E+03  0.90589324909E+02 0.  0.
        -13    1    3    3    0    0 -0.35520388793E+02  0.51442528746E+01  0.57549842861E+02  0.67824456823E+02  0.10570000000E+00 0.  1.
         13    1    3    3    0    0  0.35520388793E+02 -0.51442528746E+01 -0.60242140602E+01  0.36393181850E+02  0.10570000000E+00 0. -1.
<mgrwt>
<rscale>  0 0.90589325E+02</rscale>
<asrwt>0</asrwt>
<pdfrwt beam="2">  1        1 0.40532316E-02 0.90589325E+02</pdfrwt>
<pdfrwt beam="1">  1       -1 0.11980251E-01 0.90589325E+02</pdfrwt>
<totfact> 0.86452414E+04</totfact>
</mgrwt>
</event>
<event>
 5   1  0.1388354E+00  0.9276648E+02  0.7818608E-02  0.1296287E+00
         -1   -1    0    0    0  501 -0.00000000000E+00  0.00000000000E+00  0.34295913411E+02  0.34295913729E+02  0.46700000000E-02 0.  1.
          1   -1    0    0  501    0  0.00000000000E+00 -0.00000000000E+00 -0.62730643636E+02  0.62730643810E+02  0.46700000000E-02 0. -1.
         23    2    1    2    0    0  0.00000000000E+00  0.00000000000E+00 -0.28434730226E+02  0.97026557539E+02  0.92766475544E+02 0.  0.
        -13    1    3    3    0    0 -0.44884189680E+02  0.91888796054E+01 -0.21786231302E+02  0.50731420623E+02  0.10570000000E+00 0. -1.
         13    1    3    3    0    0  0.44884189680E+02 -0.91888796054E+01 -0.66484989233E+01  0.46295136916E+02  0.10570000000E+00 0.  1.
<mgrwt>
<rscale>  0 0.92766476E+02</rscale>
<asrwt>0</asrwt>
<pdfrwt beam="2">  1        1 0.96508682E-02 0.92766476E+02</pdfrwt>
<pdfrwt beam="1">  1       -1 0.52762944E-02 0.92766476E+02</pdfrwt>
<totfact> 0.92479852E+04</totfact>
</mgrwt>
</event>
<event>
 5   1  0.1388354E+00  0.9183729E+02  0.7818608E-02  0.1298462E+00
         -1   -1    0    0    0  501 -0.00000000000E+00  0.00000000000E+00  0.19430504111E+02  0.19430504672E+02  0.46700000000E-02 0.  1.
          1   -1    0    0  501    0  0.00000000000E+00 -0.00000000000E+00 -0.10851607931E+03  0.10851607941E+03  0.46700000000E-02 0. -1.
         23    2    1    2    0    0  0.00000000000E+00  0.00000000000E+00 -0.89085575195E+02  0.12794658408E+03  0.91837294546E+02 0.  0.
        -13    1    3    3    0    0 -0.35134136869E+02 -0.29401963087E+02 -0.40219865759E+02  0.60963364253E+02  0.10570000000E+00 0. -1.
         13    1    3    3    0    0  0.35134136869E+02  0.29401963087E+02 -0.48865709436E+02  0.66983219825E+02  0.10570000000E+00 0.  1.
<mgrwt>
<rscale>  0 0.91837295E+02</rscale>
<asrwt>0</asrwt>
<pdfrwt beam="2">  1        1 0.16694781E-01 0.91837295E+02</pdfrwt>
<pdfrwt beam="1">  1       -1 0.29893084E-02 0.91837295E+02</pdfrwt>
<totfact> 0.10383386E+05</totfact>
</mgrwt>
</event>
<event>
 5   1  0.1388354E+00  0.9325686E+02  0.7818608E-02  0.1295151E+00
          1   -1    0    0  501    0  0.00000000000E+00  0.00000000000E+00  0.16213817432E+02  0.16213818105E+02  0.46700000000E-02 0. -1.
         -1   -1    0    0    0  501 -0.00000000000E+00 -0.00000000000E+00 -0.13409614619E+03  0.13409614627E+03  0.46700000000E-02 0.  1.
         23    2    1    2    0    0  0.00000000000E+00  0.00000000000E+00 -0.11788232876E+03  0.15030996438E+03  0.93256860109E+02 0.  0.
        -13    1    3    3    0    0  0.13466408915E+01 -0.44823919548E+02 -0.38350523243E+02  0.59006533629E+02  0.10570000000E+00 0. -1.
         13    1    3    3    0    0 -0.13466408915E+01  0.44823919548E+02 -0.79531805514E+02  0.91303430747E+02  0.10570000000E+00 0.  1.
<mgrwt>
<rscale>  0 0.93256860E+02</rscale>
<asrwt>0</asrwt>
<pdfrwt beam="1">  1        1 0.24944336E-02 0.93256860E+02</pdfrwt>
<pdfrwt beam="2">  1       -1 0.20630176E-01 0.93256860E+02</pdfrwt>
<totfact> 0.72348048E+04</totfact>
</mgrwt>
</event>
<event>
 5   1  0.1388354E+00  0.1109413E+03  0.7818608E-02  0.1258837E+00
         -1   -1    0    0    0  501 -0.00000000000E+00  0.00000000000E+00  0.17234561626E+02  0.17234562259E+02  0.46700000000E-02 0.  1.
          1   -1    0    0  501    0  0.00000000000E+00 -0.00000000000E+00 -0.17853614078E+03  0.17853614084E+03  0.46700000000E-02 0. -1.
         23    2    1    2    0    0  0.00000000000E+00  0.00000000000E+00 -0.16130157915E+03  0.19577070310E+03  0.11094128517E+03 0.  0.
        -13    1    3    3    0    0  0.26762553166E+02  0.40373161816E+02 -0.32948384302E+02  0.58581854252E+02  0.10570000000E+00 0.  1.
         13    1    3    3    0    0 -0.26762553166E+02 -0.40373161816E+02 -0.12835319485E+03  0.13718884885E+03  0.10570000000E+00 0. -1.
<mgrwt>
<rscale>  0 0.11094129E+03</rscale>
<asrwt>0</asrwt>
<pdfrwt beam="2">  1        1 0.27467097E-01 0.11094129E+03</pdfrwt>
<pdfrwt beam="1">  1       -1 0.26514712E-02 0.11094129E+03</pdfrwt>
<totfact> 0.67948609E+04</totfact>
</mgrwt>
</event>
<event>
 5   1  0.1388354E+00  0.9207326E+02  0.7818608E-02  0.1297907E+00
         -1   -1    0    0    0  501 -0.00000000000E+00  0.00000000000E+00  0.93820446188E+01  0.93820457810E+01  0.46700000000E-02 0.  1.
          1   -1    0    0  501    0  0.00000000000E+00 -0.00000000000E+00 -0.22589653520E+03  0.22589653525E+03  0.46700000000E-02 0. -1.
         23    2    1    2    0    0  0.00000000000E+00  0.00000000000E+00 -0.21651449058E+03  0.23527858103E+03  0.92073264630E+02 0.  0.
        -13    1    3    3    0    0  0.15940790406E+02 -0.29933002696E+02 -0.28701684834E+02  0.44428496868E+02  0.10570000000E+00 0.  1.
         13    1    3    3    0    0 -0.15940790406E+02  0.29933002696E+02 -0.18781280575E+03  0.19085008416E+03  0.10570000000E+00 0. -1.
<mgrwt>
<rscale>  0 0.92073265E+02</rscale>
<asrwt>0</asrwt>
<pdfrwt beam="2">  1        1 0.34753309E-01 0.92073265E+02</pdfrwt>
<pdfrwt beam="1">  1       -1 0.14433917E-02 0.92073265E+02</pdfrwt>
<totfact> 0.11811053E+05</totfact>
</mgrwt>
</event>
<event>
 5   1  0.1388354E+00  0.8069967E+02  0.7818608E-02  0.1327078E+00
         -1   -1    0    0    0  501 -0.00000000000E+00  0.00000000000E+00  0.30811533615E+02  0.30811533969E+02  0.46700000000E-02 0.  1.
          1   -1    0    0  501    0  0.00000000000E+00 -0.00000000000E+00 -0.52840897507E+02  0.52840897714E+02  0.46700000000E-02 0. -1.
         23    2    1    2    0    0  0.00000000000E+00  0.00000000000E+00 -0.22029363893E+02  0.83652431682E+02  0.80699668233E+02 0.  0.
        -13    1    3    3    0    0  0.27189214334E+02  0.26917335823E+02  0.22723418512E+01  0.38327158176E+02  0.10570000000E+00 0. -1.
         13    1    3    3    0    0 -0.27189214334E+02 -0.26917335823E+02 -0.24301705744E+02  0.45325273506E+02  0.10570000000E+00 0.  1.
<mgrwt>
<rscale>  0 0.80699668E+02</rscale>
<asrwt>0</asrwt>
<pdfrwt beam="2">  1        1 0.81293689E-02 0.80699668E+02</pdfrwt>
<pdfrwt beam="1">  1       -1 0.47402360E-02 0.80699668E+02</pdfrwt>
<totfact> 0.13242814E+05</totfact>
</mgrwt>
</event>
<event>
 5   1  0.1388354E+00  0.8968609E+02  0.7818608E-02  0.1303614E+00
         -1   -1    0    0    0  501 -0.00000000000E+00  0.00000000000E+00  0.80562564979E+02  0.80562565114E+02  0.46700000000E-02 0.  1.
          1   -1    0    0  501    0  0.00000000000E+00 -0.00000000000E+00 -0.24960706719E+02  0.24960707156E+02  0.46700000000E-02 0. -1.
         23    2    1    2    0    0  0.00000000000E+00  0.00000000000E+00  0.55601858259E+02  0.10552327227E+03  0.89686087821E+02 0.  0.
        -13    1    3    3    0    0  0.30191552488E+02 -0.28546789651E+02  0.47644382887E+02  0.63217461466E+02  0.10570000000E+00 0. -1.
         13    1    3    3    0    0 -0.30191552488E+02  0.28546789651E+02  0.79574753728E+01  0.42305810805E+02  0.10570000000E+00 0.  1.
<mgrwt>
<rscale>  0 0.89686088E+02</rscale>
<asrwt>0</asrwt>
<pdfrwt beam="2">  1        1 0.38401087E-02 0.89686088E+02</pdfrwt>
<pdfrwt beam="1">  1       -1 0.12394241E-01 0.89686088E+02</pdfrwt>
<totfact> 0.88191454E+04</totfact>
</mgrwt>
</event>
<event>
 5   1  0.1388354E+00  0.9168010E+02  0.7818608E-02  0.1298833E+00
         -1   -1    0    0    0  501 -0.00000000000E+00  0.00000000000E+00  0.78636154099E+01  0.78636167966E+01  0.46700000000E-02 0.  1.
          1   -1    0    0  501    0  0.00000000000E+00 -0.00000000000E+00 -0.26721932660E+03  0.26721932664E+03  0.46700000000E-02 0. -1.
         23    2    1    2    0    0  0.00000000000E+00  0.00000000000E+00 -0.25935571119E+03  0.27508294344E+03  0.91680100586E+02 0.  0.
        -13    1    3    3    0    0 -0.35972155828E+00 -0.42410890819E+02 -0.77493394149E+02  0.88340536386E+02  0.10570000000E+00 0.  1.
         13    1    3    3    0    0  0.35972155828E+00  0.42410890819E+02 -0.18186231704E+03  0.18674240706E+03  0.10570000000E+00 0. -1.
<mgrwt>
<rscale>  0 0.91680101E+02</rscale>
<asrwt>0</asrwt>
<pdfrwt beam="2">  1        1 0.41110659E-01 0.91680101E+02</pdfrwt>
<pdfrwt beam="1">  1       -1 0.12097873E-02 0.91680101E+02</pdfrwt>
<totfact> 0.12346014E+05</totfact>
</mgrwt>
</event>
<event>
 5   1  0.1388354E+00  0.8909761E+02  0.7818608E-02  0.1305052E+00
         -1   -1    0    0    0  501 -0.00000000000E+00  0.00000000000E+00  0.39618645729E+02  0.39618646004E+02  0.46700000000E-02 0.  1.
          1   -1    0    0  501    0  0.00000000000E+00 -0.00000000000E+00 -0.50092479642E+02  0.50092479859E+02  0.46700000000E-02 0. -1.
         23    2    1    2    0    0  0.00000000000E+00  0.00000000000E+00 -0.10473833913E+02  0.89711125864E+02  0.89097614485E+02 0.  0.
        -13    1    3    3    0    0 -0.24925814776E+02 -0.26392258950E+02 -0.31235978091E+02  0.47890970699E+02  0.10570000000E+00 0. -1.
         13    1    3    3    0    0  0.24925814776E+02  0.26392258950E+02  0.20762144178E+02  0.41820155165E+02  0.10570000000E+00 0.  1.
<mgrwt>
<rscale>  0 0.89097614E+02</rscale>
<asrwt>0</asrwt>
<pdfrwt beam="2">  1        1 0.77065354E-02 0.89097614E+02</pdfrwt>
<pdfrwt beam="1">  1       -1 0.60951763E-02 0.89097614E+02</pdfrwt>
<totfact> 0.10001894E+05</totfact>
</mgrwt>
</event>
<event>
 5   1  0.1388354E+00  0.9377260E+02  0.7818608E-02  0.1293965E+00
          1   -1    0    0  501    0  0.00000000000E+00  0.00000000000E+00  0.45615317585E+02  0.45615317824E+02  0.46700000000E-02 0. -1.
         -1   -1    0    0    0  501 -0.00000000000E+00 -0.00000000000E+00 -0.48192698992E+02  0.48192699219E+02  0.46700000000E-02 0.  1.
         23    2    1    2    0    0  0.00000000000E+00  0.00000000000E+00 -0.25773814076E+01  0.93808017043E+02  0.93772603497E+02 0.  0.
        -13    1    3    3    0    0  0.28017142276E+02 -0.48541588836E+01  0.36005288921E+02  0.45879353990E+02  0.10570000000E+00 0. -1.
         13    1    3    3    0    0 -0.28017142276E+02  0.48541588836E+01 -0.38582670329E+02  0.47928663052E+02  0.10570000000E+00 0.  1.
<mgrwt>
<rscale>  0 0.93772603E+02</rscale>
<asrwt>0</asrwt>
<pdfrwt beam="1">  1        1 0.70177412E-02 0.93772603E+02</pdfrwt>
<pdfrwt beam="2">  1       -1 0.74142614E-02 0.93772603E+02</pdfrwt>
<totfact> 0.85451529E+04</totfact>
</mgrwt>
</event>
<event>
 5   1  0.1388354E+00  0.9167921E+02  0.7818608E-02  0.1298835E+00
         -1   -1    0    0    0  501 -0.00000000000E+00  0.00000000000E+00  0.75646014462E+01  0.75646028877E+01  0.46700000000E-02 0.  1.
          1   -1    0    0  501    0  0.00000000000E+00 -0.00000000000E+00 -0.27777657284E+03  0.27777657288E+03  0.46700000000E-02 0. -1.
         23    2    1    2    0    0  0.00000000000E+00  0.00000000000E+00 -0.27021197139E+03  0.28534117576E+03  0.91679207585E+02 0.  0.
        -13    1    3    3    0    0  0.26959793801E+02  0.30389465362E+02 -0.69015708429E+02  0.80084513292E+02  0.10570000000E+00 0. -1.
         13    1    3    3    0    0 -0.26959793801E+02 -0.30389465362E+02 -0.20119626296E+03  0.20525666247E+03  0.10570000000E+00 0.  1.
<mgrwt>
<rscale>  0 0.91679208E+02</rscale>
<asrwt>0</asrwt>
<pdfrwt beam="2">  1        1 0.42734850E-01 0.91679208E+02</pdfrwt>
<pdfrwt beam="1">  1       -1 0.11637852E-02 0.91679208E+02</pdfrwt>
<totfact> 0.12439933E+05</totfact>
</mgrwt>
</event>
<event>
 5   1  0.1388354E+00  0.9057227E+02  0.7818608E-02  0.1301472E+00
          1   -1    0    0  501    0  0.00000000000E+00  0.00000000000E+00  0.22847282324E+02  0.22847282801E+02  0.46700000000E-02 0. -1.
         -1   -1    0    0    0  501 -0.00000000000E+00 -0.00000000000E+00 -0.89762715674E+02  0.89762715796E+02  0.46700000000E-02 0.  1.
         23    2    1    2    0    0  0.00000000000E+00  0.00000000000E+00 -0.66915433350E+02  0.11260999860E+03  0.90572272598E+02 0.  0.
        -13    1    3    3    0    0 -0.35052988323E+02  0.24545160139E+02 -0.15031192210E+02  0.45355537571E+02  0.10570000000E+00 0. -1.
         13    1    3    3    0    0  0.35052988323E+02 -0.24545160139E+02 -0.51884241140E+02  0.67254461025E+02  0.10570000000E+00 0.  1.
<mgrwt>
<rscale>  0 0.90572273E+02</rscale>
<asrwt>0</asrwt>
<pdfrwt beam="1">  1        1 0.35149666E-02 0.90572273E+02</pdfrwt>
<pdfrwt beam="2">  1       -1 0.13809648E-01 0.90572273E+02</pdfrwt>
<totfact> 0.84409899E+04</totfact>
</mgrwt>
</event>
<event>
 5   1  0.1388354E+00  0.9456924E+02  0.7818608E-02  0.1292149E+00
          1   -1    0    0  501    0  0.00000000000E+00  0.00000000000E+00  0.74820039263E+02  0.74820039409E+02  0.46700000000E-02 0. -1.
         -1   -1    0    0    0  501 -0.00000000000E+00 -0.00000000000E+00 -0.29882839834E+02  0.29882840199E+02  0.46700000000E-02 0.  1.
         23    2    1    2    0    0  0.00000000000E+00  0.00000000000E+00  0.44937199429E+02  0.10470287961E+03  0.94569239744E+02 0.  0.
        -13    1    3    3    0    0  0.43228340329E+01  0.26159430163E+02  0.65815146924E+02  0.70955249401E+02  0.10570000000E+00 0. -1.
         13    1    3    3    0    0 -0.43228340329E+01 -0.26159430163E+02 -0.20877947495E+02  0.33747630207E+02  0.10570000000E+00 0.  1.
<mgrwt>
<rscale>  0 0.94569240E+02</rscale>
<asrwt>0</asrwt>
<pdfrwt beam="1">  1        1 0.11510775E-01 0.94569240E+02</pdfrwt>
<pdfrwt beam="2">  1       -1 0.45973600E-02 0.94569240E+02</pdfrwt>
<totfact> 0.90127236E+04</totfact>
</mgrwt>
</event>
<event>
 5   1  0.1388354E+00  0.9743935E+02  0.7818608E-02  0.1285775E+00
          1   -1    0    0  501    0  0.00000000000E+00  0.00000000000E+00  0.74026799089E+02  0.74026799237E+02  0.46700000000E-02 0. -1.
         -1   -1    0    0    0  501 -0.00000000000E+00 -0.00000000000E+00 -0.32064154650E+02  0.32064154990E+02  0.46700000000E-02 0.  1.
         23    2    1    2    0    0  0.00000000000E+00  0.00000000000E+00  0.41962644439E+02  0.10609095423E+03  0.97439350575E+02 0.  0.
        -13    1    3    3    0    0  0.29716789741E+01 -0.16962336016E+02 -0.28639826000E+02  0.33418595495E+02  0.10570000000E+00 0.  1.
         13    1    3    3    0    0 -0.29716789741E+01  0.16962336016E+02  0.70602470439E+02  0.72672358732E+02  0.10570000000E+00 0. -1.
<mgrwt>
<rscale>  0 0.97439351E+02</rscale>
<asrwt>0</asrwt>
<pdfrwt beam="1">  1        1 0.11388738E-01 0.97439351E+02</pdfrwt>
<pdfrwt beam="2">  1       -1 0.49329470E-02 0.97439351E+02</pdfrwt>
<totfact> 0.82811835E+04</totfact>
</mgrwt>
</event>
<event>
 5   1  0.1388354E+00  0.8987114E+02  0.7818608E-02  0.1303164E+00
          1   -1    0    0  501    0  0.00000000000E+00  0.00000000000E+00  0.17498269523E+03  0.17498269530E+03  0.46700000000E-02 0. -1.
         -1   -1    0    0    0  501 -0.00000000000E+00 -0.00000000000E+00 -0.11539458336E+02  0.11539459281E+02  0.46700000000E-02 0.  1.
         23    2    1    2    0    0  0.00000000000E+00  0.00000000000E+00  0.16344323690E+03  0.18652215458E+03  0.89871143646E+02 0.  0.
        -13    1    3    3    0    0  0.59125771039E+01  0.36578035486E+02  0.28959577496E+02  0.47027434007E+02  0.10570000000E+00 0.  1.
         13    1    3    3    0    0 -0.59125771039E+01 -0.36578035486E+02  0.13448365940E+03  0.13949472057E+03  0.10570000000E+00 0. -1.
<mgrwt>
<rscale>  0 0.89871144E+02</rscale>
<asrwt>0</asrwt>
<pdfrwt beam="1">  1        1 0.26920414E-01 0.89871144E+02</pdfrwt>
<pdfrwt beam="2">  1       -1 0.17753014E-02 0.89871144E+02</pdfrwt>
<totfact> 0.11995980E+05</totfact>
</mgrwt>
</event>
<event>
 5   1  0.1388354E+00  0.8949864E+02  0.7818608E-02  0.1304070E+00
         -1   -1    0    0    0  501 -0.00000000000E+00  0.00000000000E+00  0.50099423869E+02  0.50099424087E+02  0.46700000000E-02 0.  1.
          1   -1    0    0  501    0  0.00000000000E+00 -0.00000000000E+00 -0.39970552913E+02  0.39970553186E+02  0.46700000000E-02 0. -1.
         23    2    1    2    0    0  0.00000000000E+00  0.00000000000E+00  0.10128870956E+02  0.90069977273E+02  0.89498641214E+02 0.  0.
        -13    1    3    3    0    0  0.29744373012E+02  0.31888662579E+02 -0.50433851827E+01  0.43898307866E+02  0.10570000000E+00 0. -1.
         13    1    3    3    0    0 -0.29744373012E+02 -0.31888662579E+02  0.15172256139E+02  0.46171669406E+02  0.10570000000E+00 0.  1.
<mgrwt>
<rscale>  0 0.89498641E+02</rscale>
<asrwt>0</asrwt>
<pdfrwt beam="2">  1        1 0.61493158E-02 0.89498641E+02</pdfrwt>
<pdfrwt beam="1">  1       -1 0.77076037E-02 0.89498641E+02</pdfrwt>
<totfact> 0.95525942E+04</totfact>
</mgrwt>
</event>
<event>
 5   1  0.1388354E+00  0.9198088E+02  0.7818608E-02  0.1298124E+00
          1   -1    0    0  501    0  0.00000000000E+00  0.00000000000E+00  0.32159856803E+02  0.32159857142E+02  0.46700000000E-02 0. -1.
         -1   -1    0    0    0  501 -0.00000000000E+00 -0.00000000000E+00 -0.65768965975E+02  0.65768966141E+02  0.46700000000E-02 0.  1.
         23    2    1    2    0    0  0.00000000000E+00  0.00000000000E+00 -0.33609109172E+02  0.97928823283E+02  0.91980879591E+02 0.  0.
        -13    1    3    3    0    0  0.36830866954E+02  0.50455905748E+01  0.12022882374E+02  0.39070853816E+02  0.10570000000E+00 0. -1.
         13    1    3    3    0    0 -0.36830866954E+02 -0.50455905748E+01 -0.45631991546E+02  0.58857969467E+02  0.10570000000E+00 0.  1.
<mgrwt>
<rscale>  0 0.91980880E+02</rscale>
<asrwt>0</asrwt>
<pdfrwt beam="1">  1        1 0.49476703E-02 0.91980880E+02</pdfrwt>
<pdfrwt beam="2">  1       -1 0.10118302E-01 0.91980880E+02</pdfrwt>
<totfact> 0.85476116E+04</totfact>
</mgrwt>
</event>
<event>
 5   1  0.1388354E+00  0.7001305E+02  0.7818608E-02  0.1360049E+00
          1   -1    0    0  501    0  0.00000000000E+00  0.00000000000E+00  0.90123392227E+02  0.90123392348E+02  0.46700000000E-02 0. -1.
         -1   -1    0    0    0  501 -0.00000000000E+00 -0.00000000000E+00 -0.13597544191E+02  0.13597544993E+02  0.46700000000E-02 0.  1.
         23    2    1    2    0    0  0.00000000000E+00  0.00000000000E+00  0.76525848036E+02  0.10372093734E+03  0.70013051821E+02 0.  0.
        -13    1    3    3    0    0 -0.28085954585E+02  0.14290168850E+02  0.15677910528E+02  0.35197128033E+02  0.10570000000E+00 0.  1.
         13    1    3    3    0    0  0.28085954585E+02 -0.14290168850E+02  0.60847937507E+02  0.68523809308E+02  0.10570000000E+00 0. -1.
<mgrwt>
<rscale>  0 0.70013052E+02</rscale>
<asrwt>0</asrwt>
<pdfrwt beam="1">  1        1 0.13865137E-01 0.70013052E+02</pdfrwt>
<pdfrwt beam="2">  1       -1 0.20919300E-02 0.70013052E+02</pdfrwt>
<totfact> 0.20872887E+05</totfact>
</mgrwt>
</event>
<event>
 5   1  0.1388354E+00  0.9944260E+02  0.7818608E-02  0.1281472E+00
         -1   -1    0    0    0  501 -0.00000000000E+00  0.00000000000E+00  0.40271709677E+02  0.40271709948E+02  0.46700000000E-02 0.  1.
          1   -1    0    0  501    0  0.00000000000E+00 -0.00000000000E+00 -0.61388198409E+02  0.61388198586E+02  0.46700000000E-02 0. -1.
         23    2    1    2    0    0  0.00000000000E+00  0.00000000000E+00 -0.21116488732E+02  0.10165990853E+03  0.99442601066E+02 0.  0.
        -13    1    3    3    0    0 -0.30393067079E+02 -0.16245278132E+02  0.26081511495E+02  0.43219254996E+02  0.10570000000E+00 0.  1.
         13    1    3    3    0    0  0.30393067079E+02  0.16245278132E+02 -0.47198000227E+02  0.58440653538E+02  0.10570000000E+00 0. -1.
<mgrwt>
<rscale>  0 0.99442601E+02</rscale>
<asrwt>0</asrwt>
<pdfrwt beam="2">  1        1 0.94443383E-02 0.99442601E+02</pdfrwt>
<pdfrwt beam="1">  1       -1 0.61956476E-02 0.99442601E+02</pdfrwt>
<totfact> 0.75900754E+04</totfact>
</mgrwt>
</event>
<event>
 5   1  0.1388354E+00  0.9109226E+02  0.7818608E-02  0.1300228E+00
         -1   -1    0    0    0  501 -0.00000000000E+00  0.00000000000E+00  0.13131108523E+03  0.13131108531E+03  0.46700000000E-02 0.  1.
          1   -1    0    0  501    0  0.00000000000E+00 -0.00000000000E+00 -0.15797978728E+02  0.15797979419E+02  0.46700000000E-02 0. -1.
         23    2    1    2    0    0  0.00000000000E+00  0.00000000000E+00  0.11551310650E+03  0.14710906473E+03  0.91092256271E+02 0.  0.
        -13    1    3    3    0    0  0.39659194312E+02  0.22329723811E+02  0.54973238795E+02  0.71369015791E+02  0.10570000000E+00 0.  1.
         13    1    3    3    0    0 -0.39659194312E+02 -0.22329723811E+02  0.60539867708E+02  0.75740048941E+02  0.10570000000E+00 0. -1.
<mgrwt>
<rscale>  0 0.91092256E+02</rscale>
<asrwt>0</asrwt>
<pdfrwt beam="2">  1        1 0.24304583E-02 0.91092256E+02</pdfrwt>
<pdfrwt beam="1">  1       -1 0.20201705E-01 0.91092256E+02</pdfrwt>
<totfact> 0.77243915E+04</totfact>
</mgrwt>
</event>
<event>
 5   1  0.1388354E+00  0.9096358E+02  0.7818608E-02  0.1300535E+00
         -1   -1    0    0    0  501 -0.00000000000E+00  0.00000000000E+00  0.60239796109E+01  0.60239814211E+01  0.46700000000E-02 0. -1.
          1   -1    0    0  501    0  0.00000000000E+00 -0.00000000000E+00 -0.34339304388E+03  0.34339304391E+03  0.46700000000E-02 0.  1.
         23    2    1    2    0    0  0.00000000000E+00  0.00000000000E+00 -0.33736906426E+03  0.34941702533E+03  0.90963575493E+02 0.  0.
        -13    1    3    3    0    0  0.26721686782E+02 -0.36781524873E+02 -0.17362282893E+03  0.17947653612E+03  0.10570000000E+00 0. -1.
         13    1    3    3    0    0 -0.26721686782E+02  0.36781524873E+02 -0.16374623533E+03  0.16994048921E+03  0.10570000000E+00 0.  1.
<mgrwt>
<rscale>  0 0.90963575E+02</rscale>
<asrwt>0</asrwt>
<pdfrwt beam="2">  1        1 0.52829684E-01 0.90963575E+02</pdfrwt>
<pdfrwt beam="1">  1       -1 0.92676650E-03 0.90963575E+02</pdfrwt>
<totfact> 0.13220322E+05</totfact>
</mgrwt>
</event>
<event>
 5   1  0.1388354E+00  0.8702734E+02  0.7818608E-02  0.1310214E+00
         -1   -1    0    0    0  501 -0.00000000000E+00  0.00000000000E+00  0.11634592377E+03  0.11634592386E+03  0.46700000000E-02 0.  1.
          1   -1    0    0  501    0  0.00000000000E+00 -0.00000000000E+00 -0.16274221079E+02  0.16274221750E+02  0.46700000000E-02 0. -1.
         23    2    1    2    0    0  0.00000000000E+00  0.00000000000E+00  0.10007170269E+03  0.13262014561E+03  0.87027336756E+02 0.  0.
        -13    1    3    3    0    0  0.16648367759E+02  0.34860052537E+02  0.19518566322E+02  0.43282525524E+02  0.10570000000E+00 0. -1.
         13    1    3    3    0    0 -0.16648367759E+02 -0.34860052537E+02  0.80553136364E+02  0.89337620086E+02  0.10570000000E+00 0.  1.
<mgrwt>
<rscale>  0 0.87027337E+02</rscale>
<asrwt>0</asrwt>
<pdfrwt beam="2">  1        1 0.25037264E-02 0.87027337E+02</pdfrwt>
<pdfrwt beam="1">  1       -1 0.17899373E-01 0.87027337E+02</pdfrwt>
<totfact> 0.89111167E+04</totfact>
</mgrwt>
</event>
<event>
 5   1  0.1388354E+00  0.9359400E+02  0.7818608E-02  0.1294375E+00
         -1   -1    0    0    0  501 -0.00000000000E+00  0.00000000000E+00  0.31136447369E+02  0.31136447719E+02  0.46700000000E-02 0.  1.
          1   -1    0    0  501    0  0.00000000000E+00 -0.00000000000E+00 -0.70334265823E+02  0.70334265978E+02  0.46700000000E-02 0. -1.
         23    2    1    2    0    0  0.00000000000E+00  0.00000000000E+00 -0.39197818454E+02  0.10147071370E+03  0.93593999629E+02 0.  0.
        -13    1    3    3    0    0  0.24133304291E+01 -0.12826558339E+02 -0.68320980128E+02  0.69556540029E+02  0.10570000000E+00 0. -1.
         13    1    3    3    0    0 -0.24133304291E+01  0.12826558339E+02  0.29123161674E+02  0.31914173669E+02  0.10570000000E+00 0.  1.
<mgrwt>
<rscale>  0 0.93594000E+02</rscale>
<asrwt>0</asrwt>
<pdfrwt beam="2">  1        1 0.10820656E-01 0.93594000E+02</pdfrwt>
<pdfrwt beam="1">  1       -1 0.47902227E-02 0.93594000E+02</pdfrwt>
<totfact> 0.91848019E+04</totfact>
</mgrwt>
</event>
<event>
 5   1  0.1388354E+00  0.8964999E+02  0.7818608E-02  0.1303702E+00
         -1   -1    0    0    0  501 -0.00000000000E+00  0.00000000000E+00  0.14018923056E+02  0.14018923834E+02  0.46700000000E-02 0.  1.
          1   -1    0    0  501    0  0.00000000000E+00 -0.00000000000E+00 -0.14332628004E+03  0.14332628012E+03  0.46700000000E-02 0. -1.
         23    2    1    2    0    0  0.00000000000E+00  0.00000000000E+00 -0.12930735698E+03  0.15734520395E+03  0.89649989605E+02 0.  0.
        -13    1    3    3    0    0 -0.32963944037E+02 -0.97064761642E-01 -0.11796493580E+03  0.12248415522E+03  0.10570000000E+00 0. -1.
         13    1    3    3    0    0  0.32963944037E+02  0.97064761642E-01 -0.11342421182E+02  0.34861048734E+02  0.10570000000E+00 0.  1.
<mgrwt>
<rscale>  0 0.89649990E+02</rscale>
<asrwt>0</asrwt>
<pdfrwt beam="2">  1        1 0.22050196E-01 0.89649990E+02</pdfrwt>
<pdfrwt beam="1">  1       -1 0.21567576E-02 0.89649990E+02</pdfrwt>
<totfact> 0.11638296E+05</totfact>
</mgrwt>
</event>
<event>
 5   1  0.1388354E+00  0.9320040E+02  0.7818608E-02  0.1295281E+00
          1   -1    0    0  501    0  0.00000000000E+00  0.00000000000E+00  0.72449915642E+01  0.72449930693E+01  0.46700000000E-02 0. -1.
         -1   -1    0    0    0  501 -0.00000000000E+00 -0.00000000000E+00 -0.29973510238E+03  0.29973510242E+03  0.46700000000E-02 0.  1.
         23    2    1    2    0    0  0.00000000000E+00  0.00000000000E+00 -0.29249011082E+03  0.30698009549E+03  0.93200397528E+02 0.  0.
        -13    1    3    3    0    0 -0.41194248101E+02  0.18662695045E+02 -0.18326219676E+03  0.18875991682E+03  0.10570000000E+00 0.  1.
         13    1    3    3    0    0  0.41194248101E+02 -0.18662695045E+02 -0.10922791406E+03  0.11822017867E+03  0.10570000000E+00 0. -1.
<mgrwt>
<rscale>  0 0.93200398E+02</rscale>
<asrwt>0</asrwt>
<pdfrwt beam="1">  1        1 0.11146144E-02 0.93200398E+02</pdfrwt>
<pdfrwt beam="2">  1       -1 0.46113083E-01 0.93200398E+02</pdfrwt>
<totfact> 0.57221575E+04</totfact>
</mgrwt>
</event>
<event>
 5   1  0.1388354E+00  0.1101006E+03  0.7818608E-02  0.1260384E+00
          1   -1    0    0  501    0  0.00000000000E+00  0.00000000000E+00  0.13231470626E+03  0.13231470634E+03  0.46700000000E-02 0. -1.
         -1   -1    0    0    0  501 -0.00000000000E+00 -0.00000000000E+00 -0.22903984309E+02  0.22903984785E+02  0.46700000000E-02 0.  1.
         23    2    1    2    0    0  0.00000000000E+00  0.00000000000E+00  0.10941072195E+03  0.15521869113E+03  0.11010057219E+03 0.  0.
        -13    1    3    3    0    0 -0.39515475192E+02  0.93464101697E+01  0.10710888353E+03  0.11454759826E+03  0.10570000000E+00 0. -1.
         13    1    3    3    0    0  0.39515475192E+02 -0.93464101697E+01  0.23018384211E+01  0.40671092871E+02  0.10570000000E+00 0.  1.
<mgrwt>
<rscale>  0 0.11010057E+03</rscale>
<asrwt>0</asrwt>
<pdfrwt beam="1">  1        1 0.20356109E-01 0.11010057E+03</pdfrwt>
<pdfrwt beam="2">  1       -1 0.35236899E-02 0.11010057E+03</pdfrwt>
<totfact> 0.65399277E+04</totfact>
</mgrwt>
</event>
<event>
 5   1  0.1388354E+00  0.9224486E+02  0.7818608E-02  0.1297505E+00
         -1   -1    0    0    0  501 -0.00000000000E+00  0.00000000000E+00  0.28008488299E+02  0.28008488688E+02  0.46700000000E-02 0.  1.
          1   -1    0    0  501    0  0.00000000000E+00 -0.00000000000E+00 -0.75951206698E+02  0.75951206842E+02  0.46700000000E-02 0. -1.
         23    2    1    2    0    0  0.00000000000E+00  0.00000000000E+00 -0.47942718399E+02  0.10395969553E+03  0.92244859191E+02 0.  0.
        -13    1    3    3    0    0 -0.35555730844E+02 -0.14912964574E+02  0.45543803764E+01  0.38824735174E+02  0.10570000000E+00 0.  1.
         13    1    3    3    0    0  0.35555730844E+02  0.14912964574E+02 -0.52497098776E+02  0.65134960356E+02  0.10570000000E+00 0. -1.
<mgrwt>
<rscale>  0 0.92244859E+02</rscale>
<asrwt>0</asrwt>
<pdfrwt beam="2">  1        1 0.11684801E-01 0.92244859E+02</pdfrwt>
<pdfrwt beam="1">  1       -1 0.43089983E-02 0.92244859E+02</pdfrwt>
<totfact> 0.96770936E+04</totfact>
</mgrwt>
</event>
<event>
 5   1  0.1388354E+00  0.9105618E+02  0.7818608E-02  0.1300314E+00
         -1   -1    0    0    0  501 -0.00000000000E+00  0.00000000000E+00  0.13303748178E+02  0.13303748997E+02  0.46700000000E-02 0.  1.
          1   -1    0    0  501    0  0.00000000000E+00 -0.00000000000E+00 -0.15580622554E+03  0.15580622561E+03  0.46700000000E-02 0. -1.
         23    2    1    2    0    0  0.00000000000E+00  0.00000000000E+00 -0.14250247736E+03  0.16910997461E+03  0.91056177479E+02 0.  0.
        -13    1    3    3    0    0 -0.90091636843E+01 -0.22479804276E+02 -0.14285097951E+03  0.14488933760E+03  0.10570000000E+00 0. -1.
         13    1    3    3    0    0  0.90091636843E+01  0.22479804276E+02  0.34850215207E+00  0.24220637003E+02  0.10570000000E+00 0.  1.
<mgrwt>
<rscale>  0 0.91056177E+02</rscale>
<asrwt>0</asrwt>
<pdfrwt beam="2">  1        1 0.23970187E-01 0.91056177E+02</pdfrwt>
<pdfrwt beam="1">  1       -1 0.20467307E-02 0.91056177E+02</pdfrwt>
<totfact> 0.11332566E+05</totfact>
</mgrwt>
</event>
<event>
 5   1  0.1388354E+00  0.9081931E+02  0.7818608E-02  0.1300880E+00
          1   -1    0    0  501    0  0.00000000000E+00  0.00000000000E+00  0.90679779809E+02  0.90679779929E+02  0.46700000000E-02 0. -1.
         -1   -1    0    0    0  501 -0.00000000000E+00 -0.00000000000E+00 -0.22739761727E+02  0.22739762206E+02  0.46700000000E-02 0.  1.
         23    2    1    2    0    0  0.00000000000E+00  0.00000000000E+00  0.67940018082E+02  0.11341954214E+03  0.90819306764E+02 0.  0.
        -13    1    3    3    0    0 -0.73228649600E+01 -0.44719361275E+02  0.30311965343E+02  0.54518547665E+02  0.10570000000E+00 0.  1.
         13    1    3    3    0    0  0.73228649600E+01  0.44719361275E+02  0.37628052739E+02  0.58900994470E+02  0.10570000000E+00 0. -1.
<mgrwt>
<rscale>  0 0.90819307E+02</rscale>
<asrwt>0</asrwt>
<pdfrwt beam="1">  1        1 0.13950735E-01 0.90819307E+02</pdfrwt>
<pdfrwt beam="2">  1       -1 0.34984250E-02 0.90819307E+02</pdfrwt>
<totfact> 0.10389539E+05</totfact>
</mgrwt>
</event>
<event>
 5   1  0.1388354E+00  0.9252459E+02  0.7818608E-02  0.1296851E+00
          1   -1    0    0  501    0  0.00000000000E+00  0.00000000000E+00  0.34778739161E+03  0.34778739164E+03  0.46700000000E-02 0. -1.
         -1   -1    0    0    0  501 -0.00000000000E+00 -0.00000000000E+00 -0.61537581420E+01  0.61537599140E+01  0.46700000000E-02 0.  1.
         23    2    1    2    0    0  0.00000000000E+00  0.00000000000E+00  0.34163363347E+03  0.35394115155E+03  0.92524587260E+02 0.  0.
        -13    1    3    3    0    0 -0.41123743137E+02 -0.16619750644E+02  0.22110415954E+03  0.22550928783E+03  0.10570000000E+00 0. -1.
         13    1    3    3    0    0  0.41123743137E+02  0.16619750644E+02  0.12052947393E+03  0.12843186372E+03  0.10570000000E+00 0.  1.
<mgrwt>
<rscale>  0 0.92524587E+02</rscale>
<asrwt>0</asrwt>
<pdfrwt beam="1">  1        1 0.53505748E-01 0.92524587E+02</pdfrwt>
<pdfrwt beam="2">  1       -1 0.94673224E-03 0.92524587E+02</pdfrwt>
<totfact> 0.12663703E+05</totfact>
</mgrwt>
</event>
<event>
 5   1  0.1388354E+00  0.9211278E+02  0.7818608E-02  0.1297814E+00
          1   -1    0    0  501    0  0.00000000000E+00  0.00000000000E+00  0.39334581219E+02  0.39334581496E+02  0.46700000000E-02 0. -1.
         -1   -1    0    0    0  501 -0.00000000000E+00 -0.00000000000E+00 -0.53926874936E+02  0.53926875138E+02  0.46700000000E-02 0.  1.
         23    2    1    2    0    0  0.00000000000E+00  0.00000000000E+00 -0.14592293717E+02  0.93261456634E+02  0.92112780099E+02 0.  0.
        -13    1    3    3    0    0  0.20713402887E+02 -0.24461485870E+02  0.26188476280E+02  0.41391506526E+02  0.10570000000E+00 0. -1.
         13    1    3    3    0    0 -0.20713402887E+02  0.24461485870E+02 -0.40780769997E+02  0.51869950108E+02  0.10570000000E+00 0.  1.
<mgrwt>
<rscale>  0 0.92112780E+02</rscale>
<asrwt>0</asrwt>
<pdfrwt beam="1">  1        1 0.60514740E-02 0.92112780E+02</pdfrwt>
<pdfrwt beam="2">  1       -1 0.82964424E-02 0.92112780E+02</pdfrwt>
<totfact> 0.87854107E+04</totfact>
</mgrwt>
</event>
<event>
 5   1  0.1388354E+00  0.8672720E+02  0.7818608E-02  0.1310977E+00
          1   -1    0    0  501    0  0.00000000000E+00  0.00000000000E+00  0.19804909622E+03  0.19804909628E+03  0.46700000000E-02 0.  1.
         -1   -1    0    0    0  501 -0.00000000000E+00 -0.00000000000E+00 -0.94946228666E+01  0.94946240151E+01  0.46700000000E-02 0. -1.
         23    2    1    2    0    0  0.00000000000E+00  0.00000000000E+00  0.18855447335E+03  0.20754372029E+03  0.86727195333E+02 0.  0.
        -13    1    3    3    0    0 -0.86944876455E+01  0.42193956719E+02  0.10611415686E+03  0.11452575937E+03  0.10570000000E+00 0.  1.
         13    1    3    3    0    0  0.86944876455E+01 -0.42193956719E+02  0.82440316490E+02  0.93017960924E+02  0.10570000000E+00 0. -1.
<mgrwt>
<rscale>  0 0.86727195E+02</rscale>
<asrwt>0</asrwt>
<pdfrwt beam="1">  1        1 0.30469086E-01 0.86727195E+02</pdfrwt>
<pdfrwt beam="2">  1       -1 0.14607116E-02 0.86727195E+02</pdfrwt>
<totfact> 0.13509404E+05</totfact>
</mgrwt>
</event>
<event>
 5   1  0.1388354E+00  0.9265105E+02  0.7818608E-02  0.1296556E+00
         -1   -1    0    0    0  501 -0.00000000000E+00  0.00000000000E+00  0.32712029400E+02  0.32712029733E+02  0.46700000000E-02 0.  1.
          1   -1    0    0  501    0  0.00000000000E+00 -0.00000000000E+00 -0.65604435720E+02  0.65604435886E+02  0.46700000000E-02 0. -1.
         23    2    1    2    0    0  0.00000000000E+00  0.00000000000E+00 -0.32892406320E+02  0.98316465619E+02  0.92651049742E+02 0.  0.
        -13    1    3    3    0    0 -0.30347487328E+02 -0.26468766199E+02  0.78556475623E+01  0.41027892248E+02  0.10570000000E+00 0.  1.
         13    1    3    3    0    0  0.30347487328E+02  0.26468766199E+02 -0.40748053882E+02  0.57288573371E+02  0.10570000000E+00 0. -1.
<mgrwt>
<rscale>  0 0.92651050E+02</rscale>
<asrwt>0</asrwt>
<pdfrwt beam="2">  1        1 0.10092990E-01 0.92651050E+02</pdfrwt>
<pdfrwt beam="1">  1       -1 0.50326199E-02 0.92651050E+02</pdfrwt>
<totfact> 0.93443327E+04</totfact>
</mgrwt>
</event>
<event>
 5   1  0.1388354E+00  0.9800320E+02  0.7818608E-02  0.1284552E+00
          1   -1    0    0  501    0  0.00000000000E+00  0.00000000000E+00  0.24375794931E+03  0.24375794936E+03  0.46700000000E-02 0. -1.
         -1   -1    0    0    0  501 -0.00000000000E+00 -0.00000000000E+00 -0.98505778573E+01  0.98505789643E+01  0.46700000000E-02 0.  1.
         23    2    1    2    0    0  0.00000000000E+00  0.00000000000E+00  0.23390737146E+03  0.25360852832E+03  0.98003200031E+02 0.  0.
        -13    1    3    3    0    0 -0.19363888644E+02 -0.28374595186E+02  0.26527651213E+02  0.43402825792E+02  0.10570000000E+00 0.  1.
         13    1    3    3    0    0  0.19363888644E+02  0.28374595186E+02  0.20737972024E+03  0.21020570253E+03  0.10570000000E+00 0. -1.
<mgrwt>
<rscale>  0 0.98003200E+02</rscale>
<asrwt>0</asrwt>
<pdfrwt beam="1">  1        1 0.37501223E-01 0.98003200E+02</pdfrwt>
<pdfrwt beam="2">  1       -1 0.15154736E-02 0.98003200E+02</pdfrwt>
<totfact> 0.10137927E+05</totfact>
</mgrwt>
</event>
<event>
 5   1  0.1388354E+00  0.9363784E+02  0.7818608E-02  0.1294274E+00
          1   -1    0    0  501    0  0.00000000000E+00  0.00000000000E+00  0.29332725024E+02  0.29332725396E+02  0.46700000000E-02 0. -1.
         -1   -1    0    0    0  501 -0.00000000000E+00 -0.00000000000E+00 -0.74729211052E+02  0.74729211198E+02  0.46700000000E-02 0.  1.
         23    2    1    2    0    0  0.00000000000E+00  0.00000000000E+00 -0.45396486028E+02  0.10406193659E+03  0.93637843333E+02 0.  0.
        -13    1    3    3    0    0  0.12489001748E+02  0.19932836895E+02 -0.67685671508E+02  0.71656503204E+02  0.10570000000E+00 0.  1.
         13    1    3    3    0    0 -0.12489001748E+02 -0.19932836895E+02  0.22289185481E+02  0.32405433391E+02  0.10570000000E+00 0. -1.
<mgrwt>
<rscale>  0 0.93637843E+02</rscale>
<asrwt>0</asrwt>
<pdfrwt beam="1">  1        1 0.45127270E-02 0.93637843E+02</pdfrwt>
<pdfrwt beam="2">  1       -1 0.11496802E-01 0.93637843E+02</pdfrwt>
<totfact> 0.79981432E+04</totfact>
</mgrwt>
</event>
<event>
 5   1  0.1388354E+00  0.9165534E+02  0.7818608E-02  0.1298892E+00
          1   -1    0    0  501    0  0.00000000000E+00  0.00000000000E+00  0.56963658288E+02  0.56963658479E+02  0.46700000000E-02 0. -1.
         -1   -1    0    0    0  501 -0.00000000000E+00 -0.00000000000E+00 -0.36868683972E+02  0.36868684268E+02  0.46700000000E-02 0.  1.
         23    2    1    2    0    0  0.00000000000E+00  0.00000000000E+00  0.20094974315E+02  0.93832342748E+02  0.91655335648E+02 0.  0.
        -13    1    3    3    0    0 -0.14687305088E+02 -0.43394519592E+02  0.11242563433E+02  0.47172106868E+02  0.10570000000E+00 0. -1.
         13    1    3    3    0    0  0.14687305088E+02  0.43394519592E+02  0.88524108828E+01  0.46660235879E+02  0.10570000000E+00 0.  1.
<mgrwt>
<rscale>  0 0.91655336E+02</rscale>
<asrwt>0</asrwt>
<pdfrwt beam="1">  1        1 0.87636398E-02 0.91655336E+02</pdfrwt>
<pdfrwt beam="2">  1       -1 0.56721052E-02 0.91655336E+02</pdfrwt>
<totfact> 0.94235593E+04</totfact>
</mgrwt>
</event>
<event>
 5   1  0.1388354E+00  0.9324605E+02  0.7818608E-02  0.1295176E+00
         -1   -1    0    0    0  501 -0.00000000000E+00  0.00000000000E+00  0.19822391452E+02  0.19822392002E+02  0.46700000000E-02 0.  1.
          1   -1    0    0  501    0  0.00000000000E+00 -0.00000000000E+00 -0.10965913478E+03  0.10965913488E+03  0.46700000000E-02 0. -1.
         23    2    1    2    0    0  0.00000000000E+00  0.00000000000E+00 -0.89836743328E+02  0.12948152688E+03  0.93246047379E+02 0.  0.
        -13    1    3    3    0    0  0.32281580634E+02 -0.30710288370E+02 -0.25854906578E+02  0.51514169184E+02  0.10570000000E+00 0.  1.
         13    1    3    3    0    0 -0.32281580634E+02  0.30710288370E+02 -0.63981836750E+02  0.77967357698E+02  0.10570000000E+00 0. -1.
<mgrwt>
<rscale>  0 0.93246047E+02</rscale>
<asrwt>0</asrwt>
<pdfrwt beam="2">  1        1 0.16870636E-01 0.93246047E+02</pdfrwt>
<pdfrwt beam="1">  1       -1 0.30495988E-02 0.93246047E+02</pdfrwt>
<totfact> 0.99790374E+04</totfact>
</mgrwt>
</event>
<event>
 5   1  0.1388354E+00  0.9050637E+02  0.7818608E-02  0.1301630E+00
          1   -1    0    0  501    0  0.00000000000E+00  0.00000000000E+00  0.24096087816E+02  0.24096088269E+02  0.46700000000E-02 0. -1.
         -1   -1    0    0    0  501 -0.00000000000E+00 -0.00000000000E+00 -0.84986855755E+02  0.84986855883E+02  0.46700000000E-02 0.  1.
         23    2    1    2    0    0  0.00000000000E+00  0.00000000000E+00 -0.60890767939E+02  0.10908294415E+03  0.90506370410E+02 0.  0.
        -13    1    3    3    0    0 -0.35170246252E+02  0.25947813496E+02 -0.44583573106E+02  0.62433495898E+02  0.10570000000E+00 0.  1.
         13    1    3    3    0    0  0.35170246252E+02 -0.25947813496E+02 -0.16307194833E+02  0.46649448254E+02  0.10570000000E+00 0. -1.
<mgrwt>
<rscale>  0 0.90506370E+02</rscale>
<asrwt>0</asrwt>
<pdfrwt beam="1">  1        1 0.37070905E-02 0.90506370E+02</pdfrwt>
<pdfrwt beam="2">  1       -1 0.13074901E-01 0.90506370E+02</pdfrwt>
<totfact> 0.85379081E+04</totfact>
</mgrwt>
</event>
<event>
 5   1  0.1388354E+00  0.9083898E+02  0.7818608E-02  0.1300833E+00
          1   -1    0    0  501    0  0.00000000000E+00  0.00000000000E+00  0.69174188913E+02  0.69174189071E+02  0.46700000000E-02 0. -1.
         -1   -1    0    0    0  501 -0.00000000000E+00 -0.00000000000E+00 -0.29822253362E+02  0.29822253728E+02  0.46700000000E-02 0.  1.
         23    2    1    2    0    0  0.00000000000E+00  0.00000000000E+00  0.39351935551E+02  0.98996442799E+02  0.90838983125E+02 0.  0.
        -13    1    3    3    0    0  0.16578378857E+02 -0.80739131729E+01 -0.25559167061E+02  0.31516867116E+02  0.10570000000E+00 0.  1.
         13    1    3    3    0    0 -0.16578378857E+02  0.80739131729E+01  0.64911102612E+02  0.67479575683E+02  0.10570000000E+00 0. -1.
<mgrwt>
<rscale>  0 0.90838983E+02</rscale>
<asrwt>0</asrwt>
<pdfrwt beam="1">  1        1 0.10642183E-01 0.90838983E+02</pdfrwt>
<pdfrwt beam="2">  1       -1 0.45880390E-02 0.90838983E+02</pdfrwt>
<totfact> 0.99500101E+04</totfact>
</mgrwt>
</event>
<event>
 5   1  0.1388354E+00  0.9135242E+02  0.7818608E-02  0.1299609E+00
         -1   -1    0    0    0  501 -0.00000000000E+00  0.00000000000E+00  0.42909004556E+02  0.42909004810E+02  0.46700000000E-02 0.  1.
          1   -1    0    0  501    0  0.00000000000E+00 -0.00000000000E+00 -0.48621870658E+02  0.48621870883E+02  0.46700000000E-02 0. -1.
         23    2    1    2    0    0  0.00000000000E+00  0.00000000000E+00 -0.57128661027E+01  0.91530875693E+02  0.91352418501E+02 0.  0.
        -13    1    3    3    0    0 -0.49044021124E+01 -0.19377718470E+02  0.38293930089E+02  0.43197052993E+02  0.10570000000E+00 0.  1.
         13    1    3    3    0    0  0.49044021124E+01  0.19377718470E+02 -0.44006796192E+02  0.48333822699E+02  0.10570000000E+00 0. -1.
<mgrwt>
<rscale>  0 0.91352419E+02</rscale>
<asrwt>0</asrwt>
<pdfrwt beam="2">  1        1 0.74802878E-02 0.91352419E+02</pdfrwt>
<pdfrwt beam="1">  1       -1 0.66013854E-02 0.91352419E+02</pdfrwt>
<totfact> 0.92869423E+04</totfact>
</mgrwt>
</event>
<event>
 5   1  0.1388354E+00  0.8385600E+02  0.7818608E-02  0.1318452E+00
          1   -1    0    0  501    0  0.00000000000E+00  0.00000000000E+00  0.13735974513E+02  0.13735975307E+02  0.46700000000E-02 0.  1.
         -1   -1    0    0    0  501 -0.00000000000E+00 -0.00000000000E+00 -0.12798197915E+03  0.12798197923E+03  0.46700000000E-02 0. -1.
         23    2    1    2    0    0  0.00000000000E+00  0.00000000000E+00 -0.11424600463E+03  0.14171795454E+03  0.83856001954E+02 0.  0.
        -13    1    3    3    0    0 -0.35620532835E+01 -0.37493472858E+02 -0.25983696584E+02  0.45756009345E+02  0.10570000000E+00 0.  1.
         13    1    3    3    0    0  0.35620532835E+01  0.37493472858E+02 -0.88262308049E+02  0.95961945192E+02  0.10570000000E+00 0. -1.
<mgrwt>
<rscale>  0 0.83856002E+02</rscale>
<asrwt>0</asrwt>
<pdfrwt beam="1">  1        1 0.21132270E-02 0.83856002E+02</pdfrwt>
<pdfrwt beam="2">  1       -1 0.19689535E-01 0.83856002E+02</pdfrwt>
<totfact> 0.96172665E+04</totfact>
</mgrwt>
</event>
<event>
 5   1  0.1388354E+00  0.9198516E+02  0.7818608E-02  0.1298114E+00
          1   -1    0    0  501    0  0.00000000000E+00  0.00000000000E+00  0.26485346857E+02  0.26485347269E+02  0.46700000000E-02 0. -1.
         -1   -1    0    0    0  501 -0.00000000000E+00 -0.00000000000E+00 -0.79867465021E+02  0.79867465157E+02  0.46700000000E-02 0.  1.
         23    2    1    2    0    0  0.00000000000E+00  0.00000000000E+00 -0.53382118164E+02  0.10635281243E+03  0.91985162778E+02 0.  0.
        -13    1    3    3    0    0 -0.15432329603E+02  0.28585837423E+02  0.10951923113E+02  0.34282104523E+02  0.10570000000E+00 0. -1.
         13    1    3    3    0    0  0.15432329603E+02 -0.28585837423E+02 -0.64334041277E+02  0.72070707903E+02  0.10570000000E+00 0.  1.
<mgrwt>
<rscale>  0 0.91985163E+02</rscale>
<asrwt>0</asrwt>
<pdfrwt beam="1">  1        1 0.40746688E-02 0.91985163E+02</pdfrwt>
<pdfrwt beam="2">  1       -1 0.12287302E-01 0.91985163E+02</pdfrwt>
<totfact> 0.82780621E+04</totfact>
</mgrwt>
</event>
<event>
 5   1  0.1388354E+00  0.8727701E+02  0.7818608E-02  0.1309583E+00
         -1   -1    0    0    0  501 -0.00000000000E+00  0.00000000000E+00  0.17309926283E+03  0.17309926289E+03  0.46700000000E-02 0.  1.
          1   -1    0    0  501    0  0.00000000000E+00 -0.00000000000E+00 -0.11001312969E+02  0.11001313960E+02  0.46700000000E-02 0. -1.
         23    2    1    2    0    0  0.00000000000E+00  0.00000000000E+00  0.16209794986E+03  0.18410057685E+03  0.87277013288E+02 0.  0.
        -13    1    3    3    0    0 -0.96554082636E+01 -0.25787285051E+02  0.15246011758E+03  0.15492678789E+03  0.10570000000E+00 0.  1.
         13    1    3    3    0    0  0.96554082636E+01  0.25787285051E+02  0.96378322762E+01  0.29173788964E+02  0.10570000000E+00 0. -1.
<mgrwt>
<rscale>  0 0.87277013E+02</rscale>
<asrwt>0</asrwt>
<pdfrwt beam="2">  1        1 0.16925098E-02 0.87277013E+02</pdfrwt>
<pdfrwt beam="1">  1       -1 0.26630655E-01 0.87277013E+02</pdfrwt>
<totfact> 0.80878986E+04</totfact>
</mgrwt>
</event>
<event>
 5   1  0.1388354E+00  0.9013321E+02  0.7818608E-02  0.1302529E+00
         -1   -1    0    0    0  501 -0.00000000000E+00  0.00000000000E+00  0.22498683220E+02  0.22498683704E+02  0.46700000000E-02 0.  1.
          1   -1    0    0  501    0  0.00000000000E+00 -0.00000000000E+00 -0.90271893561E+02  0.90271893682E+02  0.46700000000E-02 0. -1.
         23    2    1    2    0    0  0.00000000000E+00  0.00000000000E+00 -0.67773210342E+02  0.11277057739E+03  0.90133207444E+02 0.  0.
        -13    1    3    3    0    0  0.23081705820E+02  0.13906525105E+02  0.11308157849E+02  0.29224000248E+02  0.10570000000E+00 0.  1.
         13    1    3    3    0    0 -0.23081705820E+02 -0.13906525105E+02 -0.79081368191E+02  0.83546577138E+02  0.10570000000E+00 0. -1.
<mgrwt>
<rscale>  0 0.90133207E+02</rscale>
<asrwt>0</asrwt>
<pdfrwt beam="2">  1        1 0.13887984E-01 0.90133207E+02</pdfrwt>
<pdfrwt beam="1">  1       -1 0.34613360E-02 0.90133207E+02</pdfrwt>
<totfact> 0.10599030E+05</totfact>
</mgrwt>
</event>
<event>
 5   1  0.1388354E+00  0.6976649E+02  0.7818608E-02  0.1360889E+00
          1   -1    0    0  501    0  0.00000000000E+00  0.00000000000E+00  0.29740130973E+03  0.29740130977E+03  0.46700000000E-02 0. -1.
         -1   -1    0    0    0  501 -0.00000000000E+00 -0.00000000000E+00 -0.40915766106E+01  0.40915792757E+01  0.46700000000E-02 0.  1.
         23    2    1    2    0    0  0.00000000000E+00  0.00000000000E+00  0.29330973312E+03  0.30149288904E+03  0.69766486227E+02 0.  0.
        -13    1    3    3    0    0 -0.32604067952E+02 -0.50420419174E+01  0.19561948402E+03  0.19838205850E+03  0.10570000000E+00 0. -1.
         13    1    3    3    0    0  0.32604067952E+02  0.50420419174E+01  0.97690249100E+02  0.10311083054E+03  0.10570000000E+00 0.  1.
<mgrwt>
<rscale>  0 0.69766486E+02</rscale>
<asrwt>0</asrwt>
<pdfrwt beam="1">  1        1 0.45754060E-01 0.69766486E+02</pdfrwt>
<pdfrwt beam="2">  1       -1 0.62947336E-03 0.69766486E+02</pdfrwt>
<totfact> 0.25837815E+05</totfact>
</mgrwt>
</event>
<event>
 5   1  0.1388354E+00  0.8852965E+02  0.7818608E-02  0.1306452E+00
         -1   -1    0    0    0  501 -0.00000000000E+00  0.00000000000E+00  0.22189546051E+02  0.22189546543E+02  0.46700000000E-02 0.  1.
          1   -1    0    0  501    0  0.00000000000E+00 -0.00000000000E+00 -0.88301703728E+02  0.88301703851E+02  0.46700000000E-02 0. -1.
         23    2    1    2    0    0  0.00000000000E+00  0.00000000000E+00 -0.66112157676E+02  0.11049125039E+03  0.88529650519E+02 0.  0.
        -13    1    3    3    0    0  0.24877549441E+02  0.64010053960E+01 -0.78047217790E+02  0.82165958362E+02  0.10570000000E+00 0. -1.
         13    1    3    3    0    0 -0.24877549441E+02 -0.64010053960E+01  0.11935060114E+02  0.28325292032E+02  0.10570000000E+00 0.  1.
<mgrwt>
<rscale>  0 0.88529651E+02</rscale>
<asrwt>0</asrwt>
<pdfrwt beam="2">  1        1 0.13584877E-01 0.88529651E+02</pdfrwt>
<pdfrwt beam="1">  1       -1 0.34137764E-02 0.88529651E+02</pdfrwt>
<totfact> 0.11091190E+05</totfact>
</mgrwt>
</event>
<event>
 5   1  0.1388354E+00  0.9191038E+02  0.7818608E-02  0.1298290E+00
         -1   -1    0    0    0  501 -0.00000000000E+00  0.00000000000E+00  0.26351372346E+02  0.26351372760E+02  0.46700000000E-02 0.  1.
          1   -1    0    0  501    0  0.00000000000E+00 -0.00000000000E+00 -0.80143058431E+02  0.80143058567E+02  0.46700000000E-02 0. -1.
         23    2    1    2    0    0  0.00000000000E+00  0.00000000000E+00 -0.53791686085E+02  0.10649443133E+03  0.91910382502E+02 0.  0.
        -13    1    3    3    0    0 -0.21058438588E+02  0.40831668523E+02 -0.28157386348E+02  0.53884437165E+02  0.10570000000E+00 0.  1.
         13    1    3    3    0    0  0.21058438588E+02 -0.40831668523E+02 -0.25634299737E+02  0.52609994162E+02  0.10570000000E+00 0. -1.
<mgrwt>
<rscale>  0 0.91910383E+02</rscale>
<asrwt>0</asrwt>
<pdfrwt beam="2">  1        1 0.12329701E-01 0.91910383E+02</pdfrwt>
<pdfrwt beam="1">  1       -1 0.40540574E-02 0.91910383E+02</pdfrwt>
<totfact> 0.98577204E+04</totfact>
</mgrwt>
</event>
<event>
 5   1  0.1388354E+00  0.9187419E+02  0.7818608E-02  0.1298376E+00
         -1   -1    0    0    0  501 -0.00000000000E+00  0.00000000000E+00  0.21399070241E+02  0.21399070751E+02  0.46700000000E-02 0.  1.
          1   -1    0    0  501    0  0.00000000000E+00 -0.00000000000E+00 -0.98612531601E+02  0.98612531711E+02  0.46700000000E-02 0. -1.
         23    2    1    2    0    0  0.00000000000E+00  0.00000000000E+00 -0.77213461359E+02  0.12001160246E+03  0.91874186312E+02 0.  0.
        -13    1    3    3    0    0  0.40736430992E+02  0.67153224260E+01 -0.12297565378E+02  0.43078923524E+02  0.10570000000E+00 0.  1.
         13    1    3    3    0    0 -0.40736430992E+02 -0.67153224260E+01 -0.64915895981E+02  0.76932678939E+02  0.10570000000E+00 0. -1.
<mgrwt>
<rscale>  0 0.91874186E+02</rscale>
<asrwt>0</asrwt>
<pdfrwt beam="2">  1        1 0.15171159E-01 0.91874186E+02</pdfrwt>
<pdfrwt beam="1">  1       -1 0.32921648E-02 0.91874186E+02</pdfrwt>
<totfact> 0.10206372E+05</totfact>
</mgrwt>
</event>
<event>
 5   1  0.1388354E+00  0.9295847E+02  0.7818608E-02  0.1295841E+00
          1   -1    0    0  501    0  0.00000000000E+00  0.00000000000E+00  0.13958802921E+02  0.13958803702E+02  0.46700000000E-02 0. -1.
         -1   -1    0    0    0  501 -0.00000000000E+00 -0.00000000000E+00 -0.15476394579E+03  0.15476394586E+03  0.46700000000E-02 0.  1.
         23    2    1    2    0    0  0.00000000000E+00  0.00000000000E+00 -0.14080514287E+03  0.16872274956E+03  0.92958474393E+02 0.  0.
        -13    1    3    3    0    0 -0.59586508357E+01 -0.44398310279E+02 -0.92896750365E+02  0.10313356814E+03  0.10570000000E+00 0.  1.
         13    1    3    3    0    0  0.59586508357E+01  0.44398310279E+02 -0.47908392500E+02  0.65589181424E+02  0.10570000000E+00 0. -1.
<mgrwt>
<rscale>  0 0.92958474E+02</rscale>
<asrwt>0</asrwt>
<pdfrwt beam="1">  1        1 0.21475083E-02 0.92958474E+02</pdfrwt>
<pdfrwt beam="2">  1       -1 0.23809837E-01 0.92958474E+02</pdfrwt>
<totfact> 0.70594214E+04</totfact>
</mgrwt>
</event>
<event>
 5   1  0.1388354E+00  0.9299241E+02  0.7818608E-02  0.1295763E+00
          1   -1    0    0  501    0  0.00000000000E+00  0.00000000000E+00  0.51416841293E+02  0.51416841505E+02  0.46700000000E-02 0. -1.
         -1   -1    0    0    0  501 -0.00000000000E+00 -0.00000000000E+00 -0.42046478119E+02  0.42046478378E+02  0.46700000000E-02 0.  1.
         23    2    1    2    0    0  0.00000000000E+00  0.00000000000E+00  0.93703631743E+01  0.93463319883E+02  0.92992410753E+02 0.  0.
        -13    1    3    3    0    0 -0.59398915930E+01 -0.19799964203E+02 -0.37173832222E+02  0.42534995817E+02  0.10570000000E+00 0.  1.
         13    1    3    3    0    0  0.59398915930E+01  0.19799964203E+02  0.46544195396E+02  0.50928324066E+02  0.10570000000E+00 0. -1.
<mgrwt>
<rscale>  0 0.92992411E+02</rscale>
<asrwt>0</asrwt>
<pdfrwt beam="1">  1        1 0.79102833E-02 0.92992411E+02</pdfrwt>
<pdfrwt beam="2">  1       -1 0.64686890E-02 0.92992411E+02</pdfrwt>
<totfact> 0.89102698E+04</totfact>
</mgrwt>
</event>
<event>
 5   1  0.1388354E+00  0.9222717E+02  0.7818608E-02  0.1297546E+00
         -1   -1    0    0    0  501 -0.00000000000E+00  0.00000000000E+00  0.85293873906E+01  0.85293886691E+01  0.46700000000E-02 0.  1.
          1   -1    0    0  501    0  0.00000000000E+00 -0.00000000000E+00 -0.24931010449E+03  0.24931010453E+03  0.46700000000E-02 0. -1.
         23    2    1    2    0    0  0.00000000000E+00  0.00000000000E+00 -0.24078071710E+03  0.25783949320E+03  0.92227168059E+02 0.  0.
        -13    1    3    3    0    0 -0.39574531113E+02  0.95795725396E+01 -0.59875255088E+02  0.72408349430E+02  0.10570000000E+00 0.  1.
         13    1    3    3    0    0  0.39574531113E+02 -0.95795725396E+01 -0.18090546201E+03  0.18543114377E+03  0.10570000000E+00 0. -1.
<mgrwt>
<rscale>  0 0.92227168E+02</rscale>
<asrwt>0</asrwt>
<pdfrwt beam="2">  1        1 0.38355395E-01 0.92227168E+02</pdfrwt>
<pdfrwt beam="1">  1       -1 0.13122137E-02 0.92227168E+02</pdfrwt>
<totfact> 0.11987367E+05</totfact>
</mgrwt>
</event>
<event>
 5   1  0.1388354E+00  0.9312869E+02  0.7818608E-02  0.1295447E+00
          1   -1    0    0  501    0  0.00000000000E+00  0.00000000000E+00  0.21957500387E+02  0.21957500884E+02  0.46700000000E-02 0. -1.
         -1   -1    0    0    0  501 -0.00000000000E+00 -0.00000000000E+00 -0.98747031343E+02  0.98747031453E+02  0.46700000000E-02 0.  1.
         23    2    1    2    0    0  0.00000000000E+00  0.00000000000E+00 -0.76789530956E+02  0.12070453234E+03  0.93128685496E+02 0.  0.
        -13    1    3    3    0    0  0.15702125923E+02 -0.17328465438E+02 -0.90584421579E+02  0.93554161202E+02  0.10570000000E+00 0.  1.
         13    1    3    3    0    0 -0.15702125923E+02  0.17328465438E+02  0.13794890623E+02  0.27150371135E+02  0.10570000000E+00 0. -1.
<mgrwt>
<rscale>  0 0.93128685E+02</rscale>
<asrwt>0</asrwt>
<pdfrwt beam="1">  1        1 0.33780771E-02 0.93128685E+02</pdfrwt>
<pdfrwt beam="2">  1       -1 0.15191851E-01 0.93128685E+02</pdfrwt>
<totfact> 0.77227225E+04</totfact>
</mgrwt>
</event>
<event>
 5   1  0.1388354E+00  0.9525456E+02  0.7818608E-02  0.1290604E+00
         -1   -1    0    0    0  501 -0.00000000000E+00  0.00000000000E+00  0.10758967633E+03  0.10758967644E+03  0.46700000000E-02 0.  1.
          1   -1    0    0  501    0  0.00000000000E+00 -0.00000000000E+00 -0.21083416607E+02  0.21083417124E+02  0.46700000000E-02 0. -1.
         23    2    1    2    0    0  0.00000000000E+00  0.00000000000E+00  0.86506259727E+02  0.12867309356E+03  0.95254564374E+02 0.  0.
        -13    1    3    3    0    0 -0.12986309928E+02  0.16611502822E+02  0.10094117967E+03  0.10311992629E+03  0.10570000000E+00 0.  1.
         13    1    3    3    0    0  0.12986309928E+02 -0.16611502822E+02 -0.14434919942E+02  0.25553167274E+02  0.10570000000E+00 0. -1.
<mgrwt>
<rscale>  0 0.95254564E+02</rscale>
<asrwt>0</asrwt>
<pdfrwt beam="2">  1        1 0.32436026E-02 0.95254564E+02</pdfrwt>
<pdfrwt beam="1">  1       -1 0.16552258E-01 0.95254564E+02</pdfrwt>
<totfact> 0.71673646E+04</totfact>
</mgrwt>
</event>
<event>
 5   1  0.1388354E+00  0.9374209E+02  0.7818608E-02  0.1294035E+00
         -1   -1    0    0    0  501 -0.00000000000E+00  0.00000000000E+00  0.70576330481E+01  0.70576345932E+01  0.46700000000E-02 0.  1.
          1   -1    0    0  501    0  0.00000000000E+00 -0.00000000000E+00 -0.31127925687E+03  0.31127925691E+03  0.46700000000E-02 0. -1.
         23    2    1    2    0    0  0.00000000000E+00  0.00000000000E+00 -0.30422162382E+03  0.31833689150E+03  0.93742093469E+02 0.  0.
        -13    1    3    3    0    0 -0.36254109397E+02  0.29632112581E+02 -0.14493810151E+03  0.15231377806E+03  0.10570000000E+00 0. -1.
         13    1    3    3    0    0  0.36254109397E+02 -0.29632112581E+02 -0.15928352231E+03  0.16602311344E+03  0.10570000000E+00 0.  1.
<mgrwt>
<rscale>  0 0.93742093E+02</rscale>
<asrwt>0</asrwt>
<pdfrwt beam="2">  1        1 0.47889106E-01 0.93742093E+02</pdfrwt>
<pdfrwt beam="1">  1       -1 0.10857901E-02 0.93742093E+02</pdfrwt>
<totfact> 0.11981330E+05</totfact>
</mgrwt>
</event>
<event>
 5   1  0.1388354E+00  0.9973433E+02  0.7818608E-02  0.1280856E+00
         -1   -1    0    0    0  501 -0.00000000000E+00  0.00000000000E+00  0.85534623281E+01  0.85534636029E+01  0.46700000000E-02 0.  1.
          1   -1    0    0  501    0  0.00000000000E+00 -0.00000000000E+00 -0.29072835339E+03  0.29072835343E+03  0.46700000000E-02 0. -1.
         23    2    1    2    0    0  0.00000000000E+00  0.00000000000E+00 -0.28217489106E+03  0.29928181703E+03  0.99734331398E+02 0.  0.
        -13    1    3    3    0    0  0.43104812093E+02 -0.20234719554E+02 -0.18552086658E+03  0.19153451859E+03  0.10570000000E+00 0.  1.
         13    1    3    3    0    0 -0.43104812093E+02  0.20234719554E+02 -0.96654024480E+02  0.10774729844E+03  0.10570000000E+00 0. -1.
<mgrwt>
<rscale>  0 0.99734331E+02</rscale>
<asrwt>0</asrwt>
<pdfrwt beam="2">  1        1 0.44727431E-01 0.99734331E+02</pdfrwt>
<pdfrwt beam="1">  1       -1 0.13159176E-02 0.99734331E+02</pdfrwt>
<totfact> 0.10014453E+05</totfact>
</mgrwt>
</event>
<event>
 5   1  0.1388354E+00  0.1018149E+03  0.7818608E-02  0.1276525E+00
         -1   -1    0    0    0  501 -0.00000000000E+00  0.00000000000E+00  0.13673408567E+02  0.13673409364E+02  0.46700000000E-02 0.  1.
          1   -1    0    0  501    0  0.00000000000E+00 -0.00000000000E+00 -0.18953348375E+03  0.18953348381E+03  0.46700000000E-02 0. -1.
         23    2    1    2    0    0  0.00000000000E+00  0.00000000000E+00 -0.17586007518E+03  0.20320689317E+03  0.10181490750E+03 0.  0.
        -13    1    3    3    0    0  0.36522089439E+02 -0.25199536081E+02 -0.38126655124E+02  0.58502415669E+02  0.10570000000E+00 0.  1.
         13    1    3    3    0    0 -0.36522089439E+02  0.25199536081E+02 -0.13773342006E+03  0.14470447750E+03  0.10570000000E+00 0. -1.
<mgrwt>
<rscale>  0 0.10181491E+03</rscale>
<asrwt>0</asrwt>
<pdfrwt beam="2">  1        1 0.29158996E-01 0.10181491E+03</pdfrwt>
<pdfrwt beam="1">  1       -1 0.21036015E-02 0.10181491E+03</pdfrwt>
<totfact> 0.86962476E+04</totfact>
</mgrwt>
</event>
<event>
 5   1  0.1388354E+00  0.9551677E+02  0.7818608E-02  0.1290016E+00
          1   -1    0    0  501    0  0.00000000000E+00  0.00000000000E+00  0.72666230503E+02  0.72666230653E+02  0.46700000000E-02 0. -1.
         -1   -1    0    0    0  501 -0.00000000000E+00 -0.00000000000E+00 -0.31388216111E+02  0.31388216458E+02  0.46700000000E-02 0.  1.
         23    2    1    2    0    0  0.00000000000E+00  0.00000000000E+00  0.41278014392E+02  0.10405444711E+03  0.95516770734E+02 0.  0.
        -13    1    3    3    0    0 -0.10022622200E+02  0.28782170027E+02 -0.19416948792E+02  0.36137173936E+02  0.10570000000E+00 0.  1.
         13    1    3    3    0    0  0.10022622200E+02 -0.28782170027E+02  0.60694963184E+02  0.67917273175E+02  0.10570000000E+00 0. -1.
<mgrwt>
<rscale>  0 0.95516771E+02</rscale>
<asrwt>0</asrwt>
<pdfrwt beam="1">  1        1 0.11179420E-01 0.95516771E+02</pdfrwt>
<pdfrwt beam="2">  1       -1 0.48289563E-02 0.95516771E+02</pdfrwt>
<totfact> 0.87263214E+04</totfact>
</mgrwt>
</event>
<event>
 5   1  0.1388354E+00  0.9529693E+02  0.7818608E-02  0.1290509E+00
          1   -1    0    0  501    0  0.00000000000E+00  0.00000000000E+00  0.24891730954E+02  0.24891731392E+02  0.46700000000E-02 0. -1.
         -1   -1    0    0    0  501 -0.00000000000E+00 -0.00000000000E+00 -0.91210053348E+02  0.91210053468E+02  0.46700000000E-02 0.  1.
         23    2    1    2    0    0  0.00000000000E+00  0.00000000000E+00 -0.66318322394E+02  0.11610178486E+03  0.95296928401E+02 0.  0.
        -13    1    3    3    0    0  0.15111475730E+02  0.97713573225E+01 -0.86910639815E+02  0.88754192060E+02  0.10570000000E+00 0.  1.
         13    1    3    3    0    0 -0.15111475730E+02 -0.97713573225E+01  0.20592317422E+02  0.27347592800E+02  0.10570000000E+00 0. -1.
<mgrwt>
<rscale>  0 0.95296928E+02</rscale>
<asrwt>0</asrwt>
<pdfrwt beam="1">  1        1 0.38294971E-02 0.95296928E+02</pdfrwt>
<pdfrwt beam="2">  1       -1 0.14032316E-01 0.95296928E+02</pdfrwt>
<totfact> 0.73851062E+04</totfact>
</mgrwt>
</event>
<event>
 5   1  0.1388354E+00  0.8935322E+02  0.7818608E-02  0.1304426E+00
          1   -1    0    0  501    0  0.00000000000E+00  0.00000000000E+00  0.19801255528E+02  0.19801256079E+02  0.46700000000E-02 0. -1.
         -1   -1    0    0    0  501 -0.00000000000E+00 -0.00000000000E+00 -0.10080166254E+03  0.10080166265E+03  0.46700000000E-02 0.  1.
         23    2    1    2    0    0  0.00000000000E+00  0.00000000000E+00 -0.81000407010E+02  0.12060291873E+03  0.89353220811E+02 0.  0.
        -13    1    3    3    0    0  0.22850145930E+02  0.27824613149E+02 -0.47985730397E+01  0.36323212159E+02  0.10570000000E+00 0. -1.
         13    1    3    3    0    0 -0.22850145930E+02 -0.27824613149E+02 -0.76201833971E+02  0.84279706566E+02  0.10570000000E+00 0.  1.
<mgrwt>
<rscale>  0 0.89353221E+02</rscale>
<asrwt>0</asrwt>
<pdfrwt beam="1">  1        1 0.30463471E-02 0.89353221E+02</pdfrwt>
<pdfrwt beam="2">  1       -1 0.15507948E-01 0.89353221E+02</pdfrwt>
<totfact> 0.85584282E+04</totfact>
</mgrwt>
</event>
<event>
 5   1  0.1388354E+00  0.9229603E+02  0.7818608E-02  0.1297385E+00
          1   -1    0    0  501    0  0.00000000000E+00  0.00000000000E+00  0.19029472958E+03  0.19029472964E+03  0.46700000000E-02 0. -1.
         -1   -1    0    0    0  501 -0.00000000000E+00 -0.00000000000E+00 -0.11191266209E+02  0.11191267184E+02  0.46700000000E-02 0.  1.
         23    2    1    2    0    0  0.00000000000E+00  0.00000000000E+00  0.17910346337E+03  0.20148599682E+03  0.92296025503E+02 0.  0.
        -13    1    3    3    0    0 -0.26711415851E+01 -0.38584806837E+02  0.34596930816E+02  0.51892977467E+02  0.10570000000E+00 0.  1.
         13    1    3    3    0    0  0.26711415851E+01  0.38584806837E+02  0.14450653256E+03  0.14959301936E+03  0.10570000000E+00 0. -1.
<mgrwt>
<rscale>  0 0.92296026E+02</rscale>
<asrwt>0</asrwt>
<pdfrwt beam="1">  1        1 0.29276110E-01 0.92296026E+02</pdfrwt>
<pdfrwt beam="2">  1       -1 0.17217335E-02 0.92296026E+02</pdfrwt>
<totfact> 0.11348853E+05</totfact>
</mgrwt>
</event>
<event>
 5   1  0.1388354E+00  0.9552225E+02  0.7818608E-02  0.1290004E+00
          1   -1    0    0  501    0  0.00000000000E+00  0.00000000000E+00  0.65147701629E+02  0.65147701796E+02  0.46700000000E-02 0. -1.
         -1   -1    0    0    0  501 -0.00000000000E+00 -0.00000000000E+00 -0.35014663983E+02  0.35014664294E+02  0.46700000000E-02 0.  1.
         23    2    1    2    0    0  0.00000000000E+00  0.00000000000E+00  0.30133037646E+02  0.10016236609E+03  0.95522246744E+02 0.  0.
        -13    1    3    3    0    0  0.19907950479E+02 -0.14123525122E+02  0.58113268785E+02  0.63031449575E+02  0.10570000000E+00 0. -1.
         13    1    3    3    0    0 -0.19907950479E+02  0.14123525122E+02 -0.27980231140E+02  0.37130916515E+02  0.10570000000E+00 0.  1.
<mgrwt>
<rscale>  0 0.95522247E+02</rscale>
<asrwt>0</asrwt>
<pdfrwt beam="1">  1        1 0.10022723E-01 0.95522247E+02</pdfrwt>
<pdfrwt beam="2">  1       -1 0.53868715E-02 0.95522247E+02</pdfrwt>
<totfact> 0.85749590E+04</totfact>
</mgrwt>
</event>
<event>
 5   1  0.1388354E+00  0.9010850E+02  0.7818608E-02  0.1302589E+00
          1   -1    0    0  501    0  0.00000000000E+00  0.00000000000E+00  0.14146283037E+02  0.14146283808E+02  0.46700000000E-02 0. -1.
         -1   -1    0    0    0  501 -0.00000000000E+00 -0.00000000000E+00 -0.14349249024E+03  0.14349249032E+03  0.46700000000E-02 0.  1.
         23    2    1    2    0    0  0.00000000000E+00  0.00000000000E+00 -0.12934620720E+03  0.15763877413E+03  0.90108500096E+02 0.  0.
        -13    1    3    3    0    0 -0.11353728579E+02  0.39789874331E+02 -0.95856862617E+02  0.10440637210E+03  0.10570000000E+00 0.  1.
         13    1    3    3    0    0  0.11353728579E+02 -0.39789874331E+02 -0.33489344587E+02  0.53232402025E+02  0.10570000000E+00 0. -1.
<mgrwt>
<rscale>  0 0.90108500E+02</rscale>
<asrwt>0</asrwt>
<pdfrwt beam="1">  1        1 0.21763514E-02 0.90108500E+02</pdfrwt>
<pdfrwt beam="2">  1       -1 0.22075767E-01 0.90108500E+02</pdfrwt>
<totfact> 0.77901398E+04</totfact>
</mgrwt>
</event>
<event>
 5   1  0.1388354E+00  0.9078634E+02  0.7818608E-02  0.1300959E+00
          1   -1    0    0  501    0  0.00000000000E+00  0.00000000000E+00  0.12654112422E+03  0.12654112431E+03  0.46700000000E-02 0. -1.
         -1   -1    0    0    0  501 -0.00000000000E+00 -0.00000000000E+00 -0.16283557974E+02  0.16283558644E+02  0.46700000000E-02 0.  1.
         23    2    1    2    0    0  0.00000000000E+00  0.00000000000E+00  0.11025756625E+03  0.14282468295E+03  0.90786337878E+02 0.  0.
        -13    1    3    3    0    0 -0.44446493200E+02 -0.58601845763E+01  0.43927442207E+02  0.62765148548E+02  0.10570000000E+00 0.  1.
         13    1    3    3    0    0  0.44446493200E+02  0.58601845763E+01  0.66330124041E+02  0.80059534403E+02  0.10570000000E+00 0. -1.
<mgrwt>
<rscale>  0 0.90786338E+02</rscale>
<asrwt>0</asrwt>
<pdfrwt beam="1">  1        1 0.19467865E-01 0.90786338E+02</pdfrwt>
<pdfrwt beam="2">  1       -1 0.25051629E-02 0.90786338E+02</pdfrwt>
<totfact> 0.11001699E+05</totfact>
</mgrwt>
</event>
<event>
 5   1  0.1388354E+00  0.9461246E+02  0.7818608E-02  0.1292051E+00
         -1   -1    0    0    0  501 -0.00000000000E+00  0.00000000000E+00  0.15115294355E+03  0.15115294363E+03  0.46700000000E-02 0.  1.
          1   -1    0    0  501    0  0.00000000000E+00 -0.00000000000E+00 -0.14805396947E+02  0.14805397683E+02  0.46700000000E-02 0. -1.
         23    2    1    2    0    0  0.00000000000E+00  0.00000000000E+00  0.13634754661E+03  0.16595834131E+03  0.94612459985E+02 0.  0.
        -13    1    3    3    0    0  0.23615948940E+02  0.41708998558E+01  0.13970000992E+03  0.14174347743E+03  0.10570000000E+00 0.  1.
         13    1    3    3    0    0 -0.23615948940E+02 -0.41708998558E+01 -0.33524633132E+01  0.24214863879E+02  0.10570000000E+00 0. -1.
<mgrwt>
<rscale>  0 0.94612460E+02</rscale>
<asrwt>0</asrwt>
<pdfrwt beam="2">  1        1 0.22777534E-02 0.94612460E+02</pdfrwt>
<pdfrwt beam="1">  1       -1 0.23254299E-01 0.94612460E+02</pdfrwt>
<totfact> 0.67808440E+04</totfact>
</mgrwt>
</event>
<event>
 5   1  0.1388354E+00  0.9209680E+02  0.7818608E-02  0.1297852E+00
          1   -1    0    0  501    0  0.00000000000E+00  0.00000000000E+00  0.25024295813E+03  0.25024295818E+03  0.46700000000E-02 0. -1.
         -1   -1    0    0    0  501 -0.00000000000E+00 -0.00000000000E+00 -0.84735842244E+01  0.84735855113E+01  0.46700000000E-02 0.  1.
         23    2    1    2    0    0  0.00000000000E+00  0.00000000000E+00  0.24176937391E+03  0.25871654369E+03  0.92096795914E+02 0.  0.
        -13    1    3    3    0    0  0.40797531634E+02 -0.40115442300E+01  0.17980471340E+03  0.18441875504E+03  0.10570000000E+00 0. -1.
         13    1    3    3    0    0 -0.40797531634E+02  0.40115442300E+01  0.61964660507E+02  0.74297788653E+02  0.10570000000E+00 0.  1.
<mgrwt>
<rscale>  0 0.92096796E+02</rscale>
<asrwt>0</asrwt>
<pdfrwt beam="1">  1        1 0.38498922E-01 0.92096796E+02</pdfrwt>
<pdfrwt beam="2">  1       -1 0.13036283E-02 0.92096796E+02</pdfrwt>
<totfact> 0.12041613E+05</totfact>
</mgrwt>
</event>
<event>
 5   1  0.1388354E+00  0.8999054E+02  0.7818608E-02  0.1302875E+00
         -1   -1    0    0    0  501 -0.00000000000E+00  0.00000000000E+00  0.88730609980E+02  0.88730610103E+02  0.46700000000E-02 0.  1.
          1   -1    0    0  501    0  0.00000000000E+00 -0.00000000000E+00 -0.22817088863E+02  0.22817089341E+02  0.46700000000E-02 0. -1.
         23    2    1    2    0    0  0.00000000000E+00  0.00000000000E+00  0.65913521117E+02  0.11154769944E+03  0.89990538309E+02 0.  0.
        -13    1    3    3    0    0 -0.40188346966E+02 -0.11813865788E+02  0.12592947126E+02  0.43740875009E+02  0.10570000000E+00 0. -1.
         13    1    3    3    0    0  0.40188346966E+02  0.11813865788E+02  0.53320573991E+02  0.67806824435E+02  0.10570000000E+00 0.  1.
<mgrwt>
<rscale>  0 0.89990538E+02</rscale>
<asrwt>0</asrwt>
<pdfrwt beam="2">  1        1 0.35103214E-02 0.89990538E+02</pdfrwt>
<pdfrwt beam="1">  1       -1 0.13650863E-01 0.89990538E+02</pdfrwt>
<totfact> 0.85991154E+04</totfact>
</mgrwt>
</event>
<event>
 5   1  0.1388354E+00  0.8947000E+02  0.7818608E-02  0.1304140E+00
         -1   -1    0    0    0  501 -0.00000000000E+00  0.00000000000E+00  0.34933902945E+02  0.34933903257E+02  0.46700000000E-02 0.  1.
          1   -1    0    0  501    0  0.00000000000E+00 -0.00000000000E+00 -0.57285898051E+02  0.57285898241E+02  0.46700000000E-02 0. -1.
         23    2    1    2    0    0  0.00000000000E+00  0.00000000000E+00 -0.22351995106E+02  0.92219801498E+02  0.89469995547E+02 0.  0.
        -13    1    3    3    0    0  0.24554083776E+02 -0.30620340702E+02  0.10947619717E+02  0.40747636063E+02  0.10570000000E+00 0.  1.
         13    1    3    3    0    0 -0.24554083776E+02  0.30620340702E+02 -0.33299614823E+02  0.51472165435E+02  0.10570000000E+00 0. -1.
<mgrwt>
<rscale>  0 0.89469996E+02</rscale>
<asrwt>0</asrwt>
<pdfrwt beam="2">  1        1 0.88132152E-02 0.89469996E+02</pdfrwt>
<pdfrwt beam="1">  1       -1 0.53744466E-02 0.89469996E+02</pdfrwt>
<totfact> 0.10084784E+05</totfact>
</mgrwt>
</event>
<event>
 5   1  0.1388354E+00  0.9810341E+02  0.7818608E-02  0.1284336E+00
         -1   -1    0    0    0  501 -0.00000000000E+00  0.00000000000E+00  0.41890753076E+02  0.41890753336E+02  0.46700000000E-02 0.  1.
          1   -1    0    0  501    0  0.00000000000E+00 -0.00000000000E+00 -0.57436776785E+02  0.57436776975E+02  0.46700000000E-02 0. -1.
         23    2    1    2    0    0  0.00000000000E+00  0.00000000000E+00 -0.15546023709E+02  0.99327530311E+02  0.98103411890E+02 0.  0.
        -13    1    3    3    0    0 -0.26610776962E+02  0.41124517208E+02 -0.10393612276E+02  0.50073922502E+02  0.10570000000E+00 0.  1.
         13    1    3    3    0    0  0.26610776962E+02 -0.41124517208E+02 -0.51524114331E+01  0.49253607809E+02  0.10570000000E+00 0. -1.
<mgrwt>
<rscale>  0 0.98103412E+02</rscale>
<asrwt>0</asrwt>
<pdfrwt beam="2">  1        1 0.88364272E-02 0.98103412E+02</pdfrwt>
<pdfrwt beam="1">  1       -1 0.64447313E-02 0.98103412E+02</pdfrwt>
<totfact> 0.78010878E+04</totfact>
</mgrwt>
</event>
<event>
 5   1  0.1388354E+00  0.9205556E+02  0.7818608E-02  0.1297949E+00
         -1   -1    0    0    0  501 -0.00000000000E+00  0.00000000000E+00  0.12075241571E+03  0.12075241580E+03  0.46700000000E-02 0.  1.
          1   -1    0    0  501    0  0.00000000000E+00 -0.00000000000E+00 -0.17544631845E+02  0.17544632466E+02  0.46700000000E-02 0. -1.
         23    2    1    2    0    0  0.00000000000E+00  0.00000000000E+00  0.10320778386E+03  0.13829704826E+03  0.92055564245E+02 0.  0.
        -13    1    3    3    0    0  0.38842406614E+02 -0.14823766665E+02  0.81274985586E+02  0.91291352625E+02  0.10570000000E+00 0.  1.
         13    1    3    3    0    0 -0.38842406614E+02  0.14823766665E+02  0.21932798276E+02  0.47005695638E+02  0.10570000000E+00 0. -1.
<mgrwt>
<rscale>  0 0.92055564E+02</rscale>
<asrwt>0</asrwt>
<pdfrwt beam="2">  1        1 0.26991741E-02 0.92055564E+02</pdfrwt>
<pdfrwt beam="1">  1       -1 0.18577295E-01 0.92055564E+02</pdfrwt>
<totfact> 0.76506948E+04</totfact>
</mgrwt>
</event>
<event>
 5   1  0.1388354E+00  0.9272043E+02  0.7818608E-02  0.1296394E+00
          1   -1    0    0  501    0  0.00000000000E+00  0.00000000000E+00  0.12058881800E+03  0.12058881809E+03  0.46700000000E-02 0. -1.
         -1   -1    0    0    0  501 -0.00000000000E+00 -0.00000000000E+00 -0.17823122431E+02  0.17823123043E+02  0.46700000000E-02 0.  1.
         23    2    1    2    0    0  0.00000000000E+00  0.00000000000E+00  0.10276569557E+03  0.13841194113E+03  0.92720425272E+02 0.  0.
        -13    1    3    3    0    0  0.31643227227E+02  0.19758776451E+01  0.10187484938E+03  0.10669439550E+03  0.10570000000E+00 0. -1.
         13    1    3    3    0    0 -0.31643227227E+02 -0.19758776451E+01  0.89084618922E+00  0.31717545637E+02  0.10570000000E+00 0.  1.
<mgrwt>
<rscale>  0 0.92720425E+02</rscale>
<asrwt>0</asrwt>
<pdfrwt beam="1">  1        1 0.18552126E-01 0.92720425E+02</pdfrwt>
<pdfrwt beam="2">  1       -1 0.27420189E-02 0.92720425E+02</pdfrwt>
<totfact> 0.10302257E+05</totfact>
</mgrwt>
</event>
<event>
 5   1  0.1388354E+00  0.9831807E+02  0.7818608E-02  0.1283873E+00
          1   -1    0    0  501    0  0.00000000000E+00  0.00000000000E+00  0.66631015344E+02  0.66631015508E+02  0.46700000000E-02 0. -1.
         -1   -1    0    0    0  501 -0.00000000000E+00 -0.00000000000E+00 -0.36268558084E+02  0.36268558384E+02  0.46700000000E-02 0.  1.
         23    2    1    2    0    0  0.00000000000E+00  0.00000000000E+00  0.30362457260E+02  0.10289957389E+03  0.98318073091E+02 0.  0.
        -13    1    3    3    0    0 -0.11924825501E+01 -0.13981103041E+02  0.64490432373E+02  0.65999396187E+02  0.10570000000E+00 0. -1.
         13    1    3    3    0    0  0.11924825501E+01  0.13981103041E+02 -0.34127975113E+02  0.36900177705E+02  0.10570000000E+00 0.  1.
<mgrwt>
<rscale>  0 0.98318073E+02</rscale>
<asrwt>0</asrwt>
<pdfrwt beam="1">  1        1 0.10250925E-01 0.98318073E+02</pdfrwt>
<pdfrwt beam="2">  1       -1 0.55797783E-02 0.98318073E+02</pdfrwt>
<totfact> 0.79401607E+04</totfact>
</mgrwt>
</event>
<event>
 5   1  0.1388354E+00  0.9237880E+02  0.7818608E-02  0.1297191E+00
         -1   -1    0    0    0  501 -0.00000000000E+00  0.00000000000E+00  0.80616099677E+02  0.80616099812E+02  0.46700000000E-02 0.  1.
          1   -1    0    0  501    0  0.00000000000E+00 -0.00000000000E+00 -0.26464446326E+02  0.26464446738E+02  0.46700000000E-02 0. -1.
         23    2    1    2    0    0  0.00000000000E+00  0.00000000000E+00  0.54151653351E+02  0.10708054655E+03  0.92378795667E+02 0.  0.
        -13    1    3    3    0    0 -0.41750413963E+02 -0.83020911566E+01  0.47857466289E+02  0.64049746570E+02  0.10570000000E+00 0.  1.
         13    1    3    3    0    0  0.41750413963E+02  0.83020911566E+01  0.62941870620E+01  0.43030799980E+02  0.10570000000E+00 0. -1.
<mgrwt>
<rscale>  0 0.92378796E+02</rscale>
<asrwt>0</asrwt>
<pdfrwt beam="2">  1        1 0.40714534E-02 0.92378796E+02</pdfrwt>
<pdfrwt beam="1">  1       -1 0.12402477E-01 0.92378796E+02</pdfrwt>
<totfact> 0.81749666E+04</totfact>
</mgrwt>
</event>
<event>
 5   1  0.1388354E+00  0.9291399E+02  0.7818608E-02  0.1295945E+00
         -1   -1    0    0    0  501 -0.00000000000E+00  0.00000000000E+00  0.30688735064E+02  0.30688735419E+02  0.46700000000E-02 0.  1.
          1   -1    0    0  501    0  0.00000000000E+00 -0.00000000000E+00 -0.70327190853E+02  0.70327191008E+02  0.46700000000E-02 0. -1.
         23    2    1    2    0    0  0.00000000000E+00  0.00000000000E+00 -0.39638455789E+02  0.10101592643E+03  0.92913993642E+02 0.  0.
        -13    1    3    3    0    0  0.57221122005E+00  0.15412312720E+02  0.27824056969E+02  0.31812829609E+02  0.10570000000E+00 0.  1.
         13    1    3    3    0    0 -0.57221122005E+00 -0.15412312720E+02 -0.67462512758E+02  0.69203096818E+02  0.10570000000E+00 0. -1.
<mgrwt>
<rscale>  0 0.92913994E+02</rscale>
<asrwt>0</asrwt>
<pdfrwt beam="2">  1        1 0.10819568E-01 0.92913994E+02</pdfrwt>
<pdfrwt beam="1">  1       -1 0.47213439E-02 0.92913994E+02</pdfrwt>
<totfact> 0.93719741E+04</totfact>
</mgrwt>
</event>
<event>
 5   1  0.1388354E+00  0.9186835E+02  0.7818608E-02  0.1298389E+00
          1   -1    0    0  501    0  0.00000000000E+00  0.00000000000E+00  0.30955559070E+03  0.30955559073E+03  0.46700000000E-02 0. -1.
         -1   -1    0    0    0  501 -0.00000000000E+00 -0.00000000000E+00 -0.68160551408E+01  0.68160567406E+01  0.46700000000E-02 0.  1.
         23    2    1    2    0    0  0.00000000000E+00  0.00000000000E+00  0.30273953556E+03  0.31637164747E+03  0.91868345669E+02 0.  0.
        -13    1    3    3    0    0 -0.35837493879E+02 -0.17144256584E+02  0.23077682343E+03  0.23417131530E+03  0.10570000000E+00 0. -1.
         13    1    3    3    0    0  0.35837493879E+02  0.17144256584E+02  0.71962712126E+02  0.82200332179E+02  0.10570000000E+00 0.  1.
<mgrwt>
<rscale>  0 0.91868346E+02</rscale>
<asrwt>0</asrwt>
<pdfrwt beam="1">  1        1 0.47623938E-01 0.91868346E+02</pdfrwt>
<pdfrwt beam="2">  1       -1 0.10486240E-02 0.91868346E+02</pdfrwt>
<totfact> 0.12631599E+05</totfact>
</mgrwt>
</event>
<event>
 5   1  0.1388354E+00  0.9121434E+02  0.7818608E-02  0.1299937E+00
          1   -1    0    0  501    0  0.00000000000E+00  0.00000000000E+00  0.45946869890E+02  0.45946870127E+02  0.46700000000E-02 0. -1.
         -1   -1    0    0    0  501 -0.00000000000E+00 -0.00000000000E+00 -0.45269982787E+02  0.45269983027E+02  0.46700000000E-02 0.  1.
         23    2    1    2    0    0  0.00000000000E+00  0.00000000000E+00  0.67688710325E+00  0.91216853155E+02  0.91214341654E+02 0.  0.
        -13    1    3    3    0    0  0.12755151299E+02  0.11704470106E+02 -0.41856489712E+02  0.45295313319E+02  0.10570000000E+00 0.  1.
         13    1    3    3    0    0 -0.12755151299E+02 -0.11704470106E+02  0.42533376815E+02  0.45921539836E+02  0.10570000000E+00 0. -1.
<mgrwt>
<rscale>  0 0.91214342E+02</rscale>
<asrwt>0</asrwt>
<pdfrwt beam="1">  1        1 0.70687492E-02 0.91214342E+02</pdfrwt>
<pdfrwt beam="2">  1       -1 0.69646128E-02 0.91214342E+02</pdfrwt>
<totfact> 0.92474355E+04</totfact>
</mgrwt>
</event>
<event>
 5   1  0.1388354E+00  0.9154500E+02  0.7818608E-02  0.1299153E+00
          1   -1    0    0  501    0  0.00000000000E+00  0.00000000000E+00  0.34815075530E+02  0.34815075843E+02  0.46700000000E-02 0. -1.
         -1   -1    0    0    0  501 -0.00000000000E+00 -0.00000000000E+00 -0.60178584163E+02  0.60178584345E+02  0.46700000000E-02 0.  1.
         23    2    1    2    0    0  0.00000000000E+00  0.00000000000E+00 -0.25363508634E+02  0.94993660187E+02  0.91545004810E+02 0.  0.
        -13    1    3    3    0    0  0.86864294287E+00 -0.15564762530E+02  0.31975450148E+02  0.35573261839E+02  0.10570000000E+00 0. -1.
         13    1    3    3    0    0 -0.86864294287E+00  0.15564762530E+02 -0.57338958782E+02  0.59420398349E+02  0.10570000000E+00 0.  1.
<mgrwt>
<rscale>  0 0.91545005E+02</rscale>
<asrwt>0</asrwt>
<pdfrwt beam="1">  1        1 0.53561655E-02 0.91545005E+02</pdfrwt>
<pdfrwt beam="2">  1       -1 0.92582438E-02 0.91545005E+02</pdfrwt>
<totfact> 0.87737379E+04</totfact>
</mgrwt>
</event>
<event>
 5   1  0.1388354E+00  0.9049785E+02  0.7818608E-02  0.1301651E+00
          1   -1    0    0  501    0  0.00000000000E+00  0.00000000000E+00  0.83492945760E+02  0.83492945890E+02  0.46700000000E-02 0. -1.
         -1   -1    0    0    0  501 -0.00000000000E+00 -0.00000000000E+00 -0.24522611795E+02  0.24522612240E+02  0.46700000000E-02 0.  1.
         23    2    1    2    0    0  0.00000000000E+00  0.00000000000E+00  0.58970333965E+02  0.10801555813E+03  0.90497848098E+02 0.  0.
        -13    1    3    3    0    0  0.29883446477E+02 -0.17892694499E+02  0.63960248059E+02  0.72829207013E+02  0.10570000000E+00 0. -1.
         13    1    3    3    0    0 -0.29883446477E+02  0.17892694499E+02 -0.49899140945E+01  0.35186351118E+02  0.10570000000E+00 0.  1.
<mgrwt>
<rscale>  0 0.90497848E+02</rscale>
<asrwt>0</asrwt>
<pdfrwt beam="1">  1        1 0.12845068E-01 0.90497848E+02</pdfrwt>
<pdfrwt beam="2">  1       -1 0.37727096E-02 0.90497848E+02</pdfrwt>
<totfact> 0.10352630E+05</totfact>
</mgrwt>
</event>
<event>
 5   1  0.1388354E+00  0.9099920E+02  0.7818608E-02  0.1300450E+00
         -1   -1    0    0    0  501 -0.00000000000E+00  0.00000000000E+00  0.10788075837E+02  0.10788076848E+02  0.46700000000E-02 0.  1.
          1   -1    0    0  501    0  0.00000000000E+00 -0.00000000000E+00 -0.19189829442E+03  0.19189829447E+03  0.46700000000E-02 0. -1.
         23    2    1    2    0    0  0.00000000000E+00  0.00000000000E+00 -0.18111021858E+03  0.20268637132E+03  0.90999196949E+02 0.  0.
        -13    1    3    3    0    0  0.20515840478E+02 -0.38418338167E+02 -0.61230738270E+02  0.75140421210E+02  0.10570000000E+00 0.  1.
         13    1    3    3    0    0 -0.20515840478E+02  0.38418338167E+02 -0.11987948031E+03  0.12754595011E+03  0.10570000000E+00 0. -1.
<mgrwt>
<rscale>  0 0.90999197E+02</rscale>
<asrwt>0</asrwt>
<pdfrwt beam="2">  1        1 0.29522812E-01 0.90999197E+02</pdfrwt>
<pdfrwt beam="1">  1       -1 0.16597042E-02 0.90999197E+02</pdfrwt>
<totfact> 0.11807903E+05</totfact>
</mgrwt>
</event>
<event>
 5   1  0.1388354E+00  0.9050670E+02  0.7818608E-02  0.1301629E+00
          1   -1    0    0  501    0  0.00000000000E+00  0.00000000000E+00  0.20093881683E+03  0.20093881689E+03  0.46700000000E-02 0. -1.
         -1   -1    0    0    0  501 -0.00000000000E+00 -0.00000000000E+00 -0.10191488869E+02  0.10191489939E+02  0.46700000000E-02 0.  1.
         23    2    1    2    0    0  0.00000000000E+00  0.00000000000E+00  0.19074732797E+03  0.21113030683E+03  0.90506703262E+02 0.  0.
        -13    1    3    3    0    0 -0.11411510831E+02 -0.28484062970E+02  0.17783910294E+02  0.35466083242E+02  0.10570000000E+00 0.  1.
         13    1    3    3    0    0  0.11411510831E+02  0.28484062970E+02  0.17296341767E+03  0.17566422359E+03  0.10570000000E+00 0. -1.
<mgrwt>
<rscale>  0 0.90506703E+02</rscale>
<asrwt>0</asrwt>
<pdfrwt beam="1">  1        1 0.30913665E-01 0.90506703E+02</pdfrwt>
<pdfrwt beam="2">  1       -1 0.15679214E-02 0.90506703E+02</pdfrwt>
<totfact> 0.12087940E+05</totfact>
</mgrwt>
</event>
<event>
 5   1  0.1388354E+00  0.9059984E+02  0.7818608E-02  0.1301406E+00
          1   -1    0    0  501    0  0.00000000000E+00  0.00000000000E+00  0.33967868905E+03  0.33967868908E+03  0.46700000000E-02 0. -1.
         -1   -1    0    0    0  501 -0.00000000000E+00 -0.00000000000E+00 -0.60412456417E+01  0.60412474467E+01  0.46700000000E-02 0.  1.
         23    2    1    2    0    0  0.00000000000E+00  0.00000000000E+00  0.33363744341E+03  0.34571993653E+03  0.90599839236E+02 0.  0.
        -13    1    3    3    0    0  0.45951142161E+01 -0.44854765286E+02  0.18345469014E+03  0.18891452975E+03  0.10570000000E+00 0.  1.
         13    1    3    3    0    0 -0.45951142161E+01  0.44854765286E+02  0.15018275327E+03  0.15680540678E+03  0.10570000000E+00 0. -1.
<mgrwt>
<rscale>  0 0.90599839E+02</rscale>
<asrwt>0</asrwt>
<pdfrwt beam="1">  1        1 0.52258249E-01 0.90599839E+02</pdfrwt>
<pdfrwt beam="2">  1       -1 0.92942275E-03 0.90599839E+02</pdfrwt>
<totfact> 0.13335576E+05</totfact>
</mgrwt>
</event>
<event>
 5   1  0.1388354E+00  0.9123938E+02  0.7818608E-02  0.1299878E+00
          1   -1    0    0  501    0  0.00000000000E+00  0.00000000000E+00  0.93347835553E+02  0.93347835669E+02  0.46700000000E-02 0. -1.
         -1   -1    0    0    0  501 -0.00000000000E+00 -0.00000000000E+00 -0.22294635189E+02  0.22294635678E+02  0.46700000000E-02 0.  1.
         23    2    1    2    0    0  0.00000000000E+00  0.00000000000E+00  0.71053200364E+02  0.11564247135E+03  0.91239376902E+02 0.  0.
        -13    1    3    3    0    0  0.43540710163E+02  0.12789031389E+02  0.41443360298E+02  0.61456619259E+02  0.10570000000E+00 0. -1.
         13    1    3    3    0    0 -0.43540710163E+02 -0.12789031389E+02  0.29609840065E+02  0.54185852089E+02  0.10570000000E+00 0.  1.
<mgrwt>
<rscale>  0 0.91239377E+02</rscale>
<asrwt>0</asrwt>
<pdfrwt beam="1">  1        1 0.14361205E-01 0.91239377E+02</pdfrwt>
<pdfrwt beam="2">  1       -1 0.34299439E-02 0.91239377E+02</pdfrwt>
<totfact> 0.10307938E+05</totfact>
</mgrwt>
</event>
<event>
 5   1  0.1388354E+00  0.8799529E+02  0.7818608E-02  0.1307780E+00
         -1   -1    0    0    0  501 -0.00000000000E+00  0.00000000000E+00  0.89692678477E+01  0.89692690635E+01  0.46700000000E-02 0.  1.
          1   -1    0    0  501    0  0.00000000000E+00 -0.00000000000E+00 -0.21582502594E+03  0.21582502599E+03  0.46700000000E-02 0. -1.
         23    2    1    2    0    0  0.00000000000E+00  0.00000000000E+00 -0.20685575809E+03  0.22479429506E+03  0.87995286425E+02 0.  0.
        -13    1    3    3    0    0  0.28030818846E+02 -0.31688727824E+02 -0.13428266246E+03  0.14078972579E+03  0.10570000000E+00 0. -1.
         13    1    3    3    0    0 -0.28030818846E+02  0.31688727824E+02 -0.72573095632E+02  0.84004569271E+02  0.10570000000E+00 0.  1.
<mgrwt>
<rscale>  0 0.87995286E+02</rscale>
<asrwt>0</asrwt>
<pdfrwt beam="2">  1        1 0.33203846E-01 0.87995286E+02</pdfrwt>
<pdfrwt beam="1">  1       -1 0.13798876E-02 0.87995286E+02</pdfrwt>
<totfact> 0.13213377E+05</totfact>
</mgrwt>
</event>
<event>
 5   1  0.1388354E+00  0.9208686E+02  0.7818608E-02  0.1297875E+00
          1   -1    0    0  501    0  0.00000000000E+00  0.00000000000E+00  0.15072094718E+02  0.15072095442E+02  0.46700000000E-02 0. -1.
         -1   -1    0    0    0  501 -0.00000000000E+00 -0.00000000000E+00 -0.14065711297E+03  0.14065711305E+03  0.46700000000E-02 0.  1.
         23    2    1    2    0    0  0.00000000000E+00  0.00000000000E+00 -0.12558501825E+03  0.15572920849E+03  0.92086858820E+02 0.  0.
        -13    1    3    3    0    0  0.44243273540E+02  0.76435784596E+01 -0.45538633138E+02  0.63950526391E+02  0.10570000000E+00 0. -1.
         13    1    3    3    0    0 -0.44243273540E+02 -0.76435784596E+01 -0.80046385114E+02  0.91778682097E+02  0.10570000000E+00 0.  1.
<mgrwt>
<rscale>  0 0.92086859E+02</rscale>
<asrwt>0</asrwt>
<pdfrwt beam="1">  1        1 0.23187840E-02 0.92086859E+02</pdfrwt>
<pdfrwt beam="2">  1       -1 0.21639555E-01 0.92086859E+02</pdfrwt>
<totfact> 0.73968537E+04</totfact>
</mgrwt>
</event>
<event>
 5   1  0.1388354E+00  0.9700777E+02  0.7818608E-02  0.1286717E+00
          1   -1    0    0  501    0  0.00000000000E+00  0.00000000000E+00  0.25510227154E+02  0.25510227581E+02  0.46700000000E-02 0. -1.
         -1   -1    0    0    0  501 -0.00000000000E+00 -0.00000000000E+00 -0.92222880753E+02  0.92222880871E+02  0.46700000000E-02 0.  1.
         23    2    1    2    0    0  0.00000000000E+00  0.00000000000E+00 -0.66712653599E+02  0.11773310845E+03  0.97007766058E+02 0.  0.
        -13    1    3    3    0    0  0.42574792152E+02 -0.16995933369E+02 -0.14123161693E+02  0.47968213919E+02  0.10570000000E+00 0. -1.
         13    1    3    3    0    0 -0.42574792152E+02  0.16995933369E+02 -0.52589491906E+02  0.69764894533E+02  0.10570000000E+00 0.  1.
<mgrwt>
<rscale>  0 0.97007766E+02</rscale>
<asrwt>0</asrwt>
<pdfrwt beam="1">  1        1 0.39246504E-02 0.97007766E+02</pdfrwt>
<pdfrwt beam="2">  1       -1 0.14188135E-01 0.97007766E+02</pdfrwt>
<totfact> 0.70402163E+04</totfact>
</mgrwt>
</event>
<event>
 5   1  0.1388354E+00  0.9315217E+02  0.7818608E-02  0.1295393E+00
          1   -1    0    0  501    0  0.00000000000E+00  0.00000000000E+00  0.29066274443E+02  0.29066274818E+02  0.46700000000E-02 0. -1.
         -1   -1    0    0    0  501 -0.00000000000E+00 -0.00000000000E+00 -0.74633971886E+02  0.74633972032E+02  0.46700000000E-02 0.  1.
         23    2    1    2    0    0  0.00000000000E+00  0.00000000000E+00 -0.45567697442E+02  0.10370024685E+03  0.93152166623E+02 0.  0.
        -13    1    3    3    0    0  0.43224886838E+02  0.11773925114E+02 -0.36966313750E+02  0.58082145962E+02  0.10570000000E+00 0.  1.
         13    1    3    3    0    0 -0.43224886838E+02 -0.11773925114E+02 -0.86013836928E+01  0.45618100889E+02  0.10570000000E+00 0. -1.
<mgrwt>
<rscale>  0 0.93152167E+02</rscale>
<asrwt>0</asrwt>
<pdfrwt beam="1">  1        1 0.44717346E-02 0.93152167E+02</pdfrwt>
<pdfrwt beam="2">  1       -1 0.11482150E-01 0.93152167E+02</pdfrwt>
<totfact> 0.81069709E+04</totfact>
</mgrwt>
</event>
<event>
 5   1  0.1388354E+00  0.9114855E+02  0.7818608E-02  0.1300094E+00
          1   -1    0    0  501    0  0.00000000000E+00  0.00000000000E+00  0.86846257718E+02  0.86846257843E+02  0.46700000000E-02 0. -1.
         -1   -1    0    0    0  501 -0.00000000000E+00 -0.00000000000E+00 -0.23915991623E+02  0.23915992079E+02  0.46700000000E-02 0.  1.
         23    2    1    2    0    0  0.00000000000E+00  0.00000000000E+00  0.62930266095E+02  0.11076224992E+03  0.91148546983E+02 0.  0.
        -13    1    3    3    0    0  0.18435987939E+02  0.40688935925E+02  0.42437380919E+02  0.61615076319E+02  0.10570000000E+00 0. -1.
         13    1    3    3    0    0 -0.18435987939E+02 -0.40688935925E+02  0.20492885175E+02  0.49147173604E+02  0.10570000000E+00 0.  1.
<mgrwt>
<rscale>  0 0.91148547E+02</rscale>
<asrwt>0</asrwt>
<pdfrwt beam="1">  1        1 0.13360963E-01 0.91148547E+02</pdfrwt>
<pdfrwt beam="2">  1       -1 0.36793833E-02 0.91148547E+02</pdfrwt>
<totfact> 0.10215748E+05</totfact>
</mgrwt>
</event>
<event>
 5   1  0.1388354E+00  0.8768720E+02  0.7818608E-02  0.1308551E+00
         -1   -1    0    0    0  501 -0.00000000000E+00  0.00000000000E+00  0.32198704454E+03  0.32198704458E+03  0.46700000000E-02 0.  1.
          1   -1    0    0  501    0  0.00000000000E+00 -0.00000000000E+00 -0.59699951883E+01  0.59699970148E+01  0.46700000000E-02 0. -1.
         23    2    1    2    0    0  0.00000000000E+00  0.00000000000E+00  0.31601704935E+03  0.32795704159E+03  0.87687203437E+02 0.  0.
        -13    1    3    3    0    0  0.17826655311E+02  0.36737142140E+02  0.98302647401E+02  0.10644636636E+03  0.10570000000E+00 0. -1.
         13    1    3    3    0    0 -0.17826655311E+02 -0.36737142140E+02  0.21771440195E+03  0.22151067523E+03  0.10570000000E+00 0.  1.
<mgrwt>
<rscale>  0 0.87687203E+02</rscale>
<asrwt>0</asrwt>
<pdfrwt beam="2">  1        1 0.91846081E-03 0.87687203E+02</pdfrwt>
<pdfrwt beam="1">  1       -1 0.49536476E-01 0.87687203E+02</pdfrwt>
<totfact> 0.65190019E+04</totfact>
</mgrwt>
</event>
<event>
 5   1  0.1388354E+00  0.9469618E+02  0.7818608E-02  0.1291862E+00
          1   -1    0    0  501    0  0.00000000000E+00  0.00000000000E+00  0.80257877459E+02  0.80257877595E+02  0.46700000000E-02 0. -1.
         -1   -1    0    0    0  501 -0.00000000000E+00 -0.00000000000E+00 -0.27932980326E+02  0.27932980716E+02  0.46700000000E-02 0.  1.
         23    2    1    2    0    0  0.00000000000E+00  0.00000000000E+00  0.52324897134E+02  0.10819085831E+03  0.94696182405E+02 0.  0.
        -13    1    3    3    0    0  0.11681924499E+02  0.22082463318E+02  0.72115129022E+02  0.76319758598E+02  0.10570000000E+00 0. -1.
         13    1    3    3    0    0 -0.11681924499E+02 -0.22082463318E+02 -0.19790231888E+02  0.31871099713E+02  0.10570000000E+00 0.  1.
<mgrwt>
<rscale>  0 0.94696182E+02</rscale>
<asrwt>0</asrwt>
<pdfrwt beam="1">  1        1 0.12347366E-01 0.94696182E+02</pdfrwt>
<pdfrwt beam="2">  1       -1 0.42973817E-02 0.94696182E+02</pdfrwt>
<totfact> 0.90811371E+04</totfact>
</mgrwt>
</event>
<event>
 5   1  0.1388354E+00  0.1104241E+03  0.7818608E-02  0.1259787E+00
          1   -1    0    0  501    0  0.00000000000E+00  0.00000000000E+00  0.70224076808E+02  0.70224076964E+02  0.46700000000E-02 0. -1.
         -1   -1    0    0    0  501 -0.00000000000E+00 -0.00000000000E+00 -0.43409165341E+02  0.43409165592E+02  0.46700000000E-02 0.  1.
         23    2    1    2    0    0  0.00000000000E+00  0.00000000000E+00  0.26814911468E+02  0.11363324256E+03  0.11042406593E+03 0.  0.
        -13    1    3    3    0    0 -0.18878277911E+02  0.40465418601E+02 -0.20009635933E+02  0.48930932773E+02  0.10570000000E+00 0.  1.
         13    1    3    3    0    0  0.18878277911E+02 -0.40465418601E+02  0.46824547400E+02  0.64702309782E+02  0.10570000000E+00 0. -1.
<mgrwt>
<rscale>  0 0.11042407E+03</rscale>
<asrwt>0</asrwt>
<pdfrwt beam="1">  1        1 0.10803704E-01 0.11042407E+03</pdfrwt>
<pdfrwt beam="2">  1       -1 0.66783332E-02 0.11042407E+03</pdfrwt>
<totfact> 0.57764270E+04</totfact>
</mgrwt>
</event>
<event>
 5   1  0.1388354E+00  0.8977536E+02  0.7818608E-02  0.1303397E+00
         -1   -1    0    0    0  501 -0.00000000000E+00  0.00000000000E+00  0.33615263211E+03  0.33615263214E+03  0.46700000000E-02 0.  1.
          1   -1    0    0  501    0  0.00000000000E+00 -0.00000000000E+00 -0.59940133149E+01  0.59940151341E+01  0.46700000000E-02 0. -1.
         23    2    1    2    0    0  0.00000000000E+00  0.00000000000E+00  0.33015861879E+03  0.34214664727E+03  0.89775356740E+02 0.  0.
        -13    1    3    3    0    0 -0.32374879900E+02 -0.28448449208E+02  0.21290047067E+03  0.21721894184E+03  0.10570000000E+00 0.  1.
         13    1    3    3    0    0  0.32374879900E+02  0.28448449208E+02  0.11725814812E+03  0.12492770543E+03  0.10570000000E+00 0. -1.
<mgrwt>
<rscale>  0 0.89775357E+02</rscale>
<asrwt>0</asrwt>
<pdfrwt beam="2">  1        1 0.92215569E-03 0.89775357E+02</pdfrwt>
<pdfrwt beam="1">  1       -1 0.51715809E-01 0.89775357E+02</pdfrwt>
<totfact> 0.60194907E+04</totfact>
</mgrwt>
</event>
<event>
 5   1  0.1388354E+00  0.9230987E+02  0.7818608E-02  0.1297352E+00
          1   -1    0    0  501    0  0.00000000000E+00  0.00000000000E+00  0.22458140876E+03  0.22458140881E+03  0.46700000000E-02 0. -1.
         -1   -1    0    0    0  501 -0.00000000000E+00 -0.00000000000E+00 -0.94855489917E+01  0.94855501413E+01  0.46700000000E-02 0.  1.
         23    2    1    2    0    0  0.00000000000E+00  0.00000000000E+00  0.21509585977E+03  0.23406695895E+03  0.92309871533E+02 0.  0.
        -13    1    3    3    0    0  0.33304832920E+02 -0.30128763354E+02  0.13453968697E+03  0.14183755786E+03  0.10570000000E+00 0. -1.
         13    1    3    3    0    0 -0.33304832920E+02  0.30128763354E+02  0.80556172795E+02  0.92229401087E+02  0.10570000000E+00 0.  1.
<mgrwt>
<rscale>  0 0.92309872E+02</rscale>
<asrwt>0</asrwt>
<pdfrwt beam="1">  1        1 0.34550985E-01 0.92309872E+02</pdfrwt>
<pdfrwt beam="2">  1       -1 0.14593154E-02 0.92309872E+02</pdfrwt>
<totfact> 0.11716649E+05</totfact>
</mgrwt>
</event>
<event>
 5   1  0.1388354E+00  0.9189602E+02  0.7818608E-02  0.1298324E+00
          1   -1    0    0  501    0  0.00000000000E+00  0.00000000000E+00  0.10556396294E+03  0.10556396305E+03  0.46700000000E-02 0. -1.
         -1   -1    0    0    0  501 -0.00000000000E+00 -0.00000000000E+00 -0.19999436792E+02  0.19999437337E+02  0.46700000000E-02 0.  1.
         23    2    1    2    0    0  0.00000000000E+00  0.00000000000E+00  0.85564526153E+02  0.12556340038E+03  0.91896024835E+02 0.  0.
        -13    1    3    3    0    0 -0.53344994256E+01  0.39736404555E+02  0.73450052200E+02  0.83680105591E+02  0.10570000000E+00 0. -1.
         13    1    3    3    0    0  0.53344994256E+01 -0.39736404555E+02  0.12114473953E+02  0.41883294793E+02  0.10570000000E+00 0.  1.
<mgrwt>
<rscale>  0 0.91896025E+02</rscale>
<asrwt>0</asrwt>
<pdfrwt beam="1">  1        1 0.16240609E-01 0.91896025E+02</pdfrwt>
<pdfrwt beam="2">  1       -1 0.30768365E-02 0.91896025E+02</pdfrwt>
<totfact> 0.10316926E+05</totfact>
</mgrwt>
</event>
<event>
 5   1  0.1388354E+00  0.8567373E+02  0.7818608E-02  0.1313680E+00
          1   -1    0    0  501    0  0.00000000000E+00  0.00000000000E+00  0.55149699497E+02  0.55149699695E+02  0.46700000000E-02 0. -1.
         -1   -1    0    0    0  501 -0.00000000000E+00 -0.00000000000E+00 -0.33273019458E+02  0.33273019786E+02  0.46700000000E-02 0.  1.
         23    2    1    2    0    0  0.00000000000E+00  0.00000000000E+00  0.21876680039E+02  0.88422719481E+02  0.85673731043E+02 0.  0.
        -13    1    3    3    0    0  0.16151506618E+02 -0.62984404615E+01  0.51367224584E+02  0.54213876934E+02  0.10570000000E+00 0. -1.
         13    1    3    3    0    0 -0.16151506618E+02  0.62984404615E+01 -0.29490544545E+02  0.34208842546E+02  0.10570000000E+00 0.  1.
<mgrwt>
<rscale>  0 0.85673731E+02</rscale>
<asrwt>0</asrwt>
<pdfrwt beam="1">  1        1 0.84845691E-02 0.85673731E+02</pdfrwt>
<pdfrwt beam="2">  1       -1 0.51189261E-02 0.85673731E+02</pdfrwt>
<totfact> 0.11304714E+05</totfact>
</mgrwt>
</event>
<event>
 5   1  0.1388354E+00  0.9145565E+02  0.7818608E-02  0.1299364E+00
         -1   -1    0    0    0  501 -0.00000000000E+00  0.00000000000E+00  0.26987326320E+02  0.26987326724E+02  0.46700000000E-02 0.  1.
          1   -1    0    0  501    0  0.00000000000E+00 -0.00000000000E+00 -0.77482075468E+02  0.77482075608E+02  0.46700000000E-02 0. -1.
         23    2    1    2    0    0  0.00000000000E+00  0.00000000000E+00 -0.50494749148E+02  0.10446940233E+03  0.91455652270E+02 0.  0.
        -13    1    3    3    0    0  0.75730931392E-01 -0.22650434534E+02 -0.70623626100E+02  0.74167079326E+02  0.10570000000E+00 0. -1.
         13    1    3    3    0    0 -0.75730931392E-01  0.22650434534E+02  0.20128876952E+02  0.30302323006E+02  0.10570000000E+00 0.  1.
<mgrwt>
<rscale>  0 0.91455652E+02</rscale>
<asrwt>0</asrwt>
<pdfrwt beam="2">  1        1 0.11920319E-01 0.91455652E+02</pdfrwt>
<pdfrwt beam="1">  1       -1 0.41518964E-02 0.91455652E+02</pdfrwt>
<totfact> 0.99400089E+04</totfact>
</mgrwt>
</event>
<event>
 5   1  0.1388354E+00  0.9092529E+02  0.7818608E-02  0.1300626E+00
         -1   -1    0    0    0  501 -0.00000000000E+00  0.00000000000E+00  0.58352598277E+01  0.58352616964E+01  0.46700000000E-02 0.  1.
          1   -1    0    0  501    0  0.00000000000E+00 -0.00000000000E+00 -0.35420046481E+03  0.35420046484E+03  0.46700000000E-02 0. -1.
         23    2    1    2    0    0  0.00000000000E+00  0.00000000000E+00 -0.34836520498E+03  0.36003572654E+03  0.90925289886E+02 0.  0.
        -13    1    3    3    0    0 -0.43699974550E+02  0.96189097269E+01 -0.20601556198E+03  0.21081896060E+03  0.10570000000E+00 0. -1.
         13    1    3    3    0    0  0.43699974550E+02 -0.96189097269E+01 -0.14234964301E+03  0.14921676594E+03  0.10570000000E+00 0.  1.
<mgrwt>
<rscale>  0 0.90925290E+02</rscale>
<asrwt>0</asrwt>
<pdfrwt beam="2">  1        1 0.54492362E-01 0.90925290E+02</pdfrwt>
<pdfrwt beam="1">  1       -1 0.89773271E-03 0.90925290E+02</pdfrwt>
<totfact> 0.13308664E+05</totfact>
</mgrwt>
</event>
<event>
 5   1  0.1388354E+00  0.9449168E+02  0.7818608E-02  0.1292325E+00
          1   -1    0    0  501    0  0.00000000000E+00  0.00000000000E+00  0.29537259092E+03  0.29537259095E+03  0.46700000000E-02 0. -1.
         -1   -1    0    0    0  501 -0.00000000000E+00 -0.00000000000E+00 -0.75571309175E+01  0.75571323604E+01  0.46700000000E-02 0.  1.
         23    2    1    2    0    0  0.00000000000E+00  0.00000000000E+00  0.28781546000E+03  0.30292972331E+03  0.94491683510E+02 0.  0.
        -13    1    3    3    0    0  0.40181785387E+02 -0.13850998641E+02  0.77759743705E+02  0.88617238468E+02  0.10570000000E+00 0.  1.
         13    1    3    3    0    0 -0.40181785387E+02  0.13850998641E+02  0.21005571629E+03  0.21431248485E+03  0.10570000000E+00 0. -1.
<mgrwt>
<rscale>  0 0.94491684E+02</rscale>
<asrwt>0</asrwt>
<pdfrwt beam="1">  1        1 0.45441938E-01 0.94491684E+02</pdfrwt>
<pdfrwt beam="2">  1       -1 0.11626356E-02 0.94491684E+02</pdfrwt>
<totfact> 0.11611822E+05</totfact>
</mgrwt>
</event>
<event>
 5   1  0.1388354E+00  0.9161189E+02  0.7818608E-02  0.1298995E+00
         -1   -1    0    0    0  501 -0.00000000000E+00  0.00000000000E+00  0.49999961528E+02  0.49999961746E+02  0.46700000000E-02 0.  1.
          1   -1    0    0  501    0  0.00000000000E+00 -0.00000000000E+00 -0.41963728110E+02  0.41963728370E+02  0.46700000000E-02 0. -1.
         23    2    1    2    0    0  0.00000000000E+00  0.00000000000E+00  0.80362334176E+01  0.91963690116E+02  0.91611894710E+02 0.  0.
        -13    1    3    3    0    0 -0.44002779758E+02 -0.76332662239E+01 -0.62024472985E+01  0.45088722589E+02  0.10570000000E+00 0. -1.
         13    1    3    3    0    0  0.44002779758E+02  0.76332662239E+01  0.14238680716E+02  0.46874967528E+02  0.10570000000E+00 0.  1.
<mgrwt>
<rscale>  0 0.91611895E+02</rscale>
<asrwt>0</asrwt>
<pdfrwt beam="2">  1        1 0.64559582E-02 0.91611895E+02</pdfrwt>
<pdfrwt beam="1">  1       -1 0.76923018E-02 0.91611895E+02</pdfrwt>
<totfact> 0.90106106E+04</totfact>
</mgrwt>
</event>
<event>
 5   1  0.1388354E+00  0.9092852E+02  0.7818608E-02  0.1300619E+00
          1   -1    0    0  501    0  0.00000000000E+00  0.00000000000E+00  0.33753705478E+03  0.33753705482E+03  0.46700000000E-02 0. -1.
         -1   -1    0    0    0  501 -0.00000000000E+00 -0.00000000000E+00 -0.61237680254E+01  0.61237698061E+01  0.46700000000E-02 0.  1.
         23    2    1    2    0    0  0.00000000000E+00  0.00000000000E+00  0.33141328676E+03  0.34366082462E+03  0.90928519949E+02 0.  0.
        -13    1    3    3    0    0  0.27391613182E+02  0.33471091736E+02  0.11274381941E+03  0.12075510110E+03  0.10570000000E+00 0.  1.
         13    1    3    3    0    0 -0.27391613182E+02 -0.33471091736E+02  0.21866946735E+03  0.22290572352E+03  0.10570000000E+00 0. -1.
<mgrwt>
<rscale>  0 0.90928520E+02</rscale>
<asrwt>0</asrwt>
<pdfrwt beam="1">  1        1 0.51928806E-01 0.90928520E+02</pdfrwt>
<pdfrwt beam="2">  1       -1 0.94211778E-03 0.90928520E+02</pdfrwt>
<totfact> 0.13192704E+05</totfact>
</mgrwt>
</event>
<event>
 5   1  0.1388354E+00  0.9074603E+02  0.7818608E-02  0.1301055E+00
         -1   -1    0    0    0  501 -0.00000000000E+00  0.00000000000E+00  0.11904584531E+03  0.11904584540E+03  0.46700000000E-02 0.  1.
          1   -1    0    0  501    0  0.00000000000E+00 -0.00000000000E+00 -0.17293426427E+02  0.17293427057E+02  0.46700000000E-02 0. -1.
         23    2    1    2    0    0  0.00000000000E+00  0.00000000000E+00  0.10175241889E+03  0.13633927246E+03  0.90746032785E+02 0.  0.
        -13    1    3    3    0    0  0.33920994590E+02 -0.20491627747E+02  0.84071300862E+02  0.92943722127E+02  0.10570000000E+00 0.  1.
         13    1    3    3    0    0 -0.33920994590E+02  0.20491627747E+02  0.17681118023E+02  0.43395550334E+02  0.10570000000E+00 0. -1.
<mgrwt>
<rscale>  0 0.90746033E+02</rscale>
<asrwt>0</asrwt>
<pdfrwt beam="2">  1        1 0.26605273E-02 0.90746033E+02</pdfrwt>
<pdfrwt beam="1">  1       -1 0.18314745E-01 0.90746033E+02</pdfrwt>
<totfact> 0.79627136E+04</totfact>
</mgrwt>
</event>
<event>
 5   1  0.1388354E+00  0.9157611E+02  0.7818608E-02  0.1299079E+00
         -1   -1    0    0    0  501 -0.00000000000E+00  0.00000000000E+00  0.98692509412E+01  0.98692520461E+01  0.46700000000E-02 0. -1.
          1   -1    0    0  501    0  0.00000000000E+00 -0.00000000000E+00 -0.21243209606E+03  0.21243209611E+03  0.46700000000E-02 0.  1.
         23    2    1    2    0    0  0.00000000000E+00  0.00000000000E+00 -0.20256284512E+03  0.22230134816E+03  0.91576105890E+02 0.  0.
        -13    1    3    3    0    0 -0.35335428362E+02 -0.14689345526E+02 -0.40246944612E+02  0.55535548009E+02  0.10570000000E+00 0. -1.
         13    1    3    3    0    0  0.35335428362E+02  0.14689345526E+02 -0.16231590051E+03  0.16676580015E+03  0.10570000000E+00 0.  1.
<mgrwt>
<rscale>  0 0.91576106E+02</rscale>
<asrwt>0</asrwt>
<pdfrwt beam="2">  1        1 0.32681858E-01 0.91576106E+02</pdfrwt>
<pdfrwt beam="1">  1       -1 0.15183465E-02 0.91576106E+02</pdfrwt>
<totfact> 0.11840697E+05</totfact>
</mgrwt>
</event>
<event>
 5   1  0.1388354E+00  0.8966100E+02  0.7818608E-02  0.1303675E+00
          1   -1    0    0  501    0  0.00000000000E+00  0.00000000000E+00  0.17202770986E+03  0.17202770992E+03  0.46700000000E-02 0. -1.
         -1   -1    0    0    0  501 -0.00000000000E+00 -0.00000000000E+00 -0.11682847945E+02  0.11682848878E+02  0.46700000000E-02 0.  1.
         23    2    1    2    0    0  0.00000000000E+00  0.00000000000E+00  0.16034486191E+03  0.18371055880E+03  0.89660998615E+02 0.  0.
        -13    1    3    3    0    0  0.23423079466E+02 -0.29633789852E+02  0.30701503472E+02  0.48676438249E+02  0.10570000000E+00 0.  1.
         13    1    3    3    0    0 -0.23423079466E+02  0.29633789852E+02  0.12964335844E+03  0.13503412055E+03  0.10570000000E+00 0. -1.
<mgrwt>
<rscale>  0 0.89660999E+02</rscale>
<asrwt>0</asrwt>
<pdfrwt beam="1">  1        1 0.26465801E-01 0.89660999E+02</pdfrwt>
<pdfrwt beam="2">  1       -1 0.17973613E-02 0.89660999E+02</pdfrwt>
<totfact> 0.12032920E+05</totfact>
</mgrwt>
</event>
<event>
 5   1  0.1388354E+00  0.9185084E+02  0.7818608E-02  0.1298431E+00
          1   -1    0    0  501    0  0.00000000000E+00  0.00000000000E+00  0.37572222022E+02  0.37572222312E+02  0.46700000000E-02 0. -1.
         -1   -1    0    0    0  501 -0.00000000000E+00 -0.00000000000E+00 -0.56135728156E+02  0.56135728350E+02  0.46700000000E-02 0.  1.
         23    2    1    2    0    0  0.00000000000E+00  0.00000000000E+00 -0.18563506134E+02  0.93707950663E+02  0.91850836999E+02 0.  0.
        -13    1    3    3    0    0  0.48264056467E+01  0.12260126526E+02  0.35602401674E+02  0.37962442906E+02  0.10570000000E+00 0. -1.
         13    1    3    3    0    0 -0.48264056467E+01 -0.12260126526E+02 -0.54165907808E+02  0.55745507757E+02  0.10570000000E+00 0.  1.
<mgrwt>
<rscale>  0 0.91850837E+02</rscale>
<asrwt>0</asrwt>
<pdfrwt beam="1">  1        1 0.57803419E-02 0.91850837E+02</pdfrwt>
<pdfrwt beam="2">  1       -1 0.86362659E-02 0.91850837E+02</pdfrwt>
<totfact> 0.87943433E+04</totfact>
</mgrwt>
</event>
<event>
 5   1  0.1388354E+00  0.8832764E+02  0.7818608E-02  0.1306953E+00
          1   -1    0    0  501    0  0.00000000000E+00  0.00000000000E+00  0.19330613199E+02  0.19330613763E+02  0.46700000000E-02 0.  1.
         -1   -1    0    0    0  501 -0.00000000000E+00 -0.00000000000E+00 -0.10089918497E+03  0.10089918507E+03  0.46700000000E-02 0. -1.
         23    2    1    2    0    0  0.00000000000E+00  0.00000000000E+00 -0.81568571768E+02  0.12022979884E+03  0.88327643624E+02 0.  0.
        -13    1    3    3    0    0 -0.24289274956E+02 -0.84579013007E+01  0.80842849828E+01  0.26960560241E+02  0.10570000000E+00 0.  1.
         13    1    3    3    0    0  0.24289274956E+02  0.84579013007E+01 -0.89652856751E+02  0.93269238597E+02  0.10570000000E+00 0. -1.
<mgrwt>
<rscale>  0 0.88327644E+02</rscale>
<asrwt>0</asrwt>
<pdfrwt beam="1">  1        1 0.29739406E-02 0.88327644E+02</pdfrwt>
<pdfrwt beam="2">  1       -1 0.15522951E-01 0.88327644E+02</pdfrwt>
<totfact> 0.88146786E+04</totfact>
</mgrwt>
</event>
<event>
 5   1  0.1388354E+00  0.9364179E+02  0.7818608E-02  0.1294265E+00
          1   -1    0    0  501    0  0.00000000000E+00  0.00000000000E+00  0.46075017300E+02  0.46075017537E+02  0.46700000000E-02 0. -1.
         -1   -1    0    0    0  501 -0.00000000000E+00 -0.00000000000E+00 -0.47578850549E+02  0.47578850778E+02  0.46700000000E-02 0.  1.
         23    2    1    2    0    0  0.00000000000E+00  0.00000000000E+00 -0.15038332494E+01  0.93653868315E+02  0.93641793746E+02 0.  0.
        -13    1    3    3    0    0 -0.21511370632E+02  0.29359185991E+02  0.28704968336E+02  0.46353934549E+02  0.10570000000E+00 0.  1.
         13    1    3    3    0    0  0.21511370632E+02 -0.29359185991E+02 -0.30208801586E+02  0.47299933766E+02  0.10570000000E+00 0. -1.
<mgrwt>
<rscale>  0 0.93641794E+02</rscale>
<asrwt>0</asrwt>
<pdfrwt beam="1">  1        1 0.70884642E-02 0.93641794E+02</pdfrwt>
<pdfrwt beam="2">  1       -1 0.73198232E-02 0.93641794E+02</pdfrwt>
<totfact> 0.85921257E+04</totfact>
</mgrwt>
</event>
<event>
 5   1  0.1388354E+00  0.8973018E+02  0.7818608E-02  0.1303506E+00
          1   -1    0    0  501    0  0.00000000000E+00  0.00000000000E+00  0.11307270987E+03  0.11307270997E+03  0.46700000000E-02 0. -1.
         -1   -1    0    0    0  501 -0.00000000000E+00 -0.00000000000E+00 -0.17801609916E+02  0.17801610528E+02  0.46700000000E-02 0.  1.
         23    2    1    2    0    0  0.00000000000E+00  0.00000000000E+00  0.95271099954E+02  0.13087432049E+03  0.89730180422E+02 0.  0.
        -13    1    3    3    0    0  0.14676843015E+02 -0.32084829529E+02  0.88056072236E+02  0.94861631005E+02  0.10570000000E+00 0. -1.
         13    1    3    3    0    0 -0.14676843015E+02  0.32084829529E+02  0.72150277174E+01  0.36012689489E+02  0.10570000000E+00 0.  1.
<mgrwt>
<rscale>  0 0.89730180E+02</rscale>
<asrwt>0</asrwt>
<pdfrwt beam="1">  1        1 0.17395802E-01 0.89730180E+02</pdfrwt>
<pdfrwt beam="2">  1       -1 0.27387093E-02 0.89730180E+02</pdfrwt>
<totfact> 0.11136627E+05</totfact>
</mgrwt>
</event>
<event>
 5   1  0.1388354E+00  0.9759529E+02  0.7818608E-02  0.1285436E+00
         -1   -1    0    0    0  501 -0.00000000000E+00  0.00000000000E+00  0.20096757339E+02  0.20096757882E+02  0.46700000000E-02 0.  1.
          1   -1    0    0  501    0  0.00000000000E+00 -0.00000000000E+00 -0.11848727992E+03  0.11848728002E+03  0.46700000000E-02 0. -1.
         23    2    1    2    0    0  0.00000000000E+00  0.00000000000E+00 -0.98390522586E+02  0.13858403790E+03  0.97595289976E+02 0.  0.
        -13    1    3    3    0    0  0.44056858922E+02 -0.63330477323E+01 -0.20792516666E+02  0.49126919641E+02  0.10570000000E+00 0.  1.
         13    1    3    3    0    0 -0.44056858922E+02  0.63330477323E+01 -0.77598005920E+02  0.89457118257E+02  0.10570000000E+00 0. -1.
<mgrwt>
<rscale>  0 0.97595290E+02</rscale>
<asrwt>0</asrwt>
<pdfrwt beam="2">  1        1 0.18228812E-01 0.97595290E+02</pdfrwt>
<pdfrwt beam="1">  1       -1 0.30918089E-02 0.97595290E+02</pdfrwt>
<totfact> 0.89301214E+04</totfact>
</mgrwt>
</event>
<event>
 5   1  0.1388354E+00  0.9021004E+02  0.7818608E-02  0.1302344E+00
          1   -1    0    0  501    0  0.00000000000E+00  0.00000000000E+00  0.70637943417E+02  0.70637943572E+02  0.46700000000E-02 0. -1.
         -1   -1    0    0    0  501 -0.00000000000E+00 -0.00000000000E+00 -0.28801273280E+02  0.28801273659E+02  0.46700000000E-02 0.  1.
         23    2    1    2    0    0  0.00000000000E+00  0.00000000000E+00  0.41836670137E+02  0.99439217231E+02  0.90210037996E+02 0.  0.
        -13    1    3    3    0    0 -0.28445108787E+02 -0.34404571590E+02  0.28032516941E+02  0.52712730329E+02  0.10570000000E+00 0. -1.
         13    1    3    3    0    0  0.28445108787E+02  0.34404571590E+02  0.13804153196E+02  0.46726486901E+02  0.10570000000E+00 0.  1.
<mgrwt>
<rscale>  0 0.90210038E+02</rscale>
<asrwt>0</asrwt>
<pdfrwt beam="1">  1        1 0.10867376E-01 0.90210038E+02</pdfrwt>
<pdfrwt beam="2">  1       -1 0.44309652E-02 0.90210038E+02</pdfrwt>
<totfact> 0.10174792E+05</totfact>
</mgrwt>
</event>
<event>
 5   1  0.1388354E+00  0.9131185E+02  0.7818608E-02  0.1299706E+00
         -1   -1    0    0    0  501 -0.00000000000E+00  0.00000000000E+00  0.25865112851E+03  0.25865112855E+03  0.46700000000E-02 0.  1.
          1   -1    0    0  501    0  0.00000000000E+00 -0.00000000000E+00 -0.80589764020E+01  0.80589777551E+01  0.46700000000E-02 0. -1.
         23    2    1    2    0    0  0.00000000000E+00  0.00000000000E+00  0.25059215211E+03  0.26671010631E+03  0.91311850864E+02 0.  0.
        -13    1    3    3    0    0 -0.33340721537E+02 -0.30686748710E+02  0.14160387415E+03  0.14867733050E+03  0.10570000000E+00 0.  1.
         13    1    3    3    0    0  0.33340721537E+02  0.30686748710E+02  0.10898827796E+03  0.11803277580E+03  0.10570000000E+00 0. -1.
<mgrwt>
<rscale>  0 0.91311851E+02</rscale>
<asrwt>0</asrwt>
<pdfrwt beam="2">  1        1 0.12398427E-02 0.91311851E+02</pdfrwt>
<pdfrwt beam="1">  1       -1 0.39792480E-01 0.91311851E+02</pdfrwt>
<totfact> 0.63764978E+04</totfact>
</mgrwt>
</event>
<event>
 5   1  0.1388354E+00  0.9235940E+02  0.7818608E-02  0.1297237E+00
          1   -1    0    0  501    0  0.00000000000E+00  0.00000000000E+00  0.28442769077E+02  0.28442769460E+02  0.46700000000E-02 0. -1.
         -1   -1    0    0    0  501 -0.00000000000E+00 -0.00000000000E+00 -0.74977390558E+02  0.74977390703E+02  0.46700000000E-02 0.  1.
         23    2    1    2    0    0  0.00000000000E+00  0.00000000000E+00 -0.46534621481E+02  0.10342016016E+03  0.92359398720E+02 0.  0.
        -13    1    3    3    0    0 -0.21616041487E+02 -0.90651520210E+01  0.21286152654E+02  0.31662938872E+02  0.10570000000E+00 0. -1.
         13    1    3    3    0    0  0.21616041487E+02  0.90651520210E+01 -0.67820774135E+02  0.71757221291E+02  0.10570000000E+00 0.  1.
<mgrwt>
<rscale>  0 0.92359399E+02</rscale>
<asrwt>0</asrwt>
<pdfrwt beam="1">  1        1 0.43758107E-02 0.92359399E+02</pdfrwt>
<pdfrwt beam="2">  1       -1 0.11534983E-01 0.92359399E+02</pdfrwt>
<totfact> 0.82798319E+04</totfact>
</mgrwt>
</event>
<event>
 4   1  0.1388354E+00  0.1314994E+03  0.7818608E-02  0.1225248E+00
         -1   -1    0    0    0  501 -0.00000000000E+00  0.00000000000E+00  0.13761696676E+03  0.13761696684E+03  0.46700000000E-02 0.  1.
          1   -1    0    0  501    0  0.00000000000E+00 -0.00000000000E+00 -0.31413457672E+02  0.31413458019E+02  0.46700000000E-02 0. -1.
        -13    1    1    2    0    0  0.17212460338E+02  0.31202538633E+02  0.12412734290E+03  0.12914130105E+03  0.10570000000E+00 0.  1.
         13    1    1    2    0    0 -0.17212460338E+02 -0.31202538633E+02 -0.17923833808E+02  0.39889123817E+02  0.10570000000E+00 0. -1.
<mgrwt>
<rscale>  0 0.13149943E+03</rscale>
<asrwt>0</asrwt>
<pdfrwt beam="2">  1        1 0.48328396E-02 0.13149943E+03</pdfrwt>
<pdfrwt beam="1">  1       -1 0.21171841E-01 0.13149943E+03</pdfrwt>
<totfact> 0.29338377E+04</totfact>
</mgrwt>
</event>
<event>
 5   1  0.1388354E+00  0.9012746E+02  0.7818608E-02  0.1302543E+00
          1   -1    0    0  501    0  0.00000000000E+00  0.00000000000E+00  0.21095789818E+03  0.21095789823E+03  0.46700000000E-02 0. -1.
         -1   -1    0    0    0  501 -0.00000000000E+00 -0.00000000000E+00 -0.96262793478E+01  0.96262804806E+01  0.46700000000E-02 0.  1.
         23    2    1    2    0    0  0.00000000000E+00  0.00000000000E+00  0.20133161883E+03  0.22058417871E+03  0.90127460613E+02 0.  0.
        -13    1    3    3    0    0  0.40087026934E+02  0.12297160470E+02  0.14107045866E+03  0.14717022580E+03  0.10570000000E+00 0. -1.
         13    1    3    3    0    0 -0.40087026934E+02 -0.12297160470E+02  0.60261160178E+02  0.73413952914E+02  0.10570000000E+00 0.  1.
<mgrwt>
<rscale>  0 0.90127461E+02</rscale>
<asrwt>0</asrwt>
<pdfrwt beam="1">  1        1 0.32455058E-01 0.90127461E+02</pdfrwt>
<pdfrwt beam="2">  1       -1 0.14809663E-02 0.90127461E+02</pdfrwt>
<totfact> 0.12340445E+05</totfact>
</mgrwt>
</event>
<event>
 5   1  0.1388354E+00  0.9159717E+02  0.7818608E-02  0.1299029E+00
          1   -1    0    0  501    0  0.00000000000E+00  0.00000000000E+00  0.29079880733E+02  0.29079881108E+02  0.46700000000E-02 0. -1.
         -1   -1    0    0    0  501 -0.00000000000E+00 -0.00000000000E+00 -0.72129267920E+02  0.72129268071E+02  0.46700000000E-02 0.  1.
         23    2    1    2    0    0  0.00000000000E+00  0.00000000000E+00 -0.43049387187E+02  0.10120914918E+03  0.91597173212E+02 0.  0.
        -13    1    3    3    0    0  0.12915689400E+02 -0.32355642282E+02 -0.54373069434E+02  0.64576655785E+02  0.10570000000E+00 0.  1.
         13    1    3    3    0    0 -0.12915689400E+02  0.32355642282E+02  0.11323682247E+02  0.36632493394E+02  0.10570000000E+00 0. -1.
<mgrwt>
<rscale>  0 0.91597173E+02</rscale>
<asrwt>0</asrwt>
<pdfrwt beam="1">  1        1 0.44738279E-02 0.91597173E+02</pdfrwt>
<pdfrwt beam="2">  1       -1 0.11096810E-01 0.91597173E+02</pdfrwt>
<totfact> 0.85112985E+04</totfact>
</mgrwt>
</event>
<event>
 5   1  0.1388354E+00  0.9282798E+02  0.7818608E-02  0.1296144E+00
          1   -1    0    0  501    0  0.00000000000E+00  0.00000000000E+00  0.72163973875E+01  0.72163988986E+01  0.46700000000E-02 0. -1.
         -1   -1    0    0    0  501 -0.00000000000E+00 -0.00000000000E+00 -0.29852267377E+03  0.29852267381E+03  0.46700000000E-02 0.  1.
         23    2    1    2    0    0  0.00000000000E+00  0.00000000000E+00 -0.29130627639E+03  0.30573907271E+03  0.92827980259E+02 0.  0.
        -13    1    3    3    0    0 -0.17047055056E+02  0.42545888774E+02 -0.16974213827E+03  0.17582138497E+03  0.10570000000E+00 0. -1.
         13    1    3    3    0    0  0.17047055056E+02 -0.42545888774E+02 -0.12156413812E+03  0.12991768774E+03  0.10570000000E+00 0.  1.
<mgrwt>
<rscale>  0 0.92827980E+02</rscale>
<asrwt>0</asrwt>
<pdfrwt beam="1">  1        1 0.11102153E-02 0.92827980E+02</pdfrwt>
<pdfrwt beam="2">  1       -1 0.45926556E-01 0.92827980E+02</pdfrwt>
<totfact> 0.57917278E+04</totfact>
</mgrwt>
</event>
<event>
 5   1  0.1388354E+00  0.9042366E+02  0.7818608E-02  0.1301829E+00
         -1   -1    0    0    0  501 -0.00000000000E+00  0.00000000000E+00  0.12865464846E+03  0.12865464854E+03  0.46700000000E-02 0.  1.
          1   -1    0    0  501    0  0.00000000000E+00 -0.00000000000E+00 -0.15888346398E+02  0.15888347084E+02  0.46700000000E-02 0. -1.
         23    2    1    2    0    0  0.00000000000E+00  0.00000000000E+00  0.11276630206E+03  0.14454299563E+03  0.90423662305E+02 0.  0.
        -13    1    3    3    0    0  0.19993248965E+02 -0.23016959396E+02  0.10975007308E+03  0.11390610228E+03  0.10570000000E+00 0.  1.
         13    1    3    3    0    0 -0.19993248965E+02  0.23016959396E+02  0.30162289804E+01  0.30636893344E+02  0.10570000000E+00 0. -1.
<mgrwt>
<rscale>  0 0.90423662E+02</rscale>
<asrwt>0</asrwt>
<pdfrwt beam="2">  1        1 0.24443611E-02 0.90423662E+02</pdfrwt>
<pdfrwt beam="1">  1       -1 0.19793023E-01 0.90423662E+02</pdfrwt>
<totfact> 0.79075279E+04</totfact>
</mgrwt>
</event>
<event>
 5   1  0.1388354E+00  0.1020159E+03  0.7818608E-02  0.1276113E+00
         -1   -1    0    0    0  501 -0.00000000000E+00  0.00000000000E+00  0.42855854493E+02  0.42855854748E+02  0.46700000000E-02 0.  1.
          1   -1    0    0  501    0  0.00000000000E+00 -0.00000000000E+00 -0.60710770769E+02  0.60710770949E+02  0.46700000000E-02 0. -1.
         23    2    1    2    0    0  0.00000000000E+00  0.00000000000E+00 -0.17854916276E+02  0.10356662570E+03  0.10201591995E+03 0.  0.
        -13    1    3    3    0    0 -0.25022073034E+02  0.21778746518E+02  0.30409212966E+02  0.45001659353E+02  0.10570000000E+00 0.  1.
         13    1    3    3    0    0  0.25022073034E+02 -0.21778746518E+02 -0.48264129242E+02  0.58564966343E+02  0.10570000000E+00 0. -1.
<mgrwt>
<rscale>  0 0.10201592E+03</rscale>
<asrwt>0</asrwt>
<pdfrwt beam="2">  1        1 0.93401187E-02 0.10201592E+03</pdfrwt>
<pdfrwt beam="1">  1       -1 0.65932084E-02 0.10201592E+03</pdfrwt>
<totfact> 0.70504786E+04</totfact>
</mgrwt>
</event>
<event>
 5   1  0.1388354E+00  0.9324298E+02  0.7818608E-02  0.1295183E+00
         -1   -1    0    0    0  501 -0.00000000000E+00  0.00000000000E+00  0.87636353644E+01  0.87636366086E+01  0.46700000000E-02 0.  1.
          1   -1    0    0  501    0  0.00000000000E+00 -0.00000000000E+00 -0.24802070479E+03  0.24802070483E+03  0.46700000000E-02 0. -1.
         23    2    1    2    0    0  0.00000000000E+00  0.00000000000E+00 -0.23925706942E+03  0.25678434144E+03  0.93242976893E+02 0.  0.
        -13    1    3    3    0    0  0.38844988913E+02 -0.10291211599E+01 -0.48688331704E+02  0.62294117464E+02  0.10570000000E+00 0.  1.
         13    1    3    3    0    0 -0.38844988913E+02  0.10291211599E+01 -0.19056873772E+03  0.19449022398E+03  0.10570000000E+00 0. -1.
<mgrwt>
<rscale>  0 0.93242977E+02</rscale>
<asrwt>0</asrwt>
<pdfrwt beam="2">  1        1 0.38157026E-01 0.93242977E+02</pdfrwt>
<pdfrwt beam="1">  1       -1 0.13482519E-02 0.93242977E+02</pdfrwt>
<totfact> 0.11629003E+05</totfact>
</mgrwt>
</event>
<event>
 5   1  0.1388354E+00  0.9150058E+02  0.7818608E-02  0.1299258E+00
         -1   -1    0    0    0  501 -0.00000000000E+00  0.00000000000E+00  0.17544063605E+02  0.17544064226E+02  0.46700000000E-02 0.  1.
          1   -1    0    0  501    0  0.00000000000E+00 -0.00000000000E+00 -0.11930469285E+03  0.11930469294E+03  0.46700000000E-02 0. -1.
         23    2    1    2    0    0  0.00000000000E+00  0.00000000000E+00 -0.10176062924E+03  0.13684875717E+03  0.91500582916E+02 0.  0.
        -13    1    3    3    0    0 -0.23477436675E+02  0.14955793725E+02  0.34209144512E+01  0.28046026937E+02  0.10570000000E+00 0.  1.
         13    1    3    3    0    0  0.23477436675E+02 -0.14955793725E+02 -0.10518154369E+03  0.10880273023E+03  0.10570000000E+00 0. -1.
<mgrwt>
<rscale>  0 0.91500583E+02</rscale>
<asrwt>0</asrwt>
<pdfrwt beam="2">  1        1 0.18354568E-01 0.91500583E+02</pdfrwt>
<pdfrwt beam="1">  1       -1 0.26990868E-02 0.91500583E+02</pdfrwt>
<totfact> 0.10659911E+05</totfact>
</mgrwt>
</event>
<event>
 5   1  0.1388354E+00  0.9071789E+02  0.7818608E-02  0.1301122E+00
         -1   -1    0    0    0  501 -0.00000000000E+00  0.00000000000E+00  0.10106418912E+03  0.10106418923E+03  0.46700000000E-02 0.  1.
          1   -1    0    0  501    0  0.00000000000E+00 -0.00000000000E+00 -0.20357693143E+02  0.20357693678E+02  0.46700000000E-02 0. -1.
         23    2    1    2    0    0  0.00000000000E+00  0.00000000000E+00  0.80706495982E+02  0.12142188291E+03  0.90717887740E+02 0.  0.
        -13    1    3    3    0    0 -0.33213880464E+02 -0.29624813625E+02  0.52069987818E+02  0.68498804673E+02  0.10570000000E+00 0.  1.
         13    1    3    3    0    0  0.33213880464E+02  0.29624813625E+02  0.28636508164E+02  0.52923078238E+02  0.10570000000E+00 0. -1.
<mgrwt>
<rscale>  0 0.90717888E+02</rscale>
<asrwt>0</asrwt>
<pdfrwt beam="2">  1        1 0.31319528E-02 0.90717888E+02</pdfrwt>
<pdfrwt beam="1">  1       -1 0.15548337E-01 0.90717888E+02</pdfrwt>
<totfact> 0.82272139E+04</totfact>
</mgrwt>
</event>
<event>
 5   1  0.1388354E+00  0.9347066E+02  0.7818608E-02  0.1294658E+00
          1   -1    0    0  501    0  0.00000000000E+00  0.00000000000E+00  0.82411332109E+02  0.82411332241E+02  0.46700000000E-02 0. -1.
         -1   -1    0    0    0  501 -0.00000000000E+00 -0.00000000000E+00 -0.26503528321E+02  0.26503528733E+02  0.46700000000E-02 0.  1.
         23    2    1    2    0    0  0.00000000000E+00  0.00000000000E+00  0.55907803788E+02  0.10891486097E+03  0.93470660726E+02 0.  0.
        -13    1    3    3    0    0 -0.18766031856E+02  0.34034607170E+02 -0.22896427889E+01  0.38932917608E+02  0.10570000000E+00 0.  1.
         13    1    3    3    0    0  0.18766031856E+02 -0.34034607170E+02  0.58197446577E+02  0.69981943367E+02  0.10570000000E+00 0. -1.
<mgrwt>
<rscale>  0 0.93470661E+02</rscale>
<asrwt>0</asrwt>
<pdfrwt beam="1">  1        1 0.12678666E-01 0.93470661E+02</pdfrwt>
<pdfrwt beam="2">  1       -1 0.40774660E-02 0.93470661E+02</pdfrwt>
<totfact> 0.94535473E+04</totfact>
</mgrwt>
</event>
<event>
 5   1  0.1388354E+00  0.9239786E+02  0.7818608E-02  0.1297147E+00
         -1   -1    0    0    0  501 -0.00000000000E+00  0.00000000000E+00  0.26579987128E+02  0.26579987538E+02  0.46700000000E-02 0.  1.
          1   -1    0    0  501    0  0.00000000000E+00 -0.00000000000E+00 -0.80298801141E+02  0.80298801277E+02  0.46700000000E-02 0. -1.
         23    2    1    2    0    0  0.00000000000E+00  0.00000000000E+00 -0.53718814013E+02  0.10687878881E+03  0.92397859930E+02 0.  0.
        -13    1    3    3    0    0 -0.21656934686E+02 -0.26754927818E+02 -0.62502283414E+02  0.71354015913E+02  0.10570000000E+00 0. -1.
         13    1    3    3    0    0  0.21656934686E+02  0.26754927818E+02  0.87834694011E+01  0.35524772902E+02  0.10570000000E+00 0.  1.
<mgrwt>
<rscale>  0 0.92397860E+02</rscale>
<asrwt>0</asrwt>
<pdfrwt beam="2">  1        1 0.12353662E-01 0.92397860E+02</pdfrwt>
<pdfrwt beam="1">  1       -1 0.40892289E-02 0.92397860E+02</pdfrwt>
<totfact> 0.97182990E+04</totfact>
</mgrwt>
</event>
<event>
 5   1  0.1388354E+00  0.9135398E+02  0.7818608E-02  0.1299606E+00
         -1   -1    0    0    0  501 -0.00000000000E+00  0.00000000000E+00  0.60540767279E+01  0.60540785291E+01  0.46700000000E-02 0.  1.
          1   -1    0    0  501    0  0.00000000000E+00 -0.00000000000E+00 -0.34462513898E+03  0.34462513901E+03  0.46700000000E-02 0. -1.
         23    2    1    2    0    0  0.00000000000E+00  0.00000000000E+00 -0.33857106225E+03  0.35067921754E+03  0.91353978679E+02 0.  0.
        -13    1    3    3    0    0 -0.39142282932E+02 -0.19144965045E+02 -0.11669018707E+03  0.12456026225E+03  0.10570000000E+00 0.  1.
         13    1    3    3    0    0  0.39142282932E+02  0.19144965045E+02 -0.22188087518E+03  0.22611895529E+03  0.10570000000E+00 0. -1.
<mgrwt>
<rscale>  0 0.91353979E+02</rscale>
<asrwt>0</asrwt>
<pdfrwt beam="2">  1        1 0.53019237E-01 0.91353979E+02</pdfrwt>
<pdfrwt beam="1">  1       -1 0.93139683E-03 0.91353979E+02</pdfrwt>
<totfact> 0.13078975E+05</totfact>
</mgrwt>
</event>
<event>
 5   1  0.1388354E+00  0.9010006E+02  0.7818608E-02  0.1302610E+00
          1   -1    0    0  501    0  0.00000000000E+00  0.00000000000E+00  0.17949089463E+02  0.17949090070E+02  0.46700000000E-02 0. -1.
         -1   -1    0    0    0  501 -0.00000000000E+00 -0.00000000000E+00 -0.11307009523E+03  0.11307009532E+03  0.46700000000E-02 0.  1.
         23    2    1    2    0    0  0.00000000000E+00  0.00000000000E+00 -0.95121005762E+02  0.13101918539E+03  0.90100062173E+02 0.  0.
        -13    1    3    3    0    0 -0.18635642918E+02 -0.15765691774E+02  0.74988825167E+01  0.25536026229E+02  0.10570000000E+00 0. -1.
         13    1    3    3    0    0  0.18635642918E+02  0.15765691774E+02 -0.10261988828E+03  0.10548315916E+03  0.10570000000E+00 0.  1.
<mgrwt>
<rscale>  0 0.90100062E+02</rscale>
<asrwt>0</asrwt>
<pdfrwt beam="1">  1        1 0.27613985E-02 0.90100062E+02</pdfrwt>
<pdfrwt beam="2">  1       -1 0.17395399E-01 0.90100062E+02</pdfrwt>
<totfact> 0.81949384E+04</totfact>
</mgrwt>
</event>
<event>
 5   1  0.1388354E+00  0.9161488E+02  0.7818608E-02  0.1298987E+00
         -1   -1    0    0    0  501 -0.00000000000E+00  0.00000000000E+00  0.81489890473E+01  0.81489903855E+01  0.46700000000E-02 0.  1.
          1   -1    0    0  501    0  0.00000000000E+00 -0.00000000000E+00 -0.25749467581E+03  0.25749467585E+03  0.46700000000E-02 0. -1.
         23    2    1    2    0    0  0.00000000000E+00  0.00000000000E+00 -0.24934568676E+03  0.26564366623E+03  0.91614878186E+02 0.  0.
        -13    1    3    3    0    0 -0.16438415390E+02  0.38463836303E+02 -0.17881192873E+03  0.18363933465E+03  0.10570000000E+00 0. -1.
         13    1    3    3    0    0  0.16438415390E+02 -0.38463836303E+02 -0.70533758029E+02  0.82004331579E+02  0.10570000000E+00 0.  1.
<mgrwt>
<rscale>  0 0.91614878E+02</rscale>
<asrwt>0</asrwt>
<pdfrwt beam="2">  1        1 0.39614559E-01 0.91614878E+02</pdfrwt>
<pdfrwt beam="1">  1       -1 0.12536909E-02 0.91614878E+02</pdfrwt>
<totfact> 0.12280032E+05</totfact>
</mgrwt>
</event>
<event>
 5   1  0.1388354E+00  0.9315969E+02  0.7818608E-02  0.1295376E+00
         -1   -1    0    0    0  501 -0.00000000000E+00  0.00000000000E+00  0.25583932694E+02  0.25583933120E+02  0.46700000000E-02 0.  1.
          1   -1    0    0  501    0  0.00000000000E+00 -0.00000000000E+00 -0.84806425793E+02  0.84806425922E+02  0.46700000000E-02 0. -1.
         23    2    1    2    0    0  0.00000000000E+00  0.00000000000E+00 -0.59222493100E+02  0.11039035904E+03  0.93159689139E+02 0.  0.
        -13    1    3    3    0    0 -0.32903854802E+02 -0.24112190713E+02 -0.56255935931E+02  0.69489588441E+02  0.10570000000E+00 0. -1.
         13    1    3    3    0    0  0.32903854802E+02  0.24112190713E+02 -0.29665571684E+01  0.40900770600E+02  0.10570000000E+00 0.  1.
<mgrwt>
<rscale>  0 0.93159689E+02</rscale>
<asrwt>0</asrwt>
<pdfrwt beam="2">  1        1 0.13047142E-01 0.93159689E+02</pdfrwt>
<pdfrwt beam="1">  1       -1 0.39359897E-02 0.93159689E+02</pdfrwt>
<totfact> 0.95848696E+04</totfact>
</mgrwt>
</event>
<event>
 5   1  0.1388354E+00  0.9372713E+02  0.7818608E-02  0.1294069E+00
         -1   -1    0    0    0  501 -0.00000000000E+00  0.00000000000E+00  0.55513810176E+01  0.55513829819E+01  0.46700000000E-02 0.  1.
          1   -1    0    0  501    0  0.00000000000E+00 -0.00000000000E+00 -0.39561203538E+03  0.39561203541E+03  0.46700000000E-02 0. -1.
         23    2    1    2    0    0  0.00000000000E+00  0.00000000000E+00 -0.39006065436E+03  0.40116341839E+03  0.93727126128E+02 0.  0.
        -13    1    3    3    0    0  0.45411558944E+02 -0.11425091685E+02 -0.20296872804E+03  0.20830040361E+03  0.10570000000E+00 0.  1.
         13    1    3    3    0    0 -0.45411558944E+02  0.11425091685E+02 -0.18709192632E+03  0.19286301478E+03  0.10570000000E+00 0. -1.
<mgrwt>
<rscale>  0 0.93727126E+02</rscale>
<asrwt>0</asrwt>
<pdfrwt beam="2">  1        1 0.60863368E-01 0.93727126E+02</pdfrwt>
<pdfrwt beam="1">  1       -1 0.85405908E-03 0.93727126E+02</pdfrwt>
<totfact> 0.12511841E+05</totfact>
</mgrwt>
</event>
<event>
 5   1  0.1388354E+00  0.9088888E+02  0.7818608E-02  0.1300713E+00
          1   -1    0    0  501    0  0.00000000000E+00  0.00000000000E+00  0.13674857865E+03  0.13674857873E+03  0.46700000000E-02 0. -1.
         -1   -1    0    0    0  501 -0.00000000000E+00 -0.00000000000E+00 -0.15102147873E+02  0.15102148595E+02  0.46700000000E-02 0.  1.
         23    2    1    2    0    0  0.00000000000E+00  0.00000000000E+00  0.12164643078E+03  0.15185072732E+03  0.90888884184E+02 0.  0.
        -13    1    3    3    0    0 -0.34524246464E+02  0.27373408407E+02  0.79424598901E+02  0.90826786603E+02  0.10570000000E+00 0. -1.
         13    1    3    3    0    0  0.34524246464E+02 -0.27373408407E+02  0.42221831876E+02  0.61023940721E+02  0.10570000000E+00 0.  1.
<mgrwt>
<rscale>  0 0.90888884E+02</rscale>
<asrwt>0</asrwt>
<pdfrwt beam="1">  1        1 0.21038244E-01 0.90888884E+02</pdfrwt>
<pdfrwt beam="2">  1       -1 0.23234073E-02 0.90888884E+02</pdfrwt>
<totfact> 0.11120805E+05</totfact>
</mgrwt>
</event>
<event>
 5   1  0.1388354E+00  0.9023076E+02  0.7818608E-02  0.1302294E+00
         -1   -1    0    0    0  501 -0.00000000000E+00  0.00000000000E+00  0.11996207503E+03  0.11996207512E+03  0.46700000000E-02 0.  1.
          1   -1    0    0  501    0  0.00000000000E+00 -0.00000000000E+00 -0.16967007361E+02  0.16967008004E+02  0.46700000000E-02 0. -1.
         23    2    1    2    0    0  0.00000000000E+00  0.00000000000E+00  0.10299506767E+03  0.13692908312E+03  0.90230758842E+02 0.  0.
        -13    1    3    3    0    0  0.83804747765E+01 -0.38195923405E+02  0.85641427220E+02  0.94146832931E+02  0.10570000000E+00 0.  1.
         13    1    3    3    0    0 -0.83804747765E+01  0.38195923405E+02  0.17353640447E+02  0.42782250192E+02  0.10570000000E+00 0. -1.
<mgrwt>
<rscale>  0 0.90230759E+02</rscale>
<asrwt>0</asrwt>
<pdfrwt beam="2">  1        1 0.26103088E-02 0.90230759E+02</pdfrwt>
<pdfrwt beam="1">  1       -1 0.18455705E-01 0.90230759E+02</pdfrwt>
<totfact> 0.80680263E+04</totfact>
</mgrwt>
</event>
<event>
 5   1  0.1388354E+00  0.9072695E+02  0.7818608E-02  0.1301101E+00
         -1   -1    0    0    0  501 -0.00000000000E+00  0.00000000000E+00  0.10124016323E+03  0.10124016334E+03  0.46700000000E-02 0.  1.
          1   -1    0    0  501    0  0.00000000000E+00 -0.00000000000E+00 -0.20326366743E+02  0.20326367280E+02  0.46700000000E-02 0. -1.
         23    2    1    2    0    0  0.00000000000E+00  0.00000000000E+00  0.80913796484E+02  0.12156653061E+03  0.90726946957E+02 0.  0.
        -13    1    3    3    0    0  0.83192868081E+01 -0.44196766795E+02  0.48414335523E+02  0.66079677547E+02  0.10570000000E+00 0. -1.
         13    1    3    3    0    0 -0.83192868081E+01  0.44196766795E+02  0.32499460961E+02  0.55486853067E+02  0.10570000000E+00 0.  1.
<mgrwt>
<rscale>  0 0.90726947E+02</rscale>
<asrwt>0</asrwt>
<pdfrwt beam="2">  1        1 0.31271334E-02 0.90726947E+02</pdfrwt>
<pdfrwt beam="1">  1       -1 0.15575410E-01 0.90726947E+02</pdfrwt>
<totfact> 0.82224297E+04</totfact>
</mgrwt>
</event>
<event>
 5   1  0.1388354E+00  0.8582282E+02  0.7818608E-02  0.1313295E+00
          1   -1    0    0  501    0  0.00000000000E+00  0.00000000000E+00  0.22962405214E+02  0.22962405689E+02  0.46700000000E-02 0. -1.
         -1   -1    0    0    0  501 -0.00000000000E+00 -0.00000000000E+00 -0.80191468130E+02  0.80191468266E+02  0.46700000000E-02 0.  1.
         23    2    1    2    0    0  0.00000000000E+00  0.00000000000E+00 -0.57229062916E+02  0.10315387395E+03  0.85822817884E+02 0.  0.
        -13    1    3    3    0    0 -0.24288099295E+02  0.17001499354E+02 -0.65902093260E+02  0.72263820936E+02  0.10570000000E+00 0.  1.
         13    1    3    3    0    0  0.24288099295E+02 -0.17001499354E+02  0.86730303446E+01  0.30890053018E+02  0.10570000000E+00 0. -1.
<mgrwt>
<rscale>  0 0.85822818E+02</rscale>
<asrwt>0</asrwt>
<pdfrwt beam="1">  1        1 0.35326778E-02 0.85822818E+02</pdfrwt>
<pdfrwt beam="2">  1       -1 0.12337149E-01 0.85822818E+02</pdfrwt>
<totfact> 0.98771433E+04</totfact>
</mgrwt>
</event>
<event>
 5   1  0.1388354E+00  0.9189921E+02  0.7818608E-02  0.1298317E+00
          1   -1    0    0  501    0  0.00000000000E+00  0.00000000000E+00  0.47248143273E+02  0.47248143504E+02  0.46700000000E-02 0. -1.
         -1   -1    0    0    0  501 -0.00000000000E+00 -0.00000000000E+00 -0.44686751133E+02  0.44686751377E+02  0.46700000000E-02 0.  1.
         23    2    1    2    0    0  0.00000000000E+00  0.00000000000E+00  0.25613921395E+01  0.91934894881E+02  0.91899206564E+02 0.  0.
        -13    1    3    3    0    0  0.36003252986E+01 -0.13608354140E+02 -0.42476491555E+02  0.44748331276E+02  0.10570000000E+00 0.  1.
         13    1    3    3    0    0 -0.36003252986E+01  0.13608354140E+02  0.45037883695E+02  0.47186563605E+02  0.10570000000E+00 0. -1.
<mgrwt>
<rscale>  0 0.91899207E+02</rscale>
<asrwt>0</asrwt>
<pdfrwt beam="1">  1        1 0.72689451E-02 0.91899207E+02</pdfrwt>
<pdfrwt beam="2">  1       -1 0.68748849E-02 0.91899207E+02</pdfrwt>
<totfact> 0.90933792E+04</totfact>
</mgrwt>
</event>
<event>
 5   1  0.1388354E+00  0.9187212E+02  0.7818608E-02  0.1298380E+00
          1   -1    0    0  501    0  0.00000000000E+00  0.00000000000E+00  0.20550722880E+03  0.20550722885E+03  0.46700000000E-02 0. -1.
         -1   -1    0    0    0  501 -0.00000000000E+00 -0.00000000000E+00 -0.10267869044E+02  0.10267870106E+02  0.46700000000E-02 0.  1.
         23    2    1    2    0    0  0.00000000000E+00  0.00000000000E+00  0.19523935975E+03  0.21577509895E+03  0.91872116189E+02 0.  0.
        -13    1    3    3    0    0  0.40204952419E+02  0.81045897276E+01  0.49031207859E+02  0.63923337602E+02  0.10570000000E+00 0.  1.
         13    1    3    3    0    0 -0.40204952419E+02 -0.81045897276E+01  0.14620815189E+03  0.15185176135E+03  0.10570000000E+00 0. -1.
<mgrwt>
<rscale>  0 0.91872116E+02</rscale>
<asrwt>0</asrwt>
<pdfrwt beam="1">  1        1 0.31616493E-01 0.91872116E+02</pdfrwt>
<pdfrwt beam="2">  1       -1 0.15796724E-02 0.91872116E+02</pdfrwt>
<totfact> 0.11663004E+05</totfact>
</mgrwt>
</event>
<event>
 5   1  0.1388354E+00  0.9412650E+02  0.7818608E-02  0.1293156E+00
          1   -1    0    0  501    0  0.00000000000E+00  0.00000000000E+00  0.25711290687E+03  0.25711290691E+03  0.46700000000E-02 0. -1.
         -1   -1    0    0    0  501 -0.00000000000E+00 -0.00000000000E+00 -0.86146947087E+01  0.86146959745E+01  0.46700000000E-02 0.  1.
         23    2    1    2    0    0  0.00000000000E+00  0.00000000000E+00  0.24849821216E+03  0.26572760288E+03  0.94126497271E+02 0.  0.
        -13    1    3    3    0    0  0.20674079021E+02 -0.36986154181E+02  0.18207389759E+03  0.18693931770E+03  0.10570000000E+00 0. -1.
         13    1    3    3    0    0 -0.20674079021E+02  0.36986154181E+02  0.66424314566E+02  0.78788285186E+02  0.10570000000E+00 0.  1.
<mgrwt>
<rscale>  0 0.94126497E+02</rscale>
<asrwt>0</asrwt>
<pdfrwt beam="1">  1        1 0.39555830E-01 0.94126497E+02</pdfrwt>
<pdfrwt beam="2">  1       -1 0.13253378E-02 0.94126497E+02</pdfrwt>
<totfact> 0.11418978E+05</totfact>
</mgrwt>
</event>
<event>
 5   1  0.1388354E+00  0.9154733E+02  0.7818608E-02  0.1299147E+00
         -1   -1    0    0    0  501 -0.00000000000E+00  0.00000000000E+00  0.17308179726E+03  0.17308179732E+03  0.46700000000E-02 0.  1.
          1   -1    0    0  501    0  0.00000000000E+00 -0.00000000000E+00 -0.12105421928E+02  0.12105422829E+02  0.46700000000E-02 0. -1.
         23    2    1    2    0    0  0.00000000000E+00  0.00000000000E+00  0.16097637533E+03  0.18518722015E+03  0.91547327064E+02 0.  0.
        -13    1    3    3    0    0  0.30870967664E+02  0.11389466711E+02  0.14485450746E+03  0.14854486225E+03  0.10570000000E+00 0.  1.
         13    1    3    3    0    0 -0.30870967664E+02 -0.11389466711E+02  0.16121867869E+02  0.36642357901E+02  0.10570000000E+00 0. -1.
<mgrwt>
<rscale>  0 0.91547327E+02</rscale>
<asrwt>0</asrwt>
<pdfrwt beam="2">  1        1 0.18623727E-02 0.91547327E+02</pdfrwt>
<pdfrwt beam="1">  1       -1 0.26627968E-01 0.91547327E+02</pdfrwt>
<totfact> 0.71447172E+04</totfact>
</mgrwt>
</event>
<event>
 5   1  0.1388354E+00  0.9157524E+02  0.7818608E-02  0.1299081E+00
         -1   -1    0    0    0  501 -0.00000000000E+00  0.00000000000E+00  0.52790789534E+01  0.52790810190E+01  0.46700000000E-02 0.  1.
          1   -1    0    0  501    0  0.00000000000E+00 -0.00000000000E+00 -0.39713477343E+03  0.39713477345E+03  0.46700000000E-02 0. -1.
         23    2    1    2    0    0  0.00000000000E+00  0.00000000000E+00 -0.39185569447E+03  0.40241385447E+03  0.91575242182E+02 0.  0.
        -13    1    3    3    0    0  0.42773686686E+02 -0.13291078113E+02 -0.23767512680E+03  0.24185888055E+03  0.10570000000E+00 0. -1.
         13    1    3    3    0    0 -0.42773686686E+02  0.13291078113E+02 -0.15418056768E+03  0.16055497392E+03  0.10570000000E+00 0.  1.
<mgrwt>
<rscale>  0 0.91575242E+02</rscale>
<asrwt>0</asrwt>
<pdfrwt beam="2">  1        1 0.61097634E-01 0.91575242E+02</pdfrwt>
<pdfrwt beam="1">  1       -1 0.81216647E-03 0.91575242E+02</pdfrwt>
<totfact> 0.13318024E+05</totfact>
</mgrwt>
</event>
<event>
 5   1  0.1388354E+00  0.9097652E+02  0.7818608E-02  0.1300504E+00
          1   -1    0    0  501    0  0.00000000000E+00  0.00000000000E+00  0.91294217303E+02  0.91294217423E+02  0.46700000000E-02 0. -1.
         -1   -1    0    0    0  501 -0.00000000000E+00 -0.00000000000E+00 -0.22664980126E+02  0.22664980607E+02  0.46700000000E-02 0.  1.
         23    2    1    2    0    0  0.00000000000E+00  0.00000000000E+00  0.68629237177E+02  0.11395919803E+03  0.90976516861E+02 0.  0.
        -13    1    3    3    0    0 -0.35126315306E+02 -0.20967242719E+02  0.59231637013E+02  0.71985285232E+02  0.10570000000E+00 0. -1.
         13    1    3    3    0    0  0.35126315306E+02  0.20967242719E+02  0.93976001644E+01  0.41973912798E+02  0.10570000000E+00 0.  1.
<mgrwt>
<rscale>  0 0.90976517E+02</rscale>
<asrwt>0</asrwt>
<pdfrwt beam="1">  1        1 0.14045264E-01 0.90976517E+02</pdfrwt>
<pdfrwt beam="2">  1       -1 0.34869201E-02 0.90976517E+02</pdfrwt>
<totfact> 0.10351944E+05</totfact>
</mgrwt>
</event>
<event>
 5   1  0.1388354E+00  0.9249992E+02  0.7818608E-02  0.1296908E+00
          1   -1    0    0  501    0  0.00000000000E+00  0.00000000000E+00  0.50278770116E+02  0.50278770333E+02  0.46700000000E-02 0. -1.
         -1   -1    0    0    0  501 -0.00000000000E+00 -0.00000000000E+00 -0.42543979882E+02  0.42543980138E+02  0.46700000000E-02 0.  1.
         23    2    1    2    0    0  0.00000000000E+00  0.00000000000E+00  0.77347902339E+01  0.92822750471E+02  0.92499924459E+02 0.  0.
        -13    1    3    3    0    0 -0.14031610141E+02 -0.37971993179E+02 -0.18577818462E+02  0.44541046917E+02  0.10570000000E+00 0.  1.
         13    1    3    3    0    0  0.14031610141E+02  0.37971993179E+02  0.26312608696E+02  0.48281703554E+02  0.10570000000E+00 0. -1.
<mgrwt>
<rscale>  0 0.92499924E+02</rscale>
<asrwt>0</asrwt>
<pdfrwt beam="1">  1        1 0.77351955E-02 0.92499924E+02</pdfrwt>
<pdfrwt beam="2">  1       -1 0.65452277E-02 0.92499924E+02</pdfrwt>
<totfact> 0.90131373E+04</totfact>
</mgrwt>
</event>
<event>
 5   1  0.1388354E+00  0.9138113E+02  0.7818608E-02  0.1299541E+00
          1   -1    0    0  501    0  0.00000000000E+00  0.00000000000E+00  0.17115696120E+03  0.17115696126E+03  0.46700000000E-02 0. -1.
         -1   -1    0    0    0  501 -0.00000000000E+00 -0.00000000000E+00 -0.12197152133E+02  0.12197153027E+02  0.46700000000E-02 0.  1.
         23    2    1    2    0    0  0.00000000000E+00  0.00000000000E+00  0.15895980906E+03  0.18335411429E+03  0.91381126764E+02 0.  0.
        -13    1    3    3    0    0 -0.28201800257E+02  0.10620192826E+02  0.10570163907E+02  0.31935396833E+02  0.10570000000E+00 0.  1.
         13    1    3    3    0    0  0.28201800257E+02 -0.10620192826E+02  0.14838964516E+03  0.15141871745E+03  0.10570000000E+00 0. -1.
<mgrwt>
<rscale>  0 0.91381127E+02</rscale>
<asrwt>0</asrwt>
<pdfrwt beam="1">  1        1 0.26331839E-01 0.91381127E+02</pdfrwt>
<pdfrwt beam="2">  1       -1 0.18764851E-02 0.91381127E+02</pdfrwt>
<totfact> 0.11423185E+05</totfact>
</mgrwt>
</event>
<event>
 5   1  0.1388354E+00  0.9276234E+02  0.7818608E-02  0.1296297E+00
          1   -1    0    0  501    0  0.00000000000E+00  0.00000000000E+00  0.10777275987E+03  0.10777275997E+03  0.46700000000E-02 0. -1.
         -1   -1    0    0    0  501 -0.00000000000E+00 -0.00000000000E+00 -0.19960635890E+02  0.19960636437E+02  0.46700000000E-02 0.  1.
         23    2    1    2    0    0  0.00000000000E+00  0.00000000000E+00  0.87812123982E+02  0.12773339641E+03  0.92762338480E+02 0.  0.
        -13    1    3    3    0    0  0.37798717546E+02  0.13569491102E+02  0.75854974143E+02  0.85830428238E+02  0.10570000000E+00 0. -1.
         13    1    3    3    0    0 -0.37798717546E+02 -0.13569491102E+02  0.11957149839E+02  0.41902968172E+02  0.10570000000E+00 0.  1.
<mgrwt>
<rscale>  0 0.92762338E+02</rscale>
<asrwt>0</asrwt>
<pdfrwt beam="1">  1        1 0.16580425E-01 0.92762338E+02</pdfrwt>
<pdfrwt beam="2">  1       -1 0.30708670E-02 0.92762338E+02</pdfrwt>
<totfact> 0.10091648E+05</totfact>
</mgrwt>
</event>
<event>
 5   1  0.1388354E+00  0.9194849E+02  0.7818608E-02  0.1298201E+00
         -1   -1    0    0    0  501 -0.00000000000E+00  0.00000000000E+00  0.15696411802E+02  0.15696412497E+02  0.46700000000E-02 0.  1.
          1   -1    0    0  501    0  0.00000000000E+00 -0.00000000000E+00 -0.13465697764E+03  0.13465697772E+03  0.46700000000E-02 0. -1.
         23    2    1    2    0    0  0.00000000000E+00  0.00000000000E+00 -0.11896056584E+03  0.15035339022E+03  0.91948494960E+02 0.  0.
        -13    1    3    3    0    0  0.35204271870E+02  0.23726781642E+02 -0.30628567061E+02  0.52349032634E+02  0.10570000000E+00 0.  1.
         13    1    3    3    0    0 -0.35204271870E+02 -0.23726781642E+02 -0.88331998778E+02  0.98004357584E+02  0.10570000000E+00 0. -1.
<mgrwt>
<rscale>  0 0.91948495E+02</rscale>
<asrwt>0</asrwt>
<pdfrwt beam="2">  1        1 0.20716457E-01 0.91948495E+02</pdfrwt>
<pdfrwt beam="1">  1       -1 0.24148327E-02 0.91948495E+02</pdfrwt>
<totfact> 0.10747504E+05</totfact>
</mgrwt>
</event>
<event>
 5   1  0.1388354E+00  0.9191472E+02  0.7818608E-02  0.1298280E+00
          1   -1    0    0  501    0  0.00000000000E+00  0.00000000000E+00  0.11244064912E+02  0.11244065881E+02  0.46700000000E-02 0. -1.
         -1   -1    0    0    0  501 -0.00000000000E+00 -0.00000000000E+00 -0.18783942604E+03  0.18783942610E+03  0.46700000000E-02 0.  1.
         23    2    1    2    0    0  0.00000000000E+00  0.00000000000E+00 -0.17659536113E+03  0.19908349198E+03  0.91914717031E+02 0.  0.
        -13    1    3    3    0    0  0.26227508931E+02 -0.34727891894E+02 -0.56306026737E+02  0.71163814678E+02  0.10570000000E+00 0. -1.
         13    1    3    3    0    0 -0.26227508931E+02  0.34727891894E+02 -0.12028933440E+03  0.12791967731E+03  0.10570000000E+00 0.  1.
<mgrwt>
<rscale>  0 0.91914717E+02</rscale>
<asrwt>0</asrwt>
<pdfrwt beam="1">  1        1 0.17298564E-02 0.91914717E+02</pdfrwt>
<pdfrwt beam="2">  1       -1 0.28898371E-01 0.91914717E+02</pdfrwt>
<totfact> 0.69184593E+04</totfact>
</mgrwt>
</event>
<event>
 5   1  0.1388354E+00  0.9240409E+02  0.7818608E-02  0.1297132E+00
         -1   -1    0    0    0  501 -0.00000000000E+00  0.00000000000E+00  0.18851597088E+03  0.18851597094E+03  0.46700000000E-02 0.  1.
          1   -1    0    0  501    0  0.00000000000E+00 -0.00000000000E+00 -0.11323330979E+02  0.11323331942E+02  0.46700000000E-02 0. -1.
         23    2    1    2    0    0  0.00000000000E+00  0.00000000000E+00  0.17719263990E+03  0.19983930288E+03  0.92404087250E+02 0.  0.
        -13    1    3    3    0    0 -0.41490144364E+02 -0.31413918823E+01  0.45163990994E+02  0.61409263774E+02  0.10570000000E+00 0. -1.
         13    1    3    3    0    0  0.41490144364E+02  0.31413918823E+01  0.13202864891E+03  0.13843003910E+03  0.10570000000E+00 0.  1.
<mgrwt>
<rscale>  0 0.92404087E+02</rscale>
<asrwt>0</asrwt>
<pdfrwt beam="2">  1        1 0.17420512E-02 0.92404087E+02</pdfrwt>
<pdfrwt beam="1">  1       -1 0.29002453E-01 0.92404087E+02</pdfrwt>
<totfact> 0.68166154E+04</totfact>
</mgrwt>
</event>
<event>
 5   1  0.1388354E+00  0.9210969E+02  0.7818608E-02  0.1297822E+00
          1   -1    0    0  501    0  0.00000000000E+00  0.00000000000E+00  0.19741204249E+03  0.19741204254E+03  0.46700000000E-02 0. -1.
         -1   -1    0    0    0  501 -0.00000000000E+00 -0.00000000000E+00 -0.10744272030E+02  0.10744273045E+02  0.46700000000E-02 0.  1.
         23    2    1    2    0    0  0.00000000000E+00  0.00000000000E+00  0.18666777046E+03  0.20815631559E+03  0.92109691081E+02 0.  0.
        -13    1    3    3    0    0  0.38014947512E+02 -0.20703863120E+02  0.57799100911E+02  0.72211726340E+02  0.10570000000E+00 0.  1.
         13    1    3    3    0    0 -0.38014947512E+02  0.20703863120E+02  0.12886866954E+03  0.13594458925E+03  0.10570000000E+00 0. -1.
<mgrwt>
<rscale>  0 0.92109691E+02</rscale>
<asrwt>0</asrwt>
<pdfrwt beam="1">  1        1 0.30371079E-01 0.92109691E+02</pdfrwt>
<pdfrwt beam="2">  1       -1 0.16529652E-02 0.92109691E+02</pdfrwt>
<totfact> 0.11492193E+05</totfact>
</mgrwt>
</event>
<event>
 5   1  0.1388354E+00  0.7388037E+02  0.7818608E-02  0.1347374E+00
         -1   -1    0    0    0  501 -0.00000000000E+00  0.00000000000E+00  0.15463022704E+02  0.15463023409E+02  0.46700000000E-02 0.  1.
          1   -1    0    0  501    0  0.00000000000E+00 -0.00000000000E+00 -0.88247762020E+02  0.88247762144E+02  0.46700000000E-02 0. -1.
         23    2    1    2    0    0  0.00000000000E+00  0.00000000000E+00 -0.72784739316E+02  0.10371078555E+03  0.73880367910E+02 0.  0.
        -13    1    3    3    0    0 -0.26903292730E+01  0.36065727239E+02 -0.46952525902E+02  0.59266562359E+02  0.10570000000E+00 0. -1.
         13    1    3    3    0    0  0.26903292730E+01 -0.36065727239E+02 -0.25832213415E+02  0.44444223193E+02  0.10570000000E+00 0.  1.
<mgrwt>
<rscale>  0 0.73880368E+02</rscale>
<asrwt>0</asrwt>
<pdfrwt beam="2">  1        1 0.13576578E-01 0.73880368E+02</pdfrwt>
<pdfrwt beam="1">  1       -1 0.23789267E-02 0.73880368E+02</pdfrwt>
<totfact> 0.18047821E+05</totfact>
</mgrwt>
</event>
<event>
 5   1  0.1388354E+00  0.9382104E+02  0.7818608E-02  0.1293854E+00
         -1   -1    0    0    0  501 -0.00000000000E+00  0.00000000000E+00  0.24373906884E+02  0.24373907331E+02  0.46700000000E-02 0.  1.
          1   -1    0    0  501    0  0.00000000000E+00 -0.00000000000E+00 -0.90284938484E+02  0.90284938605E+02  0.46700000000E-02 0. -1.
         23    2    1    2    0    0  0.00000000000E+00  0.00000000000E+00 -0.65911031600E+02  0.11465884594E+03  0.93821036366E+02 0.  0.
        -13    1    3    3    0    0  0.53972448789E+01 -0.45501988810E+02 -0.20672068195E+02  0.50268348032E+02  0.10570000000E+00 0.  1.
         13    1    3    3    0    0 -0.53972448789E+01  0.45501988810E+02 -0.45238963405E+02  0.64390497904E+02  0.10570000000E+00 0. -1.
<mgrwt>
<rscale>  0 0.93821036E+02</rscale>
<asrwt>0</asrwt>
<pdfrwt beam="2">  1        1 0.13889990E-01 0.93821036E+02</pdfrwt>
<pdfrwt beam="1">  1       -1 0.37498319E-02 0.93821036E+02</pdfrwt>
<totfact> 0.94969118E+04</totfact>
</mgrwt>
</event>
<event>
 5   1  0.1388354E+00  0.9021826E+02  0.7818608E-02  0.1302324E+00
          1   -1    0    0  501    0  0.00000000000E+00  0.00000000000E+00  0.34642217250E+02  0.34642217565E+02  0.46700000000E-02 0. -1.
         -1   -1    0    0    0  501 -0.00000000000E+00 -0.00000000000E+00 -0.58738545778E+02  0.58738545964E+02  0.46700000000E-02 0.  1.
         23    2    1    2    0    0  0.00000000000E+00  0.00000000000E+00 -0.24096328528E+02  0.93380763529E+02  0.90218257292E+02 0.  0.
        -13    1    3    3    0    0 -0.10571583498E+02 -0.29348591530E+02  0.21678145700E+02  0.37987516054E+02  0.10570000000E+00 0. -1.
         13    1    3    3    0    0  0.10571583498E+02  0.29348591530E+02 -0.45774474228E+02  0.55393247475E+02  0.10570000000E+00 0.  1.
<mgrwt>
<rscale>  0 0.90218257E+02</rscale>
<asrwt>0</asrwt>
<pdfrwt beam="1">  1        1 0.53295719E-02 0.90218257E+02</pdfrwt>
<pdfrwt beam="2">  1       -1 0.90366994E-02 0.90218257E+02</pdfrwt>
<totfact> 0.91386362E+04</totfact>
</mgrwt>
</event>
<event>
 5   1  0.1388354E+00  0.8858125E+02  0.7818608E-02  0.1306324E+00
         -1   -1    0    0    0  501 -0.00000000000E+00  0.00000000000E+00  0.20759805890E+02  0.20759806416E+02  0.46700000000E-02 0.  1.
          1   -1    0    0  501    0  0.00000000000E+00 -0.00000000000E+00 -0.94493156828E+02  0.94493156943E+02  0.46700000000E-02 0. -1.
         23    2    1    2    0    0  0.00000000000E+00  0.00000000000E+00 -0.73733350938E+02  0.11525296336E+03  0.88581253787E+02 0.  0.
        -13    1    3    3    0    0  0.38051859769E+02  0.20936254777E+02 -0.25570495326E+02  0.50399724202E+02  0.10570000000E+00 0.  1.
         13    1    3    3    0    0 -0.38051859769E+02 -0.20936254777E+02 -0.48162855612E+02  0.64853239157E+02  0.10570000000E+00 0. -1.
<mgrwt>
<rscale>  0 0.88581254E+02</rscale>
<asrwt>0</asrwt>
<pdfrwt beam="2">  1        1 0.14537409E-01 0.88581254E+02</pdfrwt>
<pdfrwt beam="1">  1       -1 0.31938164E-02 0.88581254E+02</pdfrwt>
<totfact> 0.11194628E+05</totfact>
</mgrwt>
</event>
<event>
 5   1  0.1388354E+00  0.9067110E+02  0.7818608E-02  0.1301235E+00
         -1   -1    0    0    0  501 -0.00000000000E+00  0.00000000000E+00  0.10610844823E+02  0.10610845851E+02  0.46700000000E-02 0.  1.
          1   -1    0    0  501    0  0.00000000000E+00 -0.00000000000E+00 -0.19369919747E+03  0.19369919752E+03  0.46700000000E-02 0. -1.
         23    2    1    2    0    0  0.00000000000E+00  0.00000000000E+00 -0.18308835265E+03  0.20431004338E+03  0.90671103167E+02 0.  0.
        -13    1    3    3    0    0  0.19993483670E+02  0.24551232908E+02 -0.18431366693E+02  0.36636441928E+02  0.10570000000E+00 0.  1.
         13    1    3    3    0    0 -0.19993483670E+02 -0.24551232908E+02 -0.16465698595E+03  0.16767360145E+03  0.10570000000E+00 0. -1.
<mgrwt>
<rscale>  0 0.90671103E+02</rscale>
<asrwt>0</asrwt>
<pdfrwt beam="2">  1        1 0.29799874E-01 0.90671103E+02</pdfrwt>
<pdfrwt beam="1">  1       -1 0.16324379E-02 0.90671103E+02</pdfrwt>
<totfact> 0.11944284E+05</totfact>
</mgrwt>
</event>
<event>
 5   1  0.1388354E+00  0.9107534E+02  0.7818608E-02  0.1300268E+00
         -1   -1    0    0    0  501 -0.00000000000E+00  0.00000000000E+00  0.12163179786E+02  0.12163180683E+02  0.46700000000E-02 0.  1.
          1   -1    0    0  501    0  0.00000000000E+00 -0.00000000000E+00 -0.17048826868E+03  0.17048826874E+03  0.46700000000E-02 0. -1.
         23    2    1    2    0    0  0.00000000000E+00  0.00000000000E+00 -0.15832508889E+03  0.18265144942E+03  0.91075343560E+02 0.  0.
        -13    1    3    3    0    0 -0.12175978368E+02  0.29234300001E+02 -0.14478769726E+03  0.14821061769E+03  0.10570000000E+00 0. -1.
         13    1    3    3    0    0  0.12175978368E+02 -0.29234300001E+02 -0.13537391629E+02  0.34440831732E+02  0.10570000000E+00 0.  1.
<mgrwt>
<rscale>  0 0.91075344E+02</rscale>
<asrwt>0</asrwt>
<pdfrwt beam="2">  1        1 0.26228963E-01 0.91075344E+02</pdfrwt>
<pdfrwt beam="1">  1       -1 0.18712586E-02 0.91075344E+02</pdfrwt>
<totfact> 0.11518239E+05</totfact>
</mgrwt>
</event>
<event>
 5   1  0.1388354E+00  0.9408254E+02  0.7818608E-02  0.1293256E+00
          1   -1    0    0  501    0  0.00000000000E+00  0.00000000000E+00  0.91476445054E+01  0.91476456975E+01  0.46700000000E-02 0. -1.
         -1   -1    0    0    0  501 -0.00000000000E+00 -0.00000000000E+00 -0.24190717763E+03  0.24190717767E+03  0.46700000000E-02 0.  1.
         23    2    1    2    0    0  0.00000000000E+00  0.00000000000E+00 -0.23275953312E+03  0.25105482337E+03  0.94082538646E+02 0.  0.
        -13    1    3    3    0    0 -0.44001513933E+02 -0.10866553815E+02 -0.14999111322E+03  0.15668937564E+03  0.10570000000E+00 0.  1.
         13    1    3    3    0    0  0.44001513933E+02  0.10866553815E+02 -0.82768419904E+02  0.94365447734E+02  0.10570000000E+00 0. -1.
<mgrwt>
<rscale>  0 0.94082539E+02</rscale>
<asrwt>0</asrwt>
<pdfrwt beam="1">  1        1 0.14073302E-02 0.94082539E+02</pdfrwt>
<pdfrwt beam="2">  1       -1 0.37216484E-01 0.94082539E+02</pdfrwt>
<totfact> 0.60324644E+04</totfact>
</mgrwt>
</event>
<event>
 5   1  0.1388354E+00  0.8817458E+02  0.7818608E-02  0.1307333E+00
          1   -1    0    0  501    0  0.00000000000E+00  0.00000000000E+00  0.68406628458E+02  0.68406628617E+02  0.46700000000E-02 0. -1.
         -1   -1    0    0    0  501 -0.00000000000E+00 -0.00000000000E+00 -0.28413753430E+02  0.28413753814E+02  0.46700000000E-02 0.  1.
         23    2    1    2    0    0  0.00000000000E+00  0.00000000000E+00  0.39992875027E+02  0.96820382431E+02  0.88174579110E+02 0.  0.
        -13    1    3    3    0    0 -0.38657890324E+02 -0.96042542840E+01 -0.75077632855E+00  0.39840293953E+02  0.10570000000E+00 0.  1.
         13    1    3    3    0    0  0.38657890324E+02  0.96042542840E+01  0.40743651356E+02  0.56980088478E+02  0.10570000000E+00 0. -1.
<mgrwt>
<rscale>  0 0.88174579E+02</rscale>
<asrwt>0</asrwt>
<pdfrwt beam="1">  1        1 0.10524097E-01 0.88174579E+02</pdfrwt>
<pdfrwt beam="2">  1       -1 0.43713468E-02 0.88174579E+02</pdfrwt>
<totfact> 0.10780447E+05</totfact>
</mgrwt>
</event>
<event>
 5   1  0.1388354E+00  0.9142139E+02  0.7818608E-02  0.1299446E+00
          1   -1    0    0  501    0  0.00000000000E+00  0.00000000000E+00  0.62826681831E+02  0.62826682005E+02  0.46700000000E-02 0. -1.
         -1   -1    0    0    0  501 -0.00000000000E+00 -0.00000000000E+00 -0.33257649235E+02  0.33257649563E+02  0.46700000000E-02 0.  1.
         23    2    1    2    0    0  0.00000000000E+00  0.00000000000E+00  0.29569032596E+02  0.96084331568E+02  0.91421392924E+02 0.  0.
        -13    1    3    3    0    0  0.26421780575E+02  0.34935330727E+02  0.28522914322E+02  0.52270026168E+02  0.10570000000E+00 0.  1.
         13    1    3    3    0    0 -0.26421780575E+02 -0.34935330727E+02  0.10461182742E+01  0.43814305400E+02  0.10570000000E+00 0. -1.
<mgrwt>
<rscale>  0 0.91421393E+02</rscale>
<asrwt>0</asrwt>
<pdfrwt beam="1">  1        1 0.96656434E-02 0.91421393E+02</pdfrwt>
<pdfrwt beam="2">  1       -1 0.51165615E-02 0.91421393E+02</pdfrwt>
<totfact> 0.96328679E+04</totfact>
</mgrwt>
</event>
<event>
 5   1  0.1388354E+00  0.9047589E+02  0.7818608E-02  0.1301703E+00
          1   -1    0    0  501    0  0.00000000000E+00  0.00000000000E+00  0.99168228655E+02  0.99168228765E+02  0.46700000000E-02 0. -1.
         -1   -1    0    0    0  501 -0.00000000000E+00 -0.00000000000E+00 -0.20636364475E+02  0.20636365003E+02  0.46700000000E-02 0.  1.
         23    2    1    2    0    0  0.00000000000E+00  0.00000000000E+00  0.78531864181E+02  0.11980459377E+03  0.90475891796E+02 0.  0.
        -13    1    3    3    0    0 -0.33931717703E+02  0.18687073300E+02  0.83277975968E+01  0.39622361870E+02  0.10570000000E+00 0.  1.
         13    1    3    3    0    0  0.33931717703E+02 -0.18687073300E+02  0.70204066584E+02  0.80182231899E+02  0.10570000000E+00 0. -1.
<mgrwt>
<rscale>  0 0.90475892E+02</rscale>
<asrwt>0</asrwt>
<pdfrwt beam="1">  1        1 0.15256650E-01 0.90475892E+02</pdfrwt>
<pdfrwt beam="2">  1       -1 0.31748254E-02 0.90475892E+02</pdfrwt>
<totfact> 0.10652275E+05</totfact>
</mgrwt>
</event>
<event>
 5   1  0.1388354E+00  0.8640492E+02  0.7818608E-02  0.1311799E+00
          1   -1    0    0  501    0  0.00000000000E+00  0.00000000000E+00  0.71652563602E+02  0.71652563754E+02  0.46700000000E-02 0. -1.
         -1   -1    0    0    0  501 -0.00000000000E+00 -0.00000000000E+00 -0.26048649627E+02  0.26048650045E+02  0.46700000000E-02 0.  1.
         23    2    1    2    0    0  0.00000000000E+00  0.00000000000E+00  0.45603913976E+02  0.97701213800E+02  0.86404920045E+02 0.  0.
        -13    1    3    3    0    0 -0.84642992533E+01 -0.35843677954E+02 -0.27343680444E+01  0.36931037790E+02  0.10570000000E+00 0.  1.
         13    1    3    3    0    0  0.84642992533E+01  0.35843677954E+02  0.48338282020E+02  0.60770176010E+02  0.10570000000E+00 0. -1.
<mgrwt>
<rscale>  0 0.86404920E+02</rscale>
<asrwt>0</asrwt>
<pdfrwt beam="1">  1        1 0.11023471E-01 0.86404920E+02</pdfrwt>
<pdfrwt beam="2">  1       -1 0.40074846E-02 0.86404920E+02</pdfrwt>
<totfact> 0.11475442E+05</totfact>
</mgrwt>
</event>
<event>
 5   1  0.1388354E+00  0.8556413E+02  0.7818608E-02  0.1313964E+00
          1   -1    0    0  501    0  0.00000000000E+00  0.00000000000E+00  0.12478833577E+03  0.12478833586E+03  0.46700000000E-02 0. -1.
         -1   -1    0    0    0  501 -0.00000000000E+00 -0.00000000000E+00 -0.14667276865E+02  0.14667277609E+02  0.46700000000E-02 0.  1.
         23    2    1    2    0    0  0.00000000000E+00  0.00000000000E+00  0.11012105891E+03  0.13945561347E+03  0.85564130996E+02 0.  0.
        -13    1    3    3    0    0  0.70932603097E+01  0.42020516774E+02  0.61214278892E+02  0.74587112054E+02  0.10570000000E+00 0. -1.
         13    1    3    3    0    0 -0.70932603097E+01 -0.42020516774E+02  0.48906780016E+02  0.64868501415E+02  0.10570000000E+00 0.  1.
<mgrwt>
<rscale>  0 0.85564131E+02</rscale>
<asrwt>0</asrwt>
<pdfrwt beam="1">  1        1 0.19198206E-01 0.85564131E+02</pdfrwt>
<pdfrwt beam="2">  1       -1 0.22565042E-02 0.85564131E+02</pdfrwt>
<totfact> 0.12875537E+05</totfact>
</mgrwt>
</event>
<event>
 5   1  0.1388354E+00  0.9083008E+02  0.7818608E-02  0.1300854E+00
          1   -1    0    0  501    0  0.00000000000E+00  0.00000000000E+00  0.25184232202E+03  0.25184232206E+03  0.46700000000E-02 0. -1.
         -1   -1    0    0    0  501 -0.00000000000E+00 -0.00000000000E+00 -0.81897492933E+01  0.81897506247E+01  0.46700000000E-02 0.  1.
         23    2    1    2    0    0  0.00000000000E+00  0.00000000000E+00  0.24365257273E+03  0.26003207269E+03  0.90830075581E+02 0.  0.
        -13    1    3    3    0    0  0.11738543770E+02  0.34410486805E+02  0.43914947172E+02  0.57012356289E+02  0.10570000000E+00 0.  1.
         13    1    3    3    0    0 -0.11738543770E+02 -0.34410486805E+02  0.19973762556E+03  0.20301971640E+03  0.10570000000E+00 0. -1.
<mgrwt>
<rscale>  0 0.90830076E+02</rscale>
<asrwt>0</asrwt>
<pdfrwt beam="1">  1        1 0.38744966E-01 0.90830076E+02</pdfrwt>
<pdfrwt beam="2">  1       -1 0.12599618E-02 0.90830076E+02</pdfrwt>
<totfact> 0.12511348E+05</totfact>
</mgrwt>
</event>
<event>
 5   1  0.1388354E+00  0.8950851E+02  0.7818608E-02  0.1304046E+00
         -1   -1    0    0    0  501 -0.00000000000E+00  0.00000000000E+00  0.11827774301E+03  0.11827774310E+03  0.46700000000E-02 0.  1.
          1   -1    0    0  501    0  0.00000000000E+00 -0.00000000000E+00 -0.16934237349E+02  0.16934237992E+02  0.46700000000E-02 0. -1.
         23    2    1    2    0    0  0.00000000000E+00  0.00000000000E+00  0.10134350566E+03  0.13521198109E+03  0.89508511838E+02 0.  0.
        -13    1    3    3    0    0  0.77707962930E+01 -0.37245042531E+02  0.15072924323E+02  0.40924108889E+02  0.10570000000E+00 0. -1.
         13    1    3    3    0    0 -0.77707962930E+01  0.37245042531E+02  0.86270581334E+02  0.94287872202E+02  0.10570000000E+00 0.  1.
<mgrwt>
<rscale>  0 0.89508512E+02</rscale>
<asrwt>0</asrwt>
<pdfrwt beam="2">  1        1 0.26052674E-02 0.89508512E+02</pdfrwt>
<pdfrwt beam="1">  1       -1 0.18196576E-01 0.89508512E+02</pdfrwt>
<totfact> 0.82607789E+04</totfact>
</mgrwt>
</event>
<event>
 5   1  0.1388354E+00  0.9220552E+02  0.7818608E-02  0.1297597E+00
          1   -1    0    0  501    0  0.00000000000E+00  0.00000000000E+00  0.81660073898E+01  0.81660087251E+01  0.46700000000E-02 0. -1.
         -1   -1    0    0    0  501 -0.00000000000E+00 -0.00000000000E+00 -0.26028191811E+03  0.26028191816E+03  0.46700000000E-02 0.  1.
         23    2    1    2    0    0  0.00000000000E+00  0.00000000000E+00 -0.25211591072E+03  0.26844792688E+03  0.92205515054E+02 0.  0.
        -13    1    3    3    0    0  0.43391963593E+02  0.77072244309E+01 -0.16546312195E+03  0.17123177191E+03  0.10570000000E+00 0. -1.
         13    1    3    3    0    0 -0.43391963593E+02 -0.77072244309E+01 -0.86652788774E+02  0.97216154973E+02  0.10570000000E+00 0.  1.
<mgrwt>
<rscale>  0 0.92205515E+02</rscale>
<asrwt>0</asrwt>
<pdfrwt beam="1">  1        1 0.12563091E-02 0.92205515E+02</pdfrwt>
<pdfrwt beam="2">  1       -1 0.40043366E-01 0.92205515E+02</pdfrwt>
<totfact> 0.62024782E+04</totfact>
</mgrwt>
</event>
<event>
 5   1  0.1388354E+00  0.9079589E+02  0.7818608E-02  0.1300936E+00
          1   -1    0    0  501    0  0.00000000000E+00  0.00000000000E+00  0.32396995634E+03  0.32396995637E+03  0.46700000000E-02 0. -1.
         -1   -1    0    0    0  501 -0.00000000000E+00 -0.00000000000E+00 -0.63616187483E+01  0.63616204624E+01  0.46700000000E-02 0.  1.
         23    2    1    2    0    0  0.00000000000E+00  0.00000000000E+00  0.31760833759E+03  0.33033157684E+03  0.90795894991E+02 0.  0.
        -13    1    3    3    0    0  0.34470462647E+02 -0.26533764050E+02  0.20605974321E+03  0.21060124020E+03  0.10570000000E+00 0. -1.
         13    1    3    3    0    0 -0.34470462647E+02  0.26533764050E+02  0.11154859438E+03  0.11973033663E+03  0.10570000000E+00 0.  1.
<mgrwt>
<rscale>  0 0.90795895E+02</rscale>
<asrwt>0</asrwt>
<pdfrwt beam="1">  1        1 0.49841525E-01 0.90795895E+02</pdfrwt>
<pdfrwt beam="2">  1       -1 0.97871085E-03 0.90795895E+02</pdfrwt>
<totfact> 0.13144545E+05</totfact>
</mgrwt>
</event>
<event>
 5   1  0.1388354E+00  0.9266697E+02  0.7818608E-02  0.1296519E+00
         -1   -1    0    0    0  501 -0.00000000000E+00  0.00000000000E+00  0.25570572665E+02  0.25570573092E+02  0.46700000000E-02 0.  1.
          1   -1    0    0  501    0  0.00000000000E+00 -0.00000000000E+00 -0.83955569157E+02  0.83955569287E+02  0.46700000000E-02 0. -1.
         23    2    1    2    0    0  0.00000000000E+00  0.00000000000E+00 -0.58384996492E+02  0.10952614238E+03  0.92666973885E+02 0.  0.
        -13    1    3    3    0    0 -0.21607354010E+01  0.20151098092E+02 -0.78438767846E+02  0.81014733262E+02  0.10570000000E+00 0. -1.
         13    1    3    3    0    0  0.21607354010E+01 -0.20151098092E+02  0.20053771354E+02  0.28511409117E+02  0.10570000000E+00 0.  1.
<mgrwt>
<rscale>  0 0.92666974E+02</rscale>
<asrwt>0</asrwt>
<pdfrwt beam="2">  1        1 0.12916241E-01 0.92666974E+02</pdfrwt>
<pdfrwt beam="1">  1       -1 0.39339343E-02 0.92666974E+02</pdfrwt>
<totfact> 0.97098166E+04</totfact>
</mgrwt>
</event>
<event>
 5   1  0.1388354E+00  0.8362908E+02  0.7818608E-02  0.1319057E+00
         -1   -1    0    0    0  501 -0.00000000000E+00  0.00000000000E+00  0.65038517406E+01  0.65038534172E+01  0.46700000000E-02 0. -1.
          1   -1    0    0  501    0  0.00000000000E+00 -0.00000000000E+00 -0.26883382879E+03  0.26883382883E+03  0.46700000000E-02 0.  1.
         23    2    1    2    0    0  0.00000000000E+00  0.00000000000E+00 -0.26232997705E+03  0.27533768224E+03  0.83629076323E+02 0.  0.
        -13    1    3    3    0    0 -0.33294609473E+02  0.24756065331E+02 -0.14828866891E+03  0.15398355201E+03  0.10570000000E+00 0.  1.
         13    1    3    3    0    0  0.33294609473E+02 -0.24756065331E+02 -0.11404130814E+03  0.12135413023E+03  0.10570000000E+00 0. -1.
<mgrwt>
<rscale>  0 0.83629076E+02</rscale>
<asrwt>0</asrwt>
<pdfrwt beam="2">  1        1 0.41359042E-01 0.83629076E+02</pdfrwt>
<pdfrwt beam="1">  1       -1 0.10005929E-02 0.83629076E+02</pdfrwt>
<totfact> 0.15778668E+05</totfact>
</mgrwt>
</event>
<event>
 5   1  0.1388354E+00  0.9093656E+02  0.7818608E-02  0.1300599E+00
          1   -1    0    0  501    0  0.00000000000E+00  0.00000000000E+00  0.92691094510E+01  0.92691106275E+01  0.46700000000E-02 0. -1.
         -1   -1    0    0    0  501 -0.00000000000E+00 -0.00000000000E+00 -0.22303807639E+03  0.22303807644E+03  0.46700000000E-02 0.  1.
         23    2    1    2    0    0  0.00000000000E+00  0.00000000000E+00 -0.21376896694E+03  0.23230718707E+03  0.90936559956E+02 0.  0.
        -13    1    3    3    0    0 -0.13807172221E+02 -0.37908563577E+02 -0.16044943098E+03  0.16544403365E+03  0.10570000000E+00 0.  1.
         13    1    3    3    0    0  0.13807172221E+02  0.37908563577E+02 -0.53319535967E+02  0.66863153421E+02  0.10570000000E+00 0. -1.
<mgrwt>
<rscale>  0 0.90936560E+02</rscale>
<asrwt>0</asrwt>
<pdfrwt beam="1">  1        1 0.14260171E-02 0.90936560E+02</pdfrwt>
<pdfrwt beam="2">  1       -1 0.34313546E-01 0.90936560E+02</pdfrwt>
<totfact> 0.67670457E+04</totfact>
</mgrwt>
</event>
<event>
 5   1  0.1388354E+00  0.9124937E+02  0.7818608E-02  0.1299854E+00
         -1   -1    0    0    0  501 -0.00000000000E+00  0.00000000000E+00  0.13528288470E+02  0.13528289276E+02  0.46700000000E-02 0.  1.
          1   -1    0    0  501    0  0.00000000000E+00 -0.00000000000E+00 -0.15387105329E+03  0.15387105336E+03  0.46700000000E-02 0. -1.
         23    2    1    2    0    0  0.00000000000E+00  0.00000000000E+00 -0.14034276482E+03  0.16739934264E+03  0.91249374123E+02 0.  0.
        -13    1    3    3    0    0  0.44273381669E+02  0.27923977591E+01 -0.50612282686E+02  0.67301888093E+02  0.10570000000E+00 0.  1.
         13    1    3    3    0    0 -0.44273381669E+02 -0.27923977591E+01 -0.89730482133E+02  0.10009745454E+03  0.10570000000E+00 0. -1.
<mgrwt>
<rscale>  0 0.91249374E+02</rscale>
<asrwt>0</asrwt>
<pdfrwt beam="2">  1        1 0.23672469E-01 0.91249374E+02</pdfrwt>
<pdfrwt beam="1">  1       -1 0.20812753E-02 0.91249374E+02</pdfrwt>
<totfact> 0.11241911E+05</totfact>
</mgrwt>
</event>
<event>
 5   1  0.1388354E+00  0.9113820E+02  0.7818608E-02  0.1300119E+00
          1   -1    0    0  501    0  0.00000000000E+00  0.00000000000E+00  0.17778925258E+02  0.17778925872E+02  0.46700000000E-02 0. -1.
         -1   -1    0    0    0  501 -0.00000000000E+00 -0.00000000000E+00 -0.11679798893E+03  0.11679798902E+03  0.46700000000E-02 0.  1.
         23    2    1    2    0    0  0.00000000000E+00  0.00000000000E+00 -0.99019063671E+02  0.13457691489E+03  0.91138197547E+02 0.  0.
        -13    1    3    3    0    0  0.29130672875E+02 -0.16076614126E+02 -0.95486370326E+02  0.10111731659E+03  0.10570000000E+00 0.  1.
         13    1    3    3    0    0 -0.29130672875E+02  0.16076614126E+02 -0.35326933445E+01  0.33459598303E+02  0.10570000000E+00 0. -1.
<mgrwt>
<rscale>  0 0.91138198E+02</rscale>
<asrwt>0</asrwt>
<pdfrwt beam="1">  1        1 0.27352194E-02 0.91138198E+02</pdfrwt>
<pdfrwt beam="2">  1       -1 0.17968921E-01 0.91138198E+02</pdfrwt>
<totfact> 0.79049604E+04</totfact>
</mgrwt>
</event>
<event>
 5   1  0.1388354E+00  0.9166167E+02  0.7818608E-02  0.1298877E+00
         -1   -1    0    0    0  501 -0.00000000000E+00  0.00000000000E+00  0.52663437712E+02  0.52663437919E+02  0.46700000000E-02 0.  1.
          1   -1    0    0  501    0  0.00000000000E+00 -0.00000000000E+00 -0.39884703123E+02  0.39884703397E+02  0.46700000000E-02 0. -1.
         23    2    1    2    0    0  0.00000000000E+00  0.00000000000E+00  0.12778734589E+02  0.92548141315E+02  0.91661673579E+02 0.  0.
        -13    1    3    3    0    0 -0.24358544817E+02  0.35851377356E+02 -0.86474273954E+01  0.44197840863E+02  0.10570000000E+00 0. -1.
         13    1    3    3    0    0  0.24358544817E+02 -0.35851377356E+02  0.21426161984E+02  0.48350300452E+02  0.10570000000E+00 0.  1.
<mgrwt>
<rscale>  0 0.91661674E+02</rscale>
<asrwt>0</asrwt>
<pdfrwt beam="2">  1        1 0.61361082E-02 0.91661674E+02</pdfrwt>
<pdfrwt beam="1">  1       -1 0.81020673E-02 0.91661674E+02</pdfrwt>
<totfact> 0.89274315E+04</totfact>
</mgrwt>
</event>
<event>
 5   1  0.1388354E+00  0.9163417E+02  0.7818608E-02  0.1298942E+00
          1   -1    0    0  501    0  0.00000000000E+00  0.00000000000E+00  0.27420780852E+02  0.27420781250E+02  0.46700000000E-02 0. -1.
         -1   -1    0    0    0  501 -0.00000000000E+00 -0.00000000000E+00 -0.76555260606E+02  0.76555260749E+02  0.46700000000E-02 0.  1.
         23    2    1    2    0    0  0.00000000000E+00  0.00000000000E+00 -0.49134479754E+02  0.10397604200E+03  0.91634165075E+02 0.  0.
        -13    1    3    3    0    0  0.10001563058E+02  0.15895837918E+02  0.22852402939E+02  0.29579594643E+02  0.10570000000E+00 0. -1.
         13    1    3    3    0    0 -0.10001563058E+02 -0.15895837918E+02 -0.71986882693E+02  0.74396447355E+02  0.10570000000E+00 0.  1.
<mgrwt>
<rscale>  0 0.91634165E+02</rscale>
<asrwt>0</asrwt>
<pdfrwt beam="1">  1        1 0.42185817E-02 0.91634165E+02</pdfrwt>
<pdfrwt beam="2">  1       -1 0.11777732E-01 0.91634165E+02</pdfrwt>
<totfact> 0.84193005E+04</totfact>
</mgrwt>
</event>
<event>
 5   1  0.1388354E+00  0.9159122E+02  0.7818608E-02  0.1299043E+00
          1   -1    0    0  501    0  0.00000000000E+00  0.00000000000E+00  0.38997190340E+02  0.38997190619E+02  0.46700000000E-02 0. -1.
         -1   -1    0    0    0  501 -0.00000000000E+00 -0.00000000000E+00 -0.53779206059E+02  0.53779206262E+02  0.46700000000E-02 0.  1.
         23    2    1    2    0    0  0.00000000000E+00  0.00000000000E+00 -0.14782015719E+02  0.92776396881E+02  0.91591221356E+02 0.  0.
        -13    1    3    3    0    0 -0.31629372495E+02 -0.33081674410E+02 -0.58177199846E+01  0.46137527291E+02  0.10570000000E+00 0.  1.
         13    1    3    3    0    0  0.31629372495E+02  0.33081674410E+02 -0.89642957347E+01  0.46638869591E+02  0.10570000000E+00 0. -1.
<mgrwt>
<rscale>  0 0.91591221E+02</rscale>
<asrwt>0</asrwt>
<pdfrwt beam="1">  1        1 0.59995678E-02 0.91591221E+02</pdfrwt>
<pdfrwt beam="2">  1       -1 0.82737241E-02 0.91591221E+02</pdfrwt>
<totfact> 0.89161409E+04</totfact>
</mgrwt>
</event>
<event>
 5   1  0.1388354E+00  0.9102480E+02  0.7818608E-02  0.1300389E+00
          1   -1    0    0  501    0  0.00000000000E+00  0.00000000000E+00  0.16985020236E+03  0.16985020243E+03  0.46700000000E-02 0. -1.
         -1   -1    0    0    0  501 -0.00000000000E+00 -0.00000000000E+00 -0.12195325836E+02  0.12195326730E+02  0.46700000000E-02 0.  1.
         23    2    1    2    0    0  0.00000000000E+00  0.00000000000E+00  0.15765487653E+03  0.18204552916E+03  0.91024802077E+02 0.  0.
        -13    1    3    3    0    0  0.33713568974E+02 -0.29908482322E+02  0.66139865396E+02  0.80035086149E+02  0.10570000000E+00 0. -1.
         13    1    3    3    0    0 -0.33713568974E+02  0.29908482322E+02  0.91515011130E+02  0.10201044301E+03  0.10570000000E+00 0.  1.
<mgrwt>
<rscale>  0 0.91024802E+02</rscale>
<asrwt>0</asrwt>
<pdfrwt beam="1">  1        1 0.26130797E-01 0.91024802E+02</pdfrwt>
<pdfrwt beam="2">  1       -1 0.18762043E-02 0.91024802E+02</pdfrwt>
<totfact> 0.11527321E+05</totfact>
</mgrwt>
</event>
<event>
 5   1  0.1388354E+00  0.8612880E+02  0.7818608E-02  0.1312507E+00
          1   -1    0    0  501    0  0.00000000000E+00  0.00000000000E+00  0.23656717494E+02  0.23656717955E+02  0.46700000000E-02 0. -1.
         -1   -1    0    0    0  501 -0.00000000000E+00 -0.00000000000E+00 -0.78393915889E+02  0.78393916028E+02  0.46700000000E-02 0.  1.
         23    2    1    2    0    0  0.00000000000E+00  0.00000000000E+00 -0.54737198395E+02  0.10205063398E+03  0.86128804753E+02 0.  0.
        -13    1    3    3    0    0 -0.16842546428E+02  0.18786278816E+01  0.19539479367E+02  0.25865093066E+02  0.10570000000E+00 0. -1.
         13    1    3    3    0    0  0.16842546428E+02 -0.18786278816E+01 -0.74276677763E+02  0.76185540917E+02  0.10570000000E+00 0.  1.
<mgrwt>
<rscale>  0 0.86128805E+02</rscale>
<asrwt>0</asrwt>
<pdfrwt beam="1">  1        1 0.36394951E-02 0.86128805E+02</pdfrwt>
<pdfrwt beam="2">  1       -1 0.12060602E-01 0.86128805E+02</pdfrwt>
<totfact> 0.98242965E+04</totfact>
</mgrwt>
</event>
<event>
 5   1  0.1388354E+00  0.9190257E+02  0.7818608E-02  0.1298309E+00
         -1   -1    0    0    0  501 -0.00000000000E+00  0.00000000000E+00  0.93986251717E+01  0.93986263319E+01  0.46700000000E-02 0.  1.
          1   -1    0    0  501    0  0.00000000000E+00 -0.00000000000E+00 -0.22466268041E+03  0.22466268046E+03  0.46700000000E-02 0. -1.
         23    2    1    2    0    0  0.00000000000E+00  0.00000000000E+00 -0.21526405524E+03  0.23406130679E+03  0.91902567206E+02 0.  0.
        -13    1    3    3    0    0  0.25538574796E+01  0.37942462430E+02 -0.17332656110E+03  0.17744931839E+03  0.10570000000E+00 0.  1.
         13    1    3    3    0    0 -0.25538574796E+01 -0.37942462430E+02 -0.41937494144E+02  0.56611988402E+02  0.10570000000E+00 0. -1.
<mgrwt>
<rscale>  0 0.91902567E+02</rscale>
<asrwt>0</asrwt>
<pdfrwt beam="2">  1        1 0.34563485E-01 0.91902567E+02</pdfrwt>
<pdfrwt beam="1">  1       -1 0.14459426E-02 0.91902567E+02</pdfrwt>
<totfact> 0.11857238E+05</totfact>
</mgrwt>
</event>
<event>
 4   1  0.1388354E+00  0.3130436E+03  0.7818608E-02  0.1078896E+00
          1   -1    0    0  501    0  0.00000000000E+00  0.00000000000E+00  0.79607178231E+02  0.79607178368E+02  0.46700000000E-02 0. -1.
         -1   -1    0    0    0  501 -0.00000000000E+00 -0.00000000000E+00 -0.30774957889E+03  0.30774957892E+03  0.46700000000E-02 0.  1.
        -13    1    1    2    0    0  0.11210249708E+03  0.69493537334E+02 -0.21835559816E+03  0.25509900040E+03  0.10570000000E+00 0.  1.
         13    1    1    2    0    0 -0.11210249708E+03 -0.69493537334E+02 -0.97868024949E+01  0.13225775689E+03  0.10570000000E+00 0. -1.
<mgrwt>
<rscale>  0 0.31304361E+03</rscale>
<asrwt>0</asrwt>
<pdfrwt beam="1">  1        1 0.12247258E-01 0.31304361E+03</pdfrwt>
<pdfrwt beam="2">  1       -1 0.47346088E-01 0.31304361E+03</pdfrwt>
<totfact> 0.22211764E+03</totfact>
</mgrwt>
</event>
<event>
 5   1  0.1388354E+00  0.9084566E+02  0.7818608E-02  0.1300817E+00
         -1   -1    0    0    0  501 -0.00000000000E+00  0.00000000000E+00  0.53403618880E+02  0.53403619084E+02  0.46700000000E-02 0.  1.
          1   -1    0    0  501    0  0.00000000000E+00 -0.00000000000E+00 -0.38634710307E+02  0.38634710589E+02  0.46700000000E-02 0. -1.
         23    2    1    2    0    0  0.00000000000E+00  0.00000000000E+00  0.14768908573E+02  0.92038329673E+02  0.90845657400E+02 0.  0.
        -13    1    3    3    0    0  0.42153686827E+02 -0.14398095883E+02  0.16388409766E+02  0.47463982400E+02  0.10570000000E+00 0. -1.
         13    1    3    3    0    0 -0.42153686827E+02  0.14398095883E+02 -0.16195011934E+01  0.44574347272E+02  0.10570000000E+00 0.  1.
<mgrwt>
<rscale>  0 0.90845657E+02</rscale>
<asrwt>0</asrwt>
<pdfrwt beam="2">  1        1 0.59438016E-02 0.90845657E+02</pdfrwt>
<pdfrwt beam="1">  1       -1 0.82159414E-02 0.90845657E+02</pdfrwt>
<totfact> 0.91118370E+04</totfact>
</mgrwt>
</event>
<event>
 5   1  0.1388354E+00  0.9023999E+02  0.7818608E-02  0.1302272E+00
          1   -1    0    0  501    0  0.00000000000E+00  0.00000000000E+00  0.32327854046E+03  0.32327854049E+03  0.46700000000E-02 0. -1.
         -1   -1    0    0    0  501 -0.00000000000E+00 -0.00000000000E+00 -0.62973985918E+01  0.62974003234E+01  0.46700000000E-02 0.  1.
         23    2    1    2    0    0  0.00000000000E+00  0.00000000000E+00  0.31698114187E+03  0.32957594082E+03  0.90239993713E+02 0.  0.
        -13    1    3    3    0    0 -0.39087387283E+02  0.19387524877E+02  0.11651344031E+03  0.12441500275E+03  0.10570000000E+00 0. -1.
         13    1    3    3    0    0  0.39087387283E+02 -0.19387524877E+02  0.20046770156E+03  0.20516093806E+03  0.10570000000E+00 0.  1.
<mgrwt>
<rscale>  0 0.90239994E+02</rscale>
<asrwt>0</asrwt>
<pdfrwt beam="1">  1        1 0.49735167E-01 0.90239994E+02</pdfrwt>
<pdfrwt beam="2">  1       -1 0.96883056E-03 0.90239994E+02</pdfrwt>
<totfact> 0.13355609E+05</totfact>
</mgrwt>
</event>
<event>
 5   1  0.1388354E+00  0.9148147E+02  0.7818608E-02  0.1299303E+00
          1   -1    0    0  501    0  0.00000000000E+00  0.00000000000E+00  0.43327691014E+02  0.43327691265E+02  0.46700000000E-02 0. -1.
         -1   -1    0    0    0  501 -0.00000000000E+00 -0.00000000000E+00 -0.48288171516E+02  0.48288171742E+02  0.46700000000E-02 0.  1.
         23    2    1    2    0    0  0.00000000000E+00  0.00000000000E+00 -0.49604805025E+01  0.91615863007E+02  0.91481473467E+02 0.  0.
        -13    1    3    3    0    0 -0.34348036939E+02  0.57767659750E+01  0.27212010455E+02  0.44200264164E+02  0.10570000000E+00 0. -1.
         13    1    3    3    0    0  0.34348036939E+02 -0.57767659750E+01 -0.32172490958E+02  0.47415598843E+02  0.10570000000E+00 0.  1.
<mgrwt>
<rscale>  0 0.91481473E+02</rscale>
<asrwt>0</asrwt>
<pdfrwt beam="1">  1        1 0.66657986E-02 0.91481473E+02</pdfrwt>
<pdfrwt beam="2">  1       -1 0.74289495E-02 0.91481473E+02</pdfrwt>
<totfact> 0.90908521E+04</totfact>
</mgrwt>
</event>
<event>
 5   1  0.1388354E+00  0.9318965E+02  0.7818608E-02  0.1295306E+00
          1   -1    0    0  501    0  0.00000000000E+00  0.00000000000E+00  0.10182737428E+02  0.10182738499E+02  0.46700000000E-02 0. -1.
         -1   -1    0    0    0  501 -0.00000000000E+00 -0.00000000000E+00 -0.21321157882E+03  0.21321157887E+03  0.46700000000E-02 0.  1.
         23    2    1    2    0    0  0.00000000000E+00  0.00000000000E+00 -0.20302884139E+03  0.22339431737E+03  0.93189648546E+02 0.  0.
        -13    1    3    3    0    0  0.22341463284E+01  0.43133690574E+02 -0.14341813877E+03  0.14978077438E+03  0.10570000000E+00 0.  1.
         13    1    3    3    0    0 -0.22341463284E+01 -0.43133690574E+02 -0.59610702624E+02  0.73613542994E+02  0.10570000000E+00 0. -1.
<mgrwt>
<rscale>  0 0.93189649E+02</rscale>
<asrwt>0</asrwt>
<pdfrwt beam="1">  1        1 0.15665752E-02 0.93189649E+02</pdfrwt>
<pdfrwt beam="2">  1       -1 0.32801778E-01 0.93189649E+02</pdfrwt>
<totfact> 0.64359976E+04</totfact>
</mgrwt>
</event>
<event>
 5   1  0.1388354E+00  0.6969068E+02  0.7818608E-02  0.1361148E+00
         -1   -1    0    0    0  501 -0.00000000000E+00  0.00000000000E+00  0.55359881008E+01  0.55359900705E+01  0.46700000000E-02 0. -1.
          1   -1    0    0  501    0  0.00000000000E+00 -0.00000000000E+00 -0.21932804566E+03  0.21932804571E+03  0.46700000000E-02 0.  1.
         23    2    1    2    0    0  0.00000000000E+00  0.00000000000E+00 -0.21379205756E+03  0.22486403578E+03  0.69690678802E+02 0.  0.
        -13    1    3    3    0    0  0.15210728044E+01 -0.31238269837E+02 -0.15646856999E+03  0.15956367924E+03  0.10570000000E+00 0.  1.
         13    1    3    3    0    0 -0.15210728044E+01  0.31238269837E+02 -0.57323487566E+02  0.65300356539E+02  0.10570000000E+00 0. -1.
<mgrwt>
<rscale>  0 0.69690679E+02</rscale>
<asrwt>0</asrwt>
<pdfrwt beam="2">  1        1 0.33742770E-01 0.69690679E+02</pdfrwt>
<pdfrwt beam="1">  1       -1 0.85169080E-03 0.69690679E+02</pdfrwt>
<totfact> 0.24489832E+05</totfact>
</mgrwt>
</event>
<event>
 5   1  0.1388354E+00  0.9067351E+02  0.7818608E-02  0.1301229E+00
          1   -1    0    0  501    0  0.00000000000E+00  0.00000000000E+00  0.18036101296E+03  0.18036101302E+03  0.46700000000E-02 0. -1.
         -1   -1    0    0    0  501 -0.00000000000E+00 -0.00000000000E+00 -0.11396151072E+02  0.11396152029E+02  0.46700000000E-02 0.  1.
         23    2    1    2    0    0  0.00000000000E+00  0.00000000000E+00  0.16896486189E+03  0.19175716505E+03  0.90673512090E+02 0.  0.
        -13    1    3    3    0    0  0.27463254040E+02 -0.35766599535E+02  0.74578820200E+02  0.87152117356E+02  0.10570000000E+00 0.  1.
         13    1    3    3    0    0 -0.27463254040E+02  0.35766599535E+02  0.94386041691E+02  0.10460504770E+03  0.10570000000E+00 0. -1.
<mgrwt>
<rscale>  0 0.90673512E+02</rscale>
<asrwt>0</asrwt>
<pdfrwt beam="1">  1        1 0.27747846E-01 0.90673512E+02</pdfrwt>
<pdfrwt beam="2">  1       -1 0.17532542E-02 0.90673512E+02</pdfrwt>
<totfact> 0.11780887E+05</totfact>
</mgrwt>
</event>
<event>
 5   1  0.1388354E+00  0.9124754E+02  0.7818608E-02  0.1299858E+00
         -1   -1    0    0    0  501 -0.00000000000E+00  0.00000000000E+00  0.13349635643E+02  0.13349636460E+02  0.46700000000E-02 0.  1.
          1   -1    0    0  501    0  0.00000000000E+00 -0.00000000000E+00 -0.15592397156E+03  0.15592397163E+03  0.46700000000E-02 0. -1.
         23    2    1    2    0    0  0.00000000000E+00  0.00000000000E+00 -0.14257433592E+03  0.16927360809E+03  0.91247537687E+02 0.  0.
        -13    1    3    3    0    0 -0.21671711392E+02 -0.40113263278E+02 -0.74380324201E+02  0.87242081396E+02  0.10570000000E+00 0. -1.
         13    1    3    3    0    0  0.21671711392E+02  0.40113263278E+02 -0.68194011717E+02  0.82031526696E+02  0.10570000000E+00 0.  1.
<mgrwt>
<rscale>  0 0.91247538E+02</rscale>
<asrwt>0</asrwt>
<pdfrwt beam="2">  1        1 0.23988302E-01 0.91247538E+02</pdfrwt>
<pdfrwt beam="1">  1       -1 0.20537903E-02 0.91247538E+02</pdfrwt>
<totfact> 0.11270142E+05</totfact>
</mgrwt>
</event>
<event>
 5   1  0.1388354E+00  0.9310610E+02  0.7818608E-02  0.1295499E+00
         -1   -1    0    0    0  501 -0.00000000000E+00  0.00000000000E+00  0.21326770432E+02  0.21326770944E+02  0.46700000000E-02 0.  1.
          1   -1    0    0  501    0  0.00000000000E+00 -0.00000000000E+00 -0.10161812377E+03  0.10161812388E+03  0.46700000000E-02 0. -1.
         23    2    1    2    0    0  0.00000000000E+00  0.00000000000E+00 -0.80291353337E+02  0.12294489482E+03  0.93106099379E+02 0.  0.
        -13    1    3    3    0    0 -0.44667672346E+02 -0.13041136288E+02 -0.41967307026E+02  0.62662095560E+02  0.10570000000E+00 0. -1.
         13    1    3    3    0    0  0.44667672346E+02  0.13041136288E+02 -0.38324046311E+02  0.60282799260E+02  0.10570000000E+00 0.  1.
<mgrwt>
<rscale>  0 0.93106099E+02</rscale>
<asrwt>0</asrwt>
<pdfrwt beam="2">  1        1 0.15633557E-01 0.93106099E+02</pdfrwt>
<pdfrwt beam="1">  1       -1 0.32810417E-02 0.93106099E+02</pdfrwt>
<totfact> 0.98910590E+04</totfact>
</mgrwt>
</event>
<event>
 5   1  0.1388354E+00  0.9314569E+02  0.7818608E-02  0.1295408E+00
         -1   -1    0    0    0  501 -0.00000000000E+00  0.00000000000E+00  0.76487654560E+01  0.76487668817E+01  0.46700000000E-02 0.  1.
          1   -1    0    0  501    0  0.00000000000E+00 -0.00000000000E+00 -0.28357906314E+03  0.28357906318E+03  0.46700000000E-02 0. -1.
         23    2    1    2    0    0  0.00000000000E+00  0.00000000000E+00 -0.27593029769E+03  0.29122783006E+03  0.93145691375E+02 0.  0.
        -13    1    3    3    0    0 -0.16197475645E+02 -0.35835070753E+02 -0.59956516061E+02  0.71702897457E+02  0.10570000000E+00 0.  1.
         13    1    3    3    0    0  0.16197475645E+02  0.35835070753E+02 -0.21597378163E+03  0.21952493261E+03  0.10570000000E+00 0. -1.
<mgrwt>
<rscale>  0 0.93145691E+02</rscale>
<asrwt>0</asrwt>
<pdfrwt beam="2">  1        1 0.43627540E-01 0.93145691E+02</pdfrwt>
<pdfrwt beam="1">  1       -1 0.11767335E-02 0.93145691E+02</pdfrwt>
<totfact> 0.11971386E+05</totfact>
</mgrwt>
</event>
<event>
 5   1  0.1388354E+00  0.8897969E+02  0.7818608E-02  0.1305342E+00
          1   -1    0    0  501    0  0.00000000000E+00  0.00000000000E+00  0.95980481110E+02  0.95980481224E+02  0.46700000000E-02 0. -1.
         -1   -1    0    0    0  501 -0.00000000000E+00 -0.00000000000E+00 -0.20622381137E+02  0.20622381666E+02  0.46700000000E-02 0.  1.
         23    2    1    2    0    0  0.00000000000E+00  0.00000000000E+00  0.75358099973E+02  0.11660286289E+03  0.88979685336E+02 0.  0.
        -13    1    3    3    0    0 -0.23167187692E+02  0.31490287385E+02  0.98501464792E+01  0.40316167270E+02  0.10570000000E+00 0.  1.
         13    1    3    3    0    0  0.23167187692E+02 -0.31490287385E+02  0.65507953494E+02  0.76286695620E+02  0.10570000000E+00 0. -1.
<mgrwt>
<rscale>  0 0.88979685E+02</rscale>
<asrwt>0</asrwt>
<pdfrwt beam="1">  1        1 0.14766228E-01 0.88979685E+02</pdfrwt>
<pdfrwt beam="2">  1       -1 0.31726741E-02 0.88979685E+02</pdfrwt>
<totfact> 0.11086952E+05</totfact>
</mgrwt>
</event>
<event>
 4   1  0.1388354E+00  0.4039230E+02  0.7818608E-02  0.1505344E+00
         -1   -1    0    0    0  501 -0.00000000000E+00  0.00000000000E+00  0.85940734173E+01  0.85940746862E+01  0.46700000000E-02 0.  1.
          1   -1    0    0  501    0  0.00000000000E+00 -0.00000000000E+00 -0.47461118458E+02  0.47461118688E+02  0.46700000000E-02 0. -1.
        -13    1    1    2    0    0  0.13980096935E+02 -0.14234197711E+02 -0.23781852067E+02  0.31042602258E+02  0.10570000000E+00 0. -1.
         13    1    1    2    0    0 -0.13980096935E+02  0.14234197711E+02 -0.15085192974E+02  0.25012591116E+02  0.10570000000E+00 0.  1.
<mgrwt>
<rscale>  0 0.40392295E+02</rscale>
<asrwt>0</asrwt>
<pdfrwt beam="2">  1        1 0.73017105E-02 0.40392295E+02</pdfrwt>
<pdfrwt beam="1">  1       -1 0.13221653E-02 0.40392295E+02</pdfrwt>
<totfact> 0.79392143E+05</totfact>
</mgrwt>
</event>
<event>
 5   1  0.1388354E+00  0.9770000E+02  0.7818608E-02  0.1285208E+00
          1   -1    0    0  501    0  0.00000000000E+00  0.00000000000E+00  0.12157173902E+02  0.12157174799E+02  0.46700000000E-02 0. -1.
         -1   -1    0    0    0  501 -0.00000000000E+00 -0.00000000000E+00 -0.19628922425E+03  0.19628922430E+03  0.46700000000E-02 0.  1.
         23    2    1    2    0    0  0.00000000000E+00  0.00000000000E+00 -0.18413205035E+03  0.20844639910E+03  0.97699996592E+02 0.  0.
        -13    1    3    3    0    0 -0.19357120665E+02  0.44125616160E+02 -0.10920656730E+03  0.11936437339E+03  0.10570000000E+00 0.  1.
         13    1    3    3    0    0  0.19357120665E+02 -0.44125616160E+02 -0.74925483047E+02  0.89082025708E+02  0.10570000000E+00 0. -1.
<mgrwt>
<rscale>  0 0.97699997E+02</rscale>
<asrwt>0</asrwt>
<pdfrwt beam="1">  1        1 0.18703347E-02 0.97699997E+02</pdfrwt>
<pdfrwt beam="2">  1       -1 0.30198340E-01 0.97699997E+02</pdfrwt>
<totfact> 0.58270824E+04</totfact>
</mgrwt>
</event>
<event>
 5   1  0.1388354E+00  0.9090847E+02  0.7818608E-02  0.1300666E+00
          1   -1    0    0  501    0  0.00000000000E+00  0.00000000000E+00  0.15607203907E+02  0.15607204606E+02  0.46700000000E-02 0. -1.
         -1   -1    0    0    0  501 -0.00000000000E+00 -0.00000000000E+00 -0.13238037440E+03  0.13238037449E+03  0.46700000000E-02 0.  1.
         23    2    1    2    0    0  0.00000000000E+00  0.00000000000E+00 -0.11677317050E+03  0.14798757909E+03  0.90908471650E+02 0.  0.
        -13    1    3    3    0    0  0.43300858007E+02 -0.13063181536E+02 -0.65750871591E+02  0.79804757399E+02  0.10570000000E+00 0.  1.
         13    1    3    3    0    0 -0.43300858007E+02  0.13063181536E+02 -0.51022298904E+02  0.68182821693E+02  0.10570000000E+00 0. -1.
<mgrwt>
<rscale>  0 0.90908472E+02</rscale>
<asrwt>0</asrwt>
<pdfrwt beam="1">  1        1 0.24011084E-02 0.90908472E+02</pdfrwt>
<pdfrwt beam="2">  1       -1 0.20366211E-01 0.90908472E+02</pdfrwt>
<totfact> 0.77512818E+04</totfact>
</mgrwt>
</event>
<event>
 5   1  0.1388354E+00  0.9456305E+02  0.7818608E-02  0.1292163E+00
         -1   -1    0    0    0  501 -0.00000000000E+00  0.00000000000E+00  0.82304740440E+01  0.82304753689E+01  0.46700000000E-02 0.  1.
          1   -1    0    0  501    0  0.00000000000E+00 -0.00000000000E+00 -0.27161769521E+03  0.27161769525E+03  0.46700000000E-02 0. -1.
         23    2    1    2    0    0  0.00000000000E+00  0.00000000000E+00 -0.26338722116E+03  0.27984817062E+03  0.94563049470E+02 0.  0.
        -13    1    3    3    0    0 -0.34462697619E+02  0.31697175187E+02 -0.15113180880E+03  0.15821890925E+03  0.10570000000E+00 0.  1.
         13    1    3    3    0    0  0.34462697619E+02 -0.31697175187E+02 -0.11225541237E+03  0.12162926136E+03  0.10570000000E+00 0. -1.
<mgrwt>
<rscale>  0 0.94563049E+02</rscale>
<asrwt>0</asrwt>
<pdfrwt beam="2">  1        1 0.41787331E-01 0.94563049E+02</pdfrwt>
<pdfrwt beam="1">  1       -1 0.12662271E-02 0.94563049E+02</pdfrwt>
<totfact> 0.11400750E+05</totfact>
</mgrwt>
</event>
<event>
 5   1  0.1388354E+00  0.9161504E+02  0.7818608E-02  0.1298987E+00
         -1   -1    0    0    0  501 -0.00000000000E+00  0.00000000000E+00  0.13588472450E+03  0.13588472458E+03  0.46700000000E-02 0.  1.
          1   -1    0    0  501    0  0.00000000000E+00 -0.00000000000E+00 -0.15441977395E+02  0.15441978101E+02  0.46700000000E-02 0. -1.
         23    2    1    2    0    0  0.00000000000E+00  0.00000000000E+00  0.12044274711E+03  0.15132670268E+03  0.91615040328E+02 0.  0.
        -13    1    3    3    0    0 -0.41889518074E+02  0.12840707086E+02  0.38140624595E+02  0.58089017033E+02  0.10570000000E+00 0. -1.
         13    1    3    3    0    0  0.41889518074E+02 -0.12840707086E+02  0.82302122512E+02  0.93237685650E+02  0.10570000000E+00 0.  1.
<mgrwt>
<rscale>  0 0.91615040E+02</rscale>
<asrwt>0</asrwt>
<pdfrwt beam="2">  1        1 0.23756889E-02 0.91615040E+02</pdfrwt>
<pdfrwt beam="1">  1       -1 0.20905342E-01 0.91615040E+02</pdfrwt>
<totfact> 0.75540080E+04</totfact>
</mgrwt>
</event>
<event>
 5   1  0.1388354E+00  0.9181605E+02  0.7818608E-02  0.1298513E+00
          1   -1    0    0  501    0  0.00000000000E+00  0.00000000000E+00  0.29776052246E+02  0.29776052613E+02  0.46700000000E-02 0. -1.
         -1   -1    0    0    0  501 -0.00000000000E+00 -0.00000000000E+00 -0.70779931456E+02  0.70779931610E+02  0.46700000000E-02 0.  1.
         23    2    1    2    0    0  0.00000000000E+00  0.00000000000E+00 -0.41003879210E+02  0.10055598422E+03  0.91816054439E+02 0.  0.
        -13    1    3    3    0    0 -0.14775643905E+02 -0.24009209677E+02  0.19179212821E+02  0.34097143268E+02  0.10570000000E+00 0. -1.
         13    1    3    3    0    0  0.14775643905E+02  0.24009209677E+02 -0.60183092031E+02  0.66458840954E+02  0.10570000000E+00 0.  1.
<mgrwt>
<rscale>  0 0.91816054E+02</rscale>
<asrwt>0</asrwt>
<pdfrwt beam="1">  1        1 0.45809312E-02 0.91816054E+02</pdfrwt>
<pdfrwt beam="2">  1       -1 0.10889220E-01 0.91816054E+02</pdfrwt>
<totfact> 0.84856899E+04</totfact>
</mgrwt>
</event>
<event>
 5   1  0.1388354E+00  0.8893688E+02  0.7818608E-02  0.1305447E+00
          1   -1    0    0  501    0  0.00000000000E+00  0.00000000000E+00  0.88326920331E+02  0.88326920454E+02  0.46700000000E-02 0. -1.
         -1   -1    0    0    0  501 -0.00000000000E+00 -0.00000000000E+00 -0.22387762435E+02  0.22387762922E+02  0.46700000000E-02 0.  1.
         23    2    1    2    0    0  0.00000000000E+00  0.00000000000E+00  0.65939157895E+02  0.11071468338E+03  0.88936879702E+02 0.  0.
        -13    1    3    3    0    0 -0.33608147540E+02 -0.86804043640E+01 -0.16317970324E+01  0.34749545824E+02  0.10570000000E+00 0.  1.
         13    1    3    3    0    0  0.33608147540E+02  0.86804043640E+01  0.67570954928E+02  0.75965137552E+02  0.10570000000E+00 0. -1.
<mgrwt>
<rscale>  0 0.88936880E+02</rscale>
<asrwt>0</asrwt>
<pdfrwt beam="1">  1        1 0.13588757E-01 0.88936880E+02</pdfrwt>
<pdfrwt beam="2">  1       -1 0.34442713E-02 0.88936880E+02</pdfrwt>
<totfact> 0.10953897E+05</totfact>
</mgrwt>
</event>
<event>
 5   1  0.1388354E+00  0.9057038E+02  0.7818608E-02  0.1301476E+00
         -1   -1    0    0    0  501 -0.00000000000E+00  0.00000000000E+00  0.94531947525E+01  0.94531959060E+01  0.46700000000E-02 0. -1.
          1   -1    0    0  501    0  0.00000000000E+00 -0.00000000000E+00 -0.21693708288E+03  0.21693708293E+03  0.46700000000E-02 0.  1.
         23    2    1    2    0    0  0.00000000000E+00  0.00000000000E+00 -0.20748388813E+03  0.22639027884E+03  0.90570384338E+02 0.  0.
        -13    1    3    3    0    0  0.34379732541E+02  0.28294039868E+02 -0.83096536520E+02  0.94273878968E+02  0.10570000000E+00 0. -1.
         13    1    3    3    0    0 -0.34379732541E+02 -0.28294039868E+02 -0.12438735161E+03  0.13211639987E+03  0.10570000000E+00 0.  1.
<mgrwt>
<rscale>  0 0.90570384E+02</rscale>
<asrwt>0</asrwt>
<pdfrwt beam="2">  1        1 0.33374932E-01 0.90570384E+02</pdfrwt>
<pdfrwt beam="1">  1       -1 0.14543379E-02 0.90570384E+02</pdfrwt>
<totfact> 0.12246129E+05</totfact>
</mgrwt>
</event>
<event>
 5   1  0.1388354E+00  0.8912048E+02  0.7818608E-02  0.1304996E+00
          1   -1    0    0  501    0  0.00000000000E+00  0.00000000000E+00  0.25626040089E+03  0.25626040093E+03  0.46700000000E-02 0. -1.
         -1   -1    0    0    0  501 -0.00000000000E+00 -0.00000000000E+00 -0.77484269017E+01  0.77484283090E+01  0.46700000000E-02 0.  1.
         23    2    1    2    0    0  0.00000000000E+00  0.00000000000E+00  0.24851197399E+03  0.26400882924E+03  0.89120484188E+02 0.  0.
        -13    1    3    3    0    0 -0.24623867927E+02 -0.31528894613E+02  0.18239703951E+03  0.18673268932E+03  0.10570000000E+00 0. -1.
         13    1    3    3    0    0  0.24623867927E+02  0.31528894613E+02  0.66114934476E+02  0.77276139916E+02  0.10570000000E+00 0.  1.
<mgrwt>
<rscale>  0 0.89120484E+02</rscale>
<asrwt>0</asrwt>
<pdfrwt beam="1">  1        1 0.39424668E-01 0.89120484E+02</pdfrwt>
<pdfrwt beam="2">  1       -1 0.11920661E-02 0.89120484E+02</pdfrwt>
<totfact> 0.13205763E+05</totfact>
</mgrwt>
</event>
<event>
 5   1  0.1388354E+00  0.9163377E+02  0.7818608E-02  0.1298943E+00
          1   -1    0    0  501    0  0.00000000000E+00  0.00000000000E+00  0.51331219032E+02  0.51331219244E+02  0.46700000000E-02 0. -1.
         -1   -1    0    0    0  501 -0.00000000000E+00 -0.00000000000E+00 -0.40894936864E+02  0.40894937130E+02  0.46700000000E-02 0.  1.
         23    2    1    2    0    0  0.00000000000E+00  0.00000000000E+00  0.10436282168E+02  0.92226156375E+02  0.91633770708E+02 0.  0.
        -13    1    3    3    0    0  0.36975734067E+02 -0.57874435449E+01  0.31817699030E+02  0.49123075602E+02  0.10570000000E+00 0.  1.
         13    1    3    3    0    0 -0.36975734067E+02  0.57874435449E+01 -0.21381416862E+02  0.43103080772E+02  0.10570000000E+00 0. -1.
<mgrwt>
<rscale>  0 0.91633771E+02</rscale>
<asrwt>0</asrwt>
<pdfrwt beam="1">  1        1 0.78971106E-02 0.91633771E+02</pdfrwt>
<pdfrwt beam="2">  1       -1 0.62915288E-02 0.91633771E+02</pdfrwt>
<totfact> 0.92827905E+04</totfact>
</mgrwt>
</event>
<event>
 5   1  0.1388354E+00  0.9042391E+02  0.7818608E-02  0.1301828E+00
         -1   -1    0    0    0  501 -0.00000000000E+00  0.00000000000E+00  0.12134010259E+02  0.12134011158E+02  0.46700000000E-02 0.  1.
          1   -1    0    0  501    0  0.00000000000E+00 -0.00000000000E+00 -0.16846209460E+03  0.16846209466E+03  0.46700000000E-02 0. -1.
         23    2    1    2    0    0  0.00000000000E+00  0.00000000000E+00 -0.15632808434E+03  0.18059610582E+03  0.90423909916E+02 0.  0.
        -13    1    3    3    0    0 -0.26909978221E+02  0.36589971855E+01 -0.15035656023E+03  0.15278953356E+03  0.10570000000E+00 0. -1.
         13    1    3    3    0    0  0.26909978221E+02 -0.36589971855E+01 -0.59715241078E+01  0.27806572261E+02  0.10570000000E+00 0.  1.
<mgrwt>
<rscale>  0 0.90423910E+02</rscale>
<asrwt>0</asrwt>
<pdfrwt beam="2">  1        1 0.25917244E-01 0.90423910E+02</pdfrwt>
<pdfrwt beam="1">  1       -1 0.18667710E-02 0.90423910E+02</pdfrwt>
<totfact> 0.11716207E+05</totfact>
</mgrwt>
</event>
<event>
 5   1  0.1388354E+00  0.9234618E+02  0.7818608E-02  0.1297268E+00
          1   -1    0    0  501    0  0.00000000000E+00  0.00000000000E+00  0.48308911308E+02  0.48308911533E+02  0.46700000000E-02 0. -1.
         -1   -1    0    0    0  501 -0.00000000000E+00 -0.00000000000E+00 -0.44131693140E+02  0.44131693388E+02  0.46700000000E-02 0.  1.
         23    2    1    2    0    0  0.00000000000E+00  0.00000000000E+00  0.41772181672E+01  0.92440604921E+02  0.92346176350E+02 0.  0.
        -13    1    3    3    0    0 -0.39991224546E+01  0.45990633027E+02  0.29904145844E+01  0.46261053366E+02  0.10570000000E+00 0.  1.
         13    1    3    3    0    0  0.39991224546E+01 -0.45990633027E+02  0.11868035828E+01  0.46179551555E+02  0.10570000000E+00 0. -1.
<mgrwt>
<rscale>  0 0.92346176E+02</rscale>
<asrwt>0</asrwt>
<pdfrwt beam="1">  1        1 0.74321402E-02 0.92346176E+02</pdfrwt>
<pdfrwt beam="2">  1       -1 0.67894913E-02 0.92346176E+02</pdfrwt>
<totfact> 0.90005343E+04</totfact>
</mgrwt>
</event>
<event>
 5   1  0.1388354E+00  0.8377107E+02  0.7818608E-02  0.1318678E+00
         -1   -1    0    0    0  501 -0.00000000000E+00  0.00000000000E+00  0.23448540420E+03  0.23448540425E+03  0.46700000000E-02 0.  1.
          1   -1    0    0  501    0  0.00000000000E+00 -0.00000000000E+00 -0.74819073306E+01  0.74819087880E+01  0.46700000000E-02 0. -1.
         23    2    1    2    0    0  0.00000000000E+00  0.00000000000E+00  0.22700349687E+03  0.24196731304E+03  0.83771074878E+02 0.  0.
        -13    1    3    3    0    0  0.40827125232E+02 -0.93531409319E+01  0.11284515142E+03  0.12036766497E+03  0.10570000000E+00 0. -1.
         13    1    3    3    0    0 -0.40827125232E+02  0.93531409319E+01  0.11415834545E+03  0.12159964806E+03  0.10570000000E+00 0.  1.
<mgrwt>
<rscale>  0 0.83771075E+02</rscale>
<asrwt>0</asrwt>
<pdfrwt beam="2">  1        1 0.11510627E-02 0.83771075E+02</pdfrwt>
<pdfrwt beam="1">  1       -1 0.36074681E-01 0.83771075E+02</pdfrwt>
<totfact> 0.82457749E+04</totfact>
</mgrwt>
</event>
<event>
 5   1  0.1388354E+00  0.9185858E+02  0.7818608E-02  0.1298412E+00
          1   -1    0    0  501    0  0.00000000000E+00  0.00000000000E+00  0.44182874448E+03  0.44182874451E+03  0.46700000000E-02 0. -1.
         -1   -1    0    0    0  501 -0.00000000000E+00 -0.00000000000E+00 -0.47744721273E+01  0.47744744112E+01  0.46700000000E-02 0.  1.
         23    2    1    2    0    0  0.00000000000E+00  0.00000000000E+00  0.43705427235E+03  0.44660321892E+03  0.91858576978E+02 0.  0.
        -13    1    3    3    0    0 -0.41569649999E+02  0.17372102798E+02  0.26192110838E+03  0.26576776318E+03  0.10570000000E+00 0. -1.
         13    1    3    3    0    0  0.41569649999E+02 -0.17372102798E+02  0.17513316397E+03  0.18083545574E+03  0.10570000000E+00 0.  1.
<mgrwt>
<rscale>  0 0.91858577E+02</rscale>
<asrwt>0</asrwt>
<pdfrwt beam="1">  1        1 0.67973638E-01 0.91858577E+02</pdfrwt>
<pdfrwt beam="2">  1       -1 0.73453451E-03 0.91858577E+02</pdfrwt>
<totfact> 0.13431104E+05</totfact>
</mgrwt>
</event>
<event>
 5   1  0.1388354E+00  0.9063361E+02  0.7818608E-02  0.1301325E+00
         -1   -1    0    0    0  501 -0.00000000000E+00  0.00000000000E+00  0.29510490581E+03  0.29510490585E+03  0.46700000000E-02 0.  1.
          1   -1    0    0  501    0  0.00000000000E+00 -0.00000000000E+00 -0.69589242550E+01  0.69589258220E+01  0.46700000000E-02 0. -1.
         23    2    1    2    0    0  0.00000000000E+00  0.00000000000E+00  0.28814598155E+03  0.30206383167E+03  0.90633612507E+02 0.  0.
        -13    1    3    3    0    0 -0.32510972706E+02  0.28147698872E+02  0.96430777217E+02  0.10558485813E+03  0.10570000000E+00 0. -1.
         13    1    3    3    0    0  0.32510972706E+02 -0.28147698872E+02  0.19171520434E+03  0.19647897354E+03  0.10570000000E+00 0.  1.
<mgrwt>
<rscale>  0 0.90633613E+02</rscale>
<asrwt>0</asrwt>
<pdfrwt beam="2">  1        1 0.10706034E-02 0.90633613E+02</pdfrwt>
<pdfrwt beam="1">  1       -1 0.45400772E-01 0.90633613E+02</pdfrwt>
<totfact> 0.61937187E+04</totfact>
</mgrwt>
</event>
<event>
 5   1  0.1388354E+00  0.8893969E+02  0.7818608E-02  0.1305440E+00
         -1   -1    0    0    0  501 -0.00000000000E+00  0.00000000000E+00  0.10878362395E+03  0.10878362405E+03  0.46700000000E-02 0.  1.
          1   -1    0    0  501    0  0.00000000000E+00 -0.00000000000E+00 -0.18178902546E+02  0.18178903146E+02  0.46700000000E-02 0. -1.
         23    2    1    2    0    0  0.00000000000E+00  0.00000000000E+00  0.90604721408E+02  0.12696252720E+03  0.88939686146E+02 0.  0.
        -13    1    3    3    0    0  0.29185000995E+02  0.33290220981E+02  0.51283055141E+02  0.67749287916E+02  0.10570000000E+00 0.  1.
         13    1    3    3    0    0 -0.29185000995E+02 -0.33290220981E+02  0.39321666267E+02  0.59213239285E+02  0.10570000000E+00 0. -1.
<mgrwt>
<rscale>  0 0.88939686E+02</rscale>
<asrwt>0</asrwt>
<pdfrwt beam="2">  1        1 0.27967543E-02 0.88939686E+02</pdfrwt>
<pdfrwt beam="1">  1       -1 0.16735942E-01 0.88939686E+02</pdfrwt>
<totfact> 0.85373620E+04</totfact>
</mgrwt>
</event>
<event>
 5   1  0.1388354E+00  0.9060927E+02  0.7818608E-02  0.1301383E+00
         -1   -1    0    0    0  501 -0.00000000000E+00  0.00000000000E+00  0.39493954785E+02  0.39493955061E+02  0.46700000000E-02 0.  1.
          1   -1    0    0  501    0  0.00000000000E+00 -0.00000000000E+00 -0.51970227724E+02  0.51970227934E+02  0.46700000000E-02 0. -1.
         23    2    1    2    0    0  0.00000000000E+00  0.00000000000E+00 -0.12476272939E+02  0.91464182995E+02  0.90609267652E+02 0.  0.
        -13    1    3    3    0    0 -0.38456801134E+02 -0.22059624295E+02  0.31743308773E+01  0.44448173489E+02  0.10570000000E+00 0.  1.
         13    1    3    3    0    0  0.38456801134E+02  0.22059624295E+02 -0.15650603816E+02  0.47016009506E+02  0.10570000000E+00 0. -1.
<mgrwt>
<rscale>  0 0.90609268E+02</rscale>
<asrwt>0</asrwt>
<pdfrwt beam="2">  1        1 0.79954197E-02 0.90609268E+02</pdfrwt>
<pdfrwt beam="1">  1       -1 0.60759931E-02 0.90609268E+02</pdfrwt>
<totfact> 0.95965391E+04</totfact>
</mgrwt>
</event>
<event>
 5   1  0.1388354E+00  0.9003726E+02  0.7818608E-02  0.1302762E+00
          1   -1    0    0  501    0  0.00000000000E+00  0.00000000000E+00  0.20128758222E+02  0.20128758763E+02  0.46700000000E-02 0. -1.
         -1   -1    0    0    0  501 -0.00000000000E+00 -0.00000000000E+00 -0.10068563521E+03  0.10068563532E+03  0.46700000000E-02 0.  1.
         23    2    1    2    0    0  0.00000000000E+00  0.00000000000E+00 -0.80556876992E+02  0.12081439409E+03  0.90037255553E+02 0.  0.
        -13    1    3    3    0    0  0.14477767164E+02  0.42409921264E+02 -0.46043378078E+02  0.64251155640E+02  0.10570000000E+00 0. -1.
         13    1    3    3    0    0 -0.14477767164E+02 -0.42409921264E+02 -0.34513498914E+02  0.56563238446E+02  0.10570000000E+00 0.  1.
<mgrwt>
<rscale>  0 0.90037256E+02</rscale>
<asrwt>0</asrwt>
<pdfrwt beam="1">  1        1 0.30967322E-02 0.90037256E+02</pdfrwt>
<pdfrwt beam="2">  1       -1 0.15490097E-01 0.90037256E+02</pdfrwt>
<totfact> 0.83940076E+04</totfact>
</mgrwt>
</event>
<event>
 5   1  0.1388354E+00  0.1119032E+03  0.7818608E-02  0.1257086E+00
          1   -1    0    0  501    0  0.00000000000E+00  0.00000000000E+00  0.63726413826E+02  0.63726413997E+02  0.46700000000E-02 0. -1.
         -1   -1    0    0    0  501 -0.00000000000E+00 -0.00000000000E+00 -0.49125318048E+02  0.49125318270E+02  0.46700000000E-02 0.  1.
         23    2    1    2    0    0  0.00000000000E+00  0.00000000000E+00  0.14601095778E+02  0.11285173227E+03  0.11190317903E+03 0.  0.
        -13    1    3    3    0    0 -0.30417352120E+02 -0.20511262571E+01  0.54614617672E+02  0.62547502467E+02  0.10570000000E+00 0. -1.
         13    1    3    3    0    0  0.30417352120E+02  0.20511262571E+01 -0.40013521894E+02  0.50304229800E+02  0.10570000000E+00 0.  1.
<mgrwt>
<rscale>  0 0.11190318E+03</rscale>
<asrwt>0</asrwt>
<pdfrwt beam="1">  1        1 0.98040637E-02 0.11190318E+03</pdfrwt>
<pdfrwt beam="2">  1       -1 0.75577413E-02 0.11190318E+03</pdfrwt>
<totfact> 0.54668358E+04</totfact>
</mgrwt>
</event>
<event>
 5   1  0.1388354E+00  0.1032235E+03  0.7818608E-02  0.1273660E+00
         -1   -1    0    0    0  501 -0.00000000000E+00  0.00000000000E+00  0.28525429856E+02  0.28525430238E+02  0.46700000000E-02 0. -1.
          1   -1    0    0  501    0  0.00000000000E+00 -0.00000000000E+00 -0.93382371338E+02  0.93382371454E+02  0.46700000000E-02 0.  1.
         23    2    1    2    0    0  0.00000000000E+00  0.00000000000E+00 -0.64856941482E+02  0.12190780169E+03  0.10322349178E+03 0.  0.
        -13    1    3    3    0    0  0.39922947094E+02  0.46325928510E+01  0.58124711435E+01  0.40609095218E+02  0.10570000000E+00 0. -1.
         13    1    3    3    0    0 -0.39922947094E+02 -0.46325928510E+01 -0.70669412625E+02  0.81298706474E+02  0.10570000000E+00 0.  1.
<mgrwt>
<rscale>  0 0.10322349E+03</rscale>
<asrwt>0</asrwt>
<pdfrwt beam="2">  1        1 0.14366519E-01 0.10322349E+03</pdfrwt>
<pdfrwt beam="1">  1       -1 0.43885277E-02 0.10322349E+03</pdfrwt>
<totfact> 0.73364303E+04</totfact>
</mgrwt>
</event>
<event>
 5   1  0.1388354E+00  0.9295512E+02  0.7818608E-02  0.1295849E+00
         -1   -1    0    0    0  501 -0.00000000000E+00  0.00000000000E+00  0.78693263958E+01  0.78693277815E+01  0.46700000000E-02 0.  1.
          1   -1    0    0  501    0  0.00000000000E+00 -0.00000000000E+00 -0.27450424344E+03  0.27450424348E+03  0.46700000000E-02 0. -1.
         23    2    1    2    0    0  0.00000000000E+00  0.00000000000E+00 -0.26663491705E+03  0.28237357126E+03  0.92955122289E+02 0.  0.
        -13    1    3    3    0    0  0.21174458457E+02  0.41002498344E+02 -0.11651626453E+03  0.12532203970E+03  0.10570000000E+00 0.  1.
         13    1    3    3    0    0 -0.21174458457E+02 -0.41002498344E+02 -0.15011865252E+03  0.15705153157E+03  0.10570000000E+00 0. -1.
<mgrwt>
<rscale>  0 0.92955122E+02</rscale>
<asrwt>0</asrwt>
<pdfrwt beam="2">  1        1 0.42231415E-01 0.92955122E+02</pdfrwt>
<pdfrwt beam="1">  1       -1 0.12106659E-02 0.92955122E+02</pdfrwt>
<totfact> 0.11961147E+05</totfact>
</mgrwt>
</event>
<event>
 5   1  0.1388354E+00  0.9311340E+02  0.7818608E-02  0.1295483E+00
         -1   -1    0    0    0  501 -0.00000000000E+00  0.00000000000E+00  0.12432530298E+02  0.12432531175E+02  0.46700000000E-02 0.  1.
          1   -1    0    0  501    0  0.00000000000E+00 -0.00000000000E+00 -0.17434312090E+03  0.17434312096E+03  0.46700000000E-02 0. -1.
         23    2    1    2    0    0  0.00000000000E+00  0.00000000000E+00 -0.16191059060E+03  0.18677565213E+03  0.93113397974E+02 0.  0.
        -13    1    3    3    0    0  0.35727366253E+02  0.28034534882E+02 -0.10152282646E+03  0.11121724376E+03  0.10570000000E+00 0.  1.
         13    1    3    3    0    0 -0.35727366253E+02 -0.28034534882E+02 -0.60387764139E+02  0.75558408371E+02  0.10570000000E+00 0. -1.
<mgrwt>
<rscale>  0 0.93113398E+02</rscale>
<asrwt>0</asrwt>
<pdfrwt beam="2">  1        1 0.26822017E-01 0.93113398E+02</pdfrwt>
<pdfrwt beam="1">  1       -1 0.19126972E-02 0.93113398E+02</pdfrwt>
<totfact> 0.10897464E+05</totfact>
</mgrwt>
</event>
<event>
 5   1  0.1388354E+00  0.8525133E+02  0.7818608E-02  0.1314777E+00
         -1   -1    0    0    0  501 -0.00000000000E+00  0.00000000000E+00  0.53225632205E+02  0.53225632410E+02  0.46700000000E-02 0.  1.
          1   -1    0    0  501    0  0.00000000000E+00 -0.00000000000E+00 -0.34136699190E+02  0.34136699509E+02  0.46700000000E-02 0. -1.
         23    2    1    2    0    0  0.00000000000E+00  0.00000000000E+00  0.19088933015E+02  0.87362331919E+02  0.85251332392E+02 0.  0.
        -13    1    3    3    0    0 -0.41216146808E+02 -0.10211822614E+02  0.57260529619E+01  0.42846831083E+02  0.10570000000E+00 0.  1.
         13    1    3    3    0    0  0.41216146808E+02  0.10211822614E+02  0.13362880053E+02  0.44515500836E+02  0.10570000000E+00 0. -1.
<mgrwt>
<rscale>  0 0.85251332E+02</rscale>
<asrwt>0</asrwt>
<pdfrwt beam="2">  1        1 0.52517999E-02 0.85251332E+02</pdfrwt>
<pdfrwt beam="1">  1       -1 0.81885588E-02 0.85251332E+02</pdfrwt>
<totfact> 0.10700737E+05</totfact>
</mgrwt>
</event>
<event>
 5   1  0.1388354E+00  0.1058542E+03  0.7818608E-02  0.1268446E+00
          1   -1    0    0  501    0  0.00000000000E+00  0.00000000000E+00  0.21974321391E+03  0.21974321396E+03  0.46700000000E-02 0. -1.
         -1   -1    0    0    0  501 -0.00000000000E+00 -0.00000000000E+00 -0.12747949845E+02  0.12747950700E+02  0.46700000000E-02 0.  1.
         23    2    1    2    0    0  0.00000000000E+00  0.00000000000E+00  0.20699526407E+03  0.23249116466E+03  0.10585415580E+03 0.  0.
        -13    1    3    3    0    0 -0.11914695752E+02  0.49760890862E+02  0.73773328618E+02  0.89780963584E+02  0.10570000000E+00 0.  1.
         13    1    3    3    0    0  0.11914695752E+02 -0.49760890862E+02  0.13322193545E+03  0.14271020108E+03  0.10570000000E+00 0. -1.
<mgrwt>
<rscale>  0 0.10585416E+03</rscale>
<asrwt>0</asrwt>
<pdfrwt beam="1">  1        1 0.33806645E-01 0.10585416E+03</pdfrwt>
<pdfrwt beam="2">  1       -1 0.19612233E-02 0.10585416E+03</pdfrwt>
<totfact> 0.80591541E+04</totfact>
</mgrwt>
</event>
<event>
 5   1  0.1388354E+00  0.1094014E+03  0.7818608E-02  0.1261682E+00
         -1   -1    0    0    0  501 -0.00000000000E+00  0.00000000000E+00  0.45932131609E+02  0.45932131846E+02  0.46700000000E-02 0.  1.
          1   -1    0    0  501    0  0.00000000000E+00 -0.00000000000E+00 -0.65143195473E+02  0.65143195641E+02  0.46700000000E-02 0. -1.
         23    2    1    2    0    0  0.00000000000E+00  0.00000000000E+00 -0.19211063864E+02  0.11107532749E+03  0.10940138665E+03 0.  0.
        -13    1    3    3    0    0 -0.33727608580E+02  0.36732192825E+02  0.13218403354E+02  0.51590143729E+02  0.10570000000E+00 0.  1.
         13    1    3    3    0    0  0.33727608580E+02 -0.36732192825E+02 -0.32429467218E+02  0.59485183758E+02  0.10570000000E+00 0. -1.
<mgrwt>
<rscale>  0 0.10940139E+03</rscale>
<asrwt>0</asrwt>
<pdfrwt beam="2">  1        1 0.10022030E-01 0.10940139E+03</pdfrwt>
<pdfrwt beam="1">  1       -1 0.70664818E-02 0.10940139E+03</pdfrwt>
<totfact> 0.58537560E+04</totfact>
</mgrwt>
</event>
<event>
 5   1  0.1388354E+00  0.1238758E+03  0.7818608E-02  0.1236837E+00
          1   -1    0    0  501    0  0.00000000000E+00  0.00000000000E+00  0.17091310446E+03  0.17091310453E+03  0.46700000000E-02 0. -1.
         -1   -1    0    0    0  501 -0.00000000000E+00 -0.00000000000E+00 -0.22445921102E+02  0.22445921587E+02  0.46700000000E-02 0.  1.
         23    2    1    2    0    0  0.00000000000E+00  0.00000000000E+00  0.14846718336E+03  0.19335902611E+03  0.12387577828E+03 0.  0.
        -13    1    3    3    0    0  0.60412429584E+02 -0.80111412093E+01  0.56960938340E+02  0.83417022848E+02  0.10570000000E+00 0.  1.
         13    1    3    3    0    0 -0.60412429584E+02  0.80111412093E+01  0.91506245022E+02  0.10994200327E+03  0.10570000000E+00 0. -1.
<mgrwt>
<rscale>  0 0.12387578E+03</rscale>
<asrwt>0</asrwt>
<pdfrwt beam="1">  1        1 0.26294324E-01 0.12387578E+03</pdfrwt>
<pdfrwt beam="2">  1       -1 0.34532187E-02 0.12387578E+03</pdfrwt>
<totfact> 0.49601443E+04</totfact>
</mgrwt>
</event>
<event>
 5   1  0.1388354E+00  0.9186665E+02  0.7818608E-02  0.1298393E+00
         -1   -1    0    0    0  501 -0.00000000000E+00  0.00000000000E+00  0.13306515828E+03  0.13306515836E+03  0.46700000000E-02 0.  1.
          1   -1    0    0  501    0  0.00000000000E+00 -0.00000000000E+00 -0.15855917450E+02  0.15855918138E+02  0.46700000000E-02 0. -1.
         23    2    1    2    0    0  0.00000000000E+00  0.00000000000E+00  0.11720924083E+03  0.14892107650E+03  0.91866647321E+02 0.  0.
        -13    1    3    3    0    0  0.26691359031E+02  0.13084827934E+02  0.18394315867E+01  0.29783150438E+02  0.10570000000E+00 0. -1.
         13    1    3    3    0    0 -0.26691359031E+02 -0.13084827934E+02  0.11536980925E+03  0.11913792606E+03  0.10570000000E+00 0.  1.
<mgrwt>
<rscale>  0 0.91866647E+02</rscale>
<asrwt>0</asrwt>
<pdfrwt beam="2">  1        1 0.24393719E-02 0.91866647E+02</pdfrwt>
<pdfrwt beam="1">  1       -1 0.20471564E-01 0.91866647E+02</pdfrwt>
<totfact> 0.75349942E+04</totfact>
</mgrwt>
</event>
<event>
 5   1  0.1388354E+00  0.8841327E+02  0.7818608E-02  0.1306740E+00
         -1   -1    0    0    0  501 -0.00000000000E+00  0.00000000000E+00  0.18019745640E+02  0.18019746245E+02  0.46700000000E-02 0.  1.
          1   -1    0    0  501    0  0.00000000000E+00 -0.00000000000E+00 -0.10844917524E+03  0.10844917534E+03  0.46700000000E-02 0. -1.
         23    2    1    2    0    0  0.00000000000E+00  0.00000000000E+00 -0.90429429603E+02  0.12646892159E+03  0.88413270438E+02 0.  0.
        -13    1    3    3    0    0  0.28701289582E+02 -0.25739371585E+02 -0.76157518294E+02  0.85359580824E+02  0.10570000000E+00 0. -1.
         13    1    3    3    0    0 -0.28701289582E+02  0.25739371585E+02 -0.14271911309E+02  0.41109340765E+02  0.10570000000E+00 0.  1.
<mgrwt>
<rscale>  0 0.88413270E+02</rscale>
<asrwt>0</asrwt>
<pdfrwt beam="2">  1        1 0.16684488E-01 0.88413270E+02</pdfrwt>
<pdfrwt beam="1">  1       -1 0.27722687E-02 0.88413270E+02</pdfrwt>
<totfact> 0.11510196E+05</totfact>
</mgrwt>
</event>
<event>
 5   1  0.1388354E+00  0.5894119E+02  0.7818608E-02  0.1402330E+00
         -1   -1    0    0    0  501 -0.00000000000E+00  0.00000000000E+00  0.21970308902E+02  0.21970309398E+02  0.46700000000E-02 0. -1.
          1   -1    0    0  501    0  0.00000000000E+00 -0.00000000000E+00 -0.39531345359E+02  0.39531345635E+02  0.46700000000E-02 0.  1.
         23    2    1    2    0    0  0.00000000000E+00  0.00000000000E+00 -0.17561036457E+02  0.61501655033E+02  0.58941187385E+02 0.  0.
        -13    1    3    3    0    0 -0.28539706925E+02 -0.69326506804E+01 -0.11321078289E+02  0.31476253000E+02  0.10570000000E+00 0. -1.
         13    1    3    3    0    0  0.28539706925E+02  0.69326506804E+01 -0.62399581681E+01  0.30025402033E+02  0.10570000000E+00 0.  1.
<mgrwt>
<rscale>  0 0.58941187E+02</rscale>
<asrwt>0</asrwt>
<pdfrwt beam="2">  1        1 0.60817455E-02 0.58941187E+02</pdfrwt>
<pdfrwt beam="1">  1       -1 0.33800476E-02 0.58941187E+02</pdfrwt>
<totfact> 0.29721465E+05</totfact>
</mgrwt>
</event>
<event>
 5   1  0.1388354E+00  0.9535134E+02  0.7818608E-02  0.1290387E+00
          1   -1    0    0  501    0  0.00000000000E+00  0.00000000000E+00  0.20882729786E+02  0.20882730309E+02  0.46700000000E-02 0. -1.
         -1   -1    0    0    0  501 -0.00000000000E+00 -0.00000000000E+00 -0.10884445433E+03  0.10884445443E+03  0.46700000000E-02 0.  1.
         23    2    1    2    0    0  0.00000000000E+00  0.00000000000E+00 -0.87961724542E+02  0.12972718474E+03  0.95351337041E+02 0.  0.
        -13    1    3    3    0    0  0.20060750247E+02  0.36843868723E+02 -0.13164194621E+02  0.43968301712E+02  0.10570000000E+00 0. -1.
         13    1    3    3    0    0 -0.20060750247E+02 -0.36843868723E+02 -0.74797529922E+02  0.85758883026E+02  0.10570000000E+00 0.  1.
<mgrwt>
<rscale>  0 0.95351337E+02</rscale>
<asrwt>0</asrwt>
<pdfrwt beam="1">  1        1 0.32127278E-02 0.95351337E+02</pdfrwt>
<pdfrwt beam="2">  1       -1 0.16745300E-01 0.95351337E+02</pdfrwt>
<totfact> 0.71323462E+04</totfact>
</mgrwt>
</event>
<event>
 5   1  0.1388354E+00  0.9213914E+02  0.7818608E-02  0.1297753E+00
         -1   -1    0    0    0  501 -0.00000000000E+00  0.00000000000E+00  0.37514685934E+03  0.37514685937E+03  0.46700000000E-02 0.  1.
          1   -1    0    0  501    0  0.00000000000E+00 -0.00000000000E+00 -0.56575309143E+01  0.56575328417E+01  0.46700000000E-02 0. -1.
         23    2    1    2    0    0  0.00000000000E+00  0.00000000000E+00  0.36948932843E+03  0.38080439221E+03  0.92139141012E+02 0.  0.
        -13    1    3    3    0    0  0.41439625604E+02 -0.15502148926E+02  0.23780652266E+03  0.24188739650E+03  0.10570000000E+00 0.  1.
         13    1    3    3    0    0 -0.41439625604E+02  0.15502148926E+02  0.13168280576E+03  0.13891699571E+03  0.10570000000E+00 0. -1.
<mgrwt>
<rscale>  0 0.92139141E+02</rscale>
<asrwt>0</asrwt>
<pdfrwt beam="2">  1        1 0.87038958E-03 0.92139141E+02</pdfrwt>
<pdfrwt beam="1">  1       -1 0.57714898E-01 0.92139141E+02</pdfrwt>
<totfact> 0.53502738E+04</totfact>
</mgrwt>
</event>
<event>
 5   1  0.1388354E+00  0.9000269E+02  0.7818608E-02  0.1302845E+00
         -1   -1    0    0    0  501 -0.00000000000E+00  0.00000000000E+00  0.41298711008E+02  0.41298711272E+02  0.46700000000E-02 0.  1.
          1   -1    0    0  501    0  0.00000000000E+00 -0.00000000000E+00 -0.49035942046E+02  0.49035942268E+02  0.46700000000E-02 0. -1.
         23    2    1    2    0    0  0.00000000000E+00  0.00000000000E+00 -0.77372310376E+01  0.90334653541E+02  0.90002693772E+02 0.  0.
        -13    1    3    3    0    0 -0.42606141237E+02  0.62930035129E+01  0.92265321333E+01  0.44045717522E+02  0.10570000000E+00 0.  1.
         13    1    3    3    0    0  0.42606141237E+02 -0.62930035129E+01 -0.16963763171E+02  0.46288936019E+02  0.10570000000E+00 0. -1.
<mgrwt>
<rscale>  0 0.90002694E+02</rscale>
<asrwt>0</asrwt>
<pdfrwt beam="2">  1        1 0.75439911E-02 0.90002694E+02</pdfrwt>
<pdfrwt beam="1">  1       -1 0.63536479E-02 0.90002694E+02</pdfrwt>
<totfact> 0.96936242E+04</totfact>
</mgrwt>
</event>
<event>
 5   1  0.1388354E+00  0.8964955E+02  0.7818608E-02  0.1303703E+00
         -1   -1    0    0    0  501 -0.00000000000E+00  0.00000000000E+00  0.23953224692E+02  0.23953225148E+02  0.46700000000E-02 0.  1.
          1   -1    0    0  501    0  0.00000000000E+00 -0.00000000000E+00 -0.83882676307E+02  0.83882676437E+02  0.46700000000E-02 0. -1.
         23    2    1    2    0    0  0.00000000000E+00  0.00000000000E+00 -0.59929451614E+02  0.10783590158E+03  0.89649553818E+02 0.  0.
        -13    1    3    3    0    0  0.16642579120E+02  0.11501264005E+02 -0.78079067236E+02  0.80657339569E+02  0.10570000000E+00 0. -1.
         13    1    3    3    0    0 -0.16642579120E+02 -0.11501264005E+02  0.18149615622E+02  0.27178562015E+02  0.10570000000E+00 0.  1.
<mgrwt>
<rscale>  0 0.89649554E+02</rscale>
<asrwt>0</asrwt>
<pdfrwt beam="2">  1        1 0.12905027E-01 0.89649554E+02</pdfrwt>
<pdfrwt beam="1">  1       -1 0.36851116E-02 0.89649554E+02</pdfrwt>
<totfact> 0.10630452E+05</totfact>
</mgrwt>
</event>
<event>
 5   1  0.1388354E+00  0.9297422E+02  0.7818608E-02  0.1295805E+00
         -1   -1    0    0    0  501 -0.00000000000E+00  0.00000000000E+00  0.49651937838E+02  0.49651938058E+02  0.46700000000E-02 0.  1.
          1   -1    0    0  501    0  0.00000000000E+00 -0.00000000000E+00 -0.43524012697E+02  0.43524012948E+02  0.46700000000E-02 0. -1.
         23    2    1    2    0    0  0.00000000000E+00  0.00000000000E+00  0.61279251406E+01  0.93175951006E+02  0.92974224274E+02 0.  0.
        -13    1    3    3    0    0  0.94115403611E+01  0.35013352587E+02  0.32222252848E+02  0.48505635780E+02  0.10570000000E+00 0.  1.
         13    1    3    3    0    0 -0.94115403611E+01 -0.35013352587E+02 -0.26094327708E+02  0.44670315225E+02  0.10570000000E+00 0. -1.
<mgrwt>
<rscale>  0 0.92974224E+02</rscale>
<asrwt>0</asrwt>
<pdfrwt beam="2">  1        1 0.66960020E-02 0.92974224E+02</pdfrwt>
<pdfrwt beam="1">  1       -1 0.76387597E-02 0.92974224E+02</pdfrwt>
<totfact> 0.86910239E+04</totfact>
</mgrwt>
</event>
<event>
 5   1  0.1388354E+00  0.8952927E+02  0.7818608E-02  0.1303996E+00
         -1   -1    0    0    0  501 -0.00000000000E+00  0.00000000000E+00  0.11310641581E+02  0.11310642545E+02  0.46700000000E-02 0.  1.
          1   -1    0    0  501    0  0.00000000000E+00 -0.00000000000E+00 -0.17716702009E+03  0.17716702015E+03  0.46700000000E-02 0. -1.
         23    2    1    2    0    0  0.00000000000E+00  0.00000000000E+00 -0.16585637851E+03  0.18847766270E+03  0.89529274785E+02 0.  0.
        -13    1    3    3    0    0  0.23238515929E+02  0.23204068998E+02 -0.18886829905E+02  0.37883782243E+02  0.10570000000E+00 0.  1.
         13    1    3    3    0    0 -0.23238515929E+02 -0.23204068998E+02 -0.14696954861E+03  0.15059388046E+03  0.10570000000E+00 0. -1.
<mgrwt>
<rscale>  0 0.89529275E+02</rscale>
<asrwt>0</asrwt>
<pdfrwt beam="2">  1        1 0.27256463E-01 0.89529275E+02</pdfrwt>
<pdfrwt beam="1">  1       -1 0.17400989E-02 0.89529275E+02</pdfrwt>
<totfact> 0.12147623E+05</totfact>
</mgrwt>
</event>
<event>
 5   1  0.1388354E+00  0.9105076E+02  0.7818608E-02  0.1300327E+00
         -1   -1    0    0    0  501 -0.00000000000E+00  0.00000000000E+00  0.26741915784E+02  0.26741916191E+02  0.46700000000E-02 0. -1.
          1   -1    0    0  501    0  0.00000000000E+00 -0.00000000000E+00 -0.77502303114E+02  0.77502303255E+02  0.46700000000E-02 0.  1.
         23    2    1    2    0    0  0.00000000000E+00  0.00000000000E+00 -0.50760387331E+02  0.10424421945E+03  0.91050757086E+02 0.  0.
        -13    1    3    3    0    0  0.34999990884E+02  0.24667634725E+02 -0.43082077025E+02  0.60741815070E+02  0.10570000000E+00 0.  1.
         13    1    3    3    0    0 -0.34999990884E+02 -0.24667634725E+02 -0.76783103059E+01  0.43502404376E+02  0.10570000000E+00 0. -1.
<mgrwt>
<rscale>  0 0.91050757E+02</rscale>
<asrwt>0</asrwt>
<pdfrwt beam="2">  1        1 0.11923431E-01 0.91050757E+02</pdfrwt>
<pdfrwt beam="1">  1       -1 0.41141410E-02 0.91050757E+02</pdfrwt>
<totfact> 0.10062484E+05</totfact>
</mgrwt>
</event>
<event>
 5   1  0.1388354E+00  0.9083322E+02  0.7818608E-02  0.1300846E+00
         -1   -1    0    0    0  501 -0.00000000000E+00  0.00000000000E+00  0.65135581812E+02  0.65135581979E+02  0.46700000000E-02 0.  1.
          1   -1    0    0  501    0  0.00000000000E+00 -0.00000000000E+00 -0.31667305132E+02  0.31667305477E+02  0.46700000000E-02 0. -1.
         23    2    1    2    0    0  0.00000000000E+00  0.00000000000E+00  0.33468276680E+02  0.96802887456E+02  0.90833217910E+02 0.  0.
        -13    1    3    3    0    0 -0.42854130060E+01  0.43066457645E+02  0.31407562139E+02  0.53474579669E+02  0.10570000000E+00 0.  1.
         13    1    3    3    0    0  0.42854130060E+01 -0.43066457645E+02  0.20607145405E+01  0.43328307787E+02  0.10570000000E+00 0. -1.
<mgrwt>
<rscale>  0 0.90833218E+02</rscale>
<asrwt>0</asrwt>
<pdfrwt beam="2">  1        1 0.48718931E-02 0.90833218E+02</pdfrwt>
<pdfrwt beam="1">  1       -1 0.10020859E-01 0.90833218E+02</pdfrwt>
<totfact> 0.88387847E+04</totfact>
</mgrwt>
</event>
<event>
 5   1  0.1388354E+00  0.9278591E+02  0.7818608E-02  0.1296242E+00
          1   -1    0    0  501    0  0.00000000000E+00  0.00000000000E+00  0.63956928654E+02  0.63956928825E+02  0.46700000000E-02 0. -1.
         -1   -1    0    0    0  501 -0.00000000000E+00 -0.00000000000E+00 -0.33652432973E+02  0.33652433297E+02  0.46700000000E-02 0.  1.
         23    2    1    2    0    0  0.00000000000E+00  0.00000000000E+00  0.30304495681E+02  0.97609362121E+02  0.92785910112E+02 0.  0.
        -13    1    3    3    0    0  0.26408812090E+02  0.54046070877E+01  0.54872996073E+02  0.61136666611E+02  0.10570000000E+00 0. -1.
         13    1    3    3    0    0 -0.26408812090E+02 -0.54046070877E+01 -0.24568500392E+02  0.36472695510E+02  0.10570000000E+00 0.  1.
<mgrwt>
<rscale>  0 0.92785910E+02</rscale>
<asrwt>0</asrwt>
<pdfrwt beam="1">  1        1 0.98395274E-02 0.92785910E+02</pdfrwt>
<pdfrwt beam="2">  1       -1 0.51772975E-02 0.92785910E+02</pdfrwt>
<totfact> 0.92702162E+04</totfact>
</mgrwt>
</event>
<event>
 5   1  0.1388354E+00  0.9361081E+02  0.7818608E-02  0.1294336E+00
         -1   -1    0    0    0  501 -0.00000000000E+00  0.00000000000E+00  0.14952772580E+02  0.14952773309E+02  0.46700000000E-02 0.  1.
          1   -1    0    0  501    0  0.00000000000E+00 -0.00000000000E+00 -0.14651101962E+03  0.14651101970E+03  0.46700000000E-02 0. -1.
         23    2    1    2    0    0  0.00000000000E+00  0.00000000000E+00 -0.13155824704E+03  0.16146379301E+03  0.93610811806E+02 0.  0.
        -13    1    3    3    0    0  0.12973897946E+02  0.32326655409E+02 -0.11970352635E+03  0.12466868120E+03  0.10570000000E+00 0. -1.
         13    1    3    3    0    0 -0.12973897946E+02 -0.32326655409E+02 -0.11854720691E+02  0.36795111809E+02  0.10570000000E+00 0.  1.
<mgrwt>
<rscale>  0 0.93610812E+02</rscale>
<asrwt>0</asrwt>
<pdfrwt beam="2">  1        1 0.22540156E-01 0.93610812E+02</pdfrwt>
<pdfrwt beam="1">  1       -1 0.23004267E-02 0.93610812E+02</pdfrwt>
<totfact> 0.10396856E+05</totfact>
</mgrwt>
</event>
<event>
 5   1  0.1388354E+00  0.9049823E+02  0.7818608E-02  0.1301650E+00
         -1   -1    0    0    0  501 -0.00000000000E+00  0.00000000000E+00  0.85312431892E+02  0.85312432020E+02  0.46700000000E-02 0.  1.
          1   -1    0    0  501    0  0.00000000000E+00 -0.00000000000E+00 -0.23999812907E+02  0.23999813362E+02  0.46700000000E-02 0. -1.
         23    2    1    2    0    0  0.00000000000E+00  0.00000000000E+00  0.61312618985E+02  0.10931224538E+03  0.90498230610E+02 0.  0.
        -13    1    3    3    0    0 -0.35122353856E+02  0.17386236854E+02  0.57977420950E+02  0.69980379284E+02  0.10570000000E+00 0.  1.
         13    1    3    3    0    0  0.35122353856E+02 -0.17386236854E+02  0.33351980353E+01  0.39331866098E+02  0.10570000000E+00 0. -1.
<mgrwt>
<rscale>  0 0.90498231E+02</rscale>
<asrwt>0</asrwt>
<pdfrwt beam="2">  1        1 0.36922789E-02 0.90498231E+02</pdfrwt>
<pdfrwt beam="1">  1       -1 0.13124990E-01 0.90498231E+02</pdfrwt>
<totfact> 0.85342329E+04</totfact>
</mgrwt>
</event>
<event>
 5   1  0.1388354E+00  0.9000043E+02  0.7818608E-02  0.1302851E+00
         -1   -1    0    0    0  501 -0.00000000000E+00  0.00000000000E+00  0.18575131402E+02  0.18575131989E+02  0.46700000000E-02 0.  1.
          1   -1    0    0  501    0  0.00000000000E+00 -0.00000000000E+00 -0.10901775423E+03  0.10901775433E+03  0.46700000000E-02 0. -1.
         23    2    1    2    0    0  0.00000000000E+00  0.00000000000E+00 -0.90442622830E+02  0.12759288632E+03  0.90000425639E+02 0.  0.
        -13    1    3    3    0    0 -0.10301878856E+02 -0.26122347276E+02  0.46303174717E+01  0.28459739063E+02  0.10570000000E+00 0.  1.
         13    1    3    3    0    0  0.10301878856E+02  0.26122347276E+02 -0.95072940301E+02  0.99133147257E+02  0.10570000000E+00 0. -1.
<mgrwt>
<rscale>  0 0.90000426E+02</rscale>
<asrwt>0</asrwt>
<pdfrwt beam="2">  1        1 0.16771962E-01 0.90000426E+02</pdfrwt>
<pdfrwt beam="1">  1       -1 0.28577127E-02 0.90000426E+02</pdfrwt>
<totfact> 0.10978131E+05</totfact>
</mgrwt>
</event>
<event>
 5   1  0.1388354E+00  0.9306744E+02  0.7818608E-02  0.1295589E+00
         -1   -1    0    0    0  501 -0.00000000000E+00  0.00000000000E+00  0.84098512500E+01  0.84098525466E+01  0.46700000000E-02 0.  1.
          1   -1    0    0  501    0  0.00000000000E+00 -0.00000000000E+00 -0.25748217722E+03  0.25748217726E+03  0.46700000000E-02 0. -1.
         23    2    1    2    0    0  0.00000000000E+00  0.00000000000E+00 -0.24907232597E+03  0.26589202981E+03  0.93067437656E+02 0.  0.
        -13    1    3    3    0    0 -0.33980932356E+02  0.23286842831E+02 -0.18636821916E+03  0.19086672077E+03  0.10570000000E+00 0. -1.
         13    1    3    3    0    0  0.33980932356E+02 -0.23286842831E+02 -0.62704106812E+02  0.75025309039E+02  0.10570000000E+00 0.  1.
<mgrwt>
<rscale>  0 0.93067438E+02</rscale>
<asrwt>0</asrwt>
<pdfrwt beam="2">  1        1 0.39612637E-01 0.93067438E+02</pdfrwt>
<pdfrwt beam="1">  1       -1 0.12938236E-02 0.93067438E+02</pdfrwt>
<totfact> 0.11773792E+05</totfact>
</mgrwt>
</event>
<event>
 5   1  0.1388354E+00  0.8648068E+02  0.7818608E-02  0.1311605E+00
          1   -1    0    0  501    0  0.00000000000E+00  0.00000000000E+00  0.95326420301E+02  0.95326420415E+02  0.46700000000E-02 0. -1.
         -1   -1    0    0    0  501 -0.00000000000E+00 -0.00000000000E+00 -0.19613942151E+02  0.19613942707E+02  0.46700000000E-02 0.  1.
         23    2    1    2    0    0  0.00000000000E+00  0.00000000000E+00  0.75712478150E+02  0.11494036312E+03  0.86480678345E+02 0.  0.
        -13    1    3    3    0    0  0.15670515311E+02 -0.27658470945E+02  0.76813680350E+02  0.83131875514E+02  0.10570000000E+00 0. -1.
         13    1    3    3    0    0 -0.15670515311E+02  0.27658470945E+02 -0.11012021999E+01  0.31808487608E+02  0.10570000000E+00 0.  1.
<mgrwt>
<rscale>  0 0.86480678E+02</rscale>
<asrwt>0</asrwt>
<pdfrwt beam="1">  1        1 0.14665603E-01 0.86480678E+02</pdfrwt>
<pdfrwt beam="2">  1       -1 0.30175297E-02 0.86480678E+02</pdfrwt>
<totfact> 0.11964847E+05</totfact>
</mgrwt>
</event>
<event>
 5   1  0.1388354E+00  0.9163853E+02  0.7818608E-02  0.1298932E+00
         -1   -1    0    0    0  501 -0.00000000000E+00  0.00000000000E+00  0.14588788892E+03  0.14588788899E+03  0.46700000000E-02 0.  1.
          1   -1    0    0  501    0  0.00000000000E+00 -0.00000000000E+00 -0.14390536600E+02  0.14390537358E+02  0.46700000000E-02 0. -1.
         23    2    1    2    0    0  0.00000000000E+00  0.00000000000E+00  0.13149735232E+03  0.16027842635E+03  0.91638530579E+02 0.  0.
        -13    1    3    3    0    0 -0.24623146641E+02  0.84798981965E+01  0.13168464537E+03  0.13423511099E+03  0.10570000000E+00 0.  1.
         13    1    3    3    0    0  0.24623146641E+02 -0.84798981965E+01 -0.18729304845E+00  0.26043315363E+02  0.10570000000E+00 0. -1.
<mgrwt>
<rscale>  0 0.91638531E+02</rscale>
<asrwt>0</asrwt>
<pdfrwt beam="2">  1        1 0.22139287E-02 0.91638531E+02</pdfrwt>
<pdfrwt beam="1">  1       -1 0.22444292E-01 0.91638531E+02</pdfrwt>
<totfact> 0.74291556E+04</totfact>
</mgrwt>
</event>
<event>
 5   1  0.1388354E+00  0.8935558E+02  0.7818608E-02  0.1304420E+00
          1   -1    0    0  501    0  0.00000000000E+00  0.00000000000E+00  0.85795942036E+02  0.85795942164E+02  0.46700000000E-02 0. -1.
         -1   -1    0    0    0  501 -0.00000000000E+00 -0.00000000000E+00 -0.23265725737E+02  0.23265726206E+02  0.46700000000E-02 0.  1.
         23    2    1    2    0    0  0.00000000000E+00  0.00000000000E+00  0.62530216299E+02  0.10906166837E+03  0.89355579328E+02 0.  0.
        -13    1    3    3    0    0  0.29325949507E+02 -0.31325433018E+02  0.16079386072E+02  0.45824140987E+02  0.10570000000E+00 0.  1.
         13    1    3    3    0    0 -0.29325949507E+02  0.31325433018E+02  0.46450830227E+02  0.63237527383E+02  0.10570000000E+00 0. -1.
<mgrwt>
<rscale>  0 0.89355579E+02</rscale>
<asrwt>0</asrwt>
<pdfrwt beam="1">  1        1 0.13199376E-01 0.89355579E+02</pdfrwt>
<pdfrwt beam="2">  1       -1 0.35793424E-02 0.89355579E+02</pdfrwt>
<totfact> 0.10764608E+05</totfact>
</mgrwt>
</event>
<event>
 5   1  0.1388354E+00  0.9679780E+02  0.7818608E-02  0.1287178E+00
         -1   -1    0    0    0  501 -0.00000000000E+00  0.00000000000E+00  0.11668443301E+02  0.11668444236E+02  0.46700000000E-02 0.  1.
          1   -1    0    0  501    0  0.00000000000E+00 -0.00000000000E+00 -0.20075114044E+03  0.20075114049E+03  0.46700000000E-02 0. -1.
         23    2    1    2    0    0  0.00000000000E+00  0.00000000000E+00 -0.18908269714E+03  0.21241958473E+03  0.96797797597E+02 0.  0.
        -13    1    3    3    0    0  0.17038706433E+02  0.42701256097E+02 -0.61352803267E+02  0.76667414397E+02  0.10570000000E+00 0.  1.
         13    1    3    3    0    0 -0.17038706433E+02 -0.42701256097E+02 -0.12772989387E+03  0.13575217033E+03  0.10570000000E+00 0. -1.
<mgrwt>
<rscale>  0 0.96797798E+02</rscale>
<asrwt>0</asrwt>
<pdfrwt beam="2">  1        1 0.30884788E-01 0.96797798E+02</pdfrwt>
<pdfrwt beam="1">  1       -1 0.17951453E-02 0.96797798E+02</pdfrwt>
<totfact> 0.10086544E+05</totfact>
</mgrwt>
</event>
<event>
 5   1  0.1388354E+00  0.9152903E+02  0.7818608E-02  0.1299191E+00
         -1   -1    0    0    0  501 -0.00000000000E+00  0.00000000000E+00  0.18472320451E+02  0.18472321042E+02  0.46700000000E-02 0.  1.
          1   -1    0    0  501    0  0.00000000000E+00 -0.00000000000E+00 -0.11337995379E+03  0.11337995389E+03  0.46700000000E-02 0. -1.
         23    2    1    2    0    0  0.00000000000E+00  0.00000000000E+00 -0.94907633340E+02  0.13185227493E+03  0.91529031120E+02 0.  0.
        -13    1    3    3    0    0  0.32688828656E+02  0.93889601894E+01 -0.33421749285E+01  0.34174455344E+02  0.10570000000E+00 0.  1.
         13    1    3    3    0    0 -0.32688828656E+02 -0.93889601894E+01 -0.91565458412E+02  0.97677819586E+02  0.10570000000E+00 0. -1.
<mgrwt>
<rscale>  0 0.91529031E+02</rscale>
<asrwt>0</asrwt>
<pdfrwt beam="2">  1        1 0.17443069E-01 0.91529031E+02</pdfrwt>
<pdfrwt beam="1">  1       -1 0.28418956E-02 0.91529031E+02</pdfrwt>
<totfact> 0.10557660E+05</totfact>
</mgrwt>
</event>
<event>
 5   1  0.1388354E+00  0.9163165E+02  0.7818608E-02  0.1298948E+00
         -1   -1    0    0    0  501 -0.00000000000E+00  0.00000000000E+00  0.44989642374E+02  0.44989642617E+02  0.46700000000E-02 0.  1.
          1   -1    0    0  501    0  0.00000000000E+00 -0.00000000000E+00 -0.46657176930E+02  0.46657177164E+02  0.46700000000E-02 0. -1.
         23    2    1    2    0    0  0.00000000000E+00  0.00000000000E+00 -0.16675345555E+01  0.91646819781E+02  0.91631647941E+02 0.  0.
        -13    1    3    3    0    0  0.35252685748E+02  0.21423687471E+02 -0.20770765794E+02  0.46186168075E+02  0.10570000000E+00 0. -1.
         13    1    3    3    0    0 -0.35252685748E+02 -0.21423687471E+02  0.19103231238E+02  0.45460651706E+02  0.10570000000E+00 0.  1.
<mgrwt>
<rscale>  0 0.91631648E+02</rscale>
<asrwt>0</asrwt>
<pdfrwt beam="2">  1        1 0.71780272E-02 0.91631648E+02</pdfrwt>
<pdfrwt beam="1">  1       -1 0.69214835E-02 0.91631648E+02</pdfrwt>
<totfact> 0.91507440E+04</totfact>
</mgrwt>
</event>
<event>
 5   1  0.1388354E+00  0.9056732E+02  0.7818608E-02  0.1301484E+00
         -1   -1    0    0    0  501 -0.00000000000E+00  0.00000000000E+00  0.65496060188E+02  0.65496060354E+02  0.46700000000E-02 0.  1.
          1   -1    0    0  501    0  0.00000000000E+00 -0.00000000000E+00 -0.31308907037E+02  0.31308907385E+02  0.46700000000E-02 0. -1.
         23    2    1    2    0    0  0.00000000000E+00  0.00000000000E+00  0.34187153151E+02  0.96804967739E+02  0.90567324894E+02 0.  0.
        -13    1    3    3    0    0  0.38736695581E+02 -0.54226030729E+01  0.41483157553E+02  0.57015785022E+02  0.10570000000E+00 0. -1.
         13    1    3    3    0    0 -0.38736695581E+02  0.54226030729E+01 -0.72960044021E+01  0.39789182718E+02  0.10570000000E+00 0.  1.
<mgrwt>
<rscale>  0 0.90567325E+02</rscale>
<asrwt>0</asrwt>
<pdfrwt beam="2">  1        1 0.48167550E-02 0.90567325E+02</pdfrwt>
<pdfrwt beam="1">  1       -1 0.10076317E-01 0.90567325E+02</pdfrwt>
<totfact> 0.88970761E+04</totfact>
</mgrwt>
</event>
<event>
 5   1  0.1388354E+00  0.8883900E+02  0.7818608E-02  0.1305688E+00
          1   -1    0    0  501    0  0.00000000000E+00  0.00000000000E+00  0.40911345228E+02  0.40911345495E+02  0.46700000000E-02 0. -1.
         -1   -1    0    0    0  501 -0.00000000000E+00 -0.00000000000E+00 -0.48228479586E+02  0.48228479813E+02  0.46700000000E-02 0.  1.
         23    2    1    2    0    0  0.00000000000E+00  0.00000000000E+00 -0.73171343584E+01  0.89139825307E+02  0.88839000448E+02 0.  0.
        -13    1    3    3    0    0 -0.32633974609E+02  0.13466267799E+02  0.23391283142E+02  0.42349497833E+02  0.10570000000E+00 0. -1.
         13    1    3    3    0    0  0.32633974609E+02 -0.13466267799E+02 -0.30708417500E+02  0.46790327474E+02  0.10570000000E+00 0.  1.
<mgrwt>
<rscale>  0 0.88839000E+02</rscale>
<asrwt>0</asrwt>
<pdfrwt beam="1">  1        1 0.62940531E-02 0.88839000E+02</pdfrwt>
<pdfrwt beam="2">  1       -1 0.74197661E-02 0.88839000E+02</pdfrwt>
<totfact> 0.97870340E+04</totfact>
</mgrwt>
</event>
<event>
 5   1  0.1388354E+00  0.9126124E+02  0.7818608E-02  0.1299826E+00
         -1   -1    0    0    0  501 -0.00000000000E+00  0.00000000000E+00  0.65066376467E+01  0.65066393225E+01  0.46700000000E-02 0. -1.
          1   -1    0    0  501    0  0.00000000000E+00 -0.00000000000E+00 -0.32000451471E+03  0.32000451475E+03  0.46700000000E-02 0.  1.
         23    2    1    2    0    0  0.00000000000E+00  0.00000000000E+00 -0.31349787707E+03  0.32651115407E+03  0.91261244824E+02 0.  0.
        -13    1    3    3    0    0  0.70296538744E+01 -0.44923381296E+02 -0.17042718688E+03  0.17638867147E+03  0.10570000000E+00 0.  1.
         13    1    3    3    0    0 -0.70296538744E+01  0.44923381296E+02 -0.14307069019E+03  0.15012248260E+03  0.10570000000E+00 0. -1.
<mgrwt>
<rscale>  0 0.91261245E+02</rscale>
<asrwt>0</asrwt>
<pdfrwt beam="2">  1        1 0.49231452E-01 0.91261245E+02</pdfrwt>
<pdfrwt beam="1">  1       -1 0.10010216E-02 0.91261245E+02</pdfrwt>
<totfact> 0.12937240E+05</totfact>
</mgrwt>
</event>
<event>
 5   1  0.1388354E+00  0.9611567E+02  0.7818608E-02  0.1288683E+00
          1   -1    0    0  501    0  0.00000000000E+00  0.00000000000E+00  0.94899978719E+02  0.94899978834E+02  0.46700000000E-02 0. -1.
         -1   -1    0    0    0  501 -0.00000000000E+00 -0.00000000000E+00 -0.24336730935E+02  0.24336731383E+02  0.46700000000E-02 0.  1.
         23    2    1    2    0    0  0.00000000000E+00  0.00000000000E+00  0.70563247785E+02  0.11923671022E+03  0.96115665349E+02 0.  0.
        -13    1    3    3    0    0  0.67369159455E+01  0.30924859983E+02  0.80144624692E+02  0.86167888688E+02  0.10570000000E+00 0.  1.
         13    1    3    3    0    0 -0.67369159455E+01 -0.30924859983E+02 -0.95813769076E+01  0.33068821529E+02  0.10570000000E+00 0. -1.
<mgrwt>
<rscale>  0 0.96115665E+02</rscale>
<asrwt>0</asrwt>
<pdfrwt beam="1">  1        1 0.14599997E-01 0.96115665E+02</pdfrwt>
<pdfrwt beam="2">  1       -1 0.37441125E-02 0.96115665E+02</pdfrwt>
<totfact> 0.89607230E+04</totfact>
</mgrwt>
</event>
<event>
 5   1  0.1388354E+00  0.8915884E+02  0.7818608E-02  0.1304902E+00
         -1   -1    0    0    0  501 -0.00000000000E+00  0.00000000000E+00  0.68743697338E+02  0.68743697497E+02  0.46700000000E-02 0.  1.
          1   -1    0    0  501    0  0.00000000000E+00 -0.00000000000E+00 -0.28909193673E+02  0.28909194050E+02  0.46700000000E-02 0. -1.
         23    2    1    2    0    0  0.00000000000E+00  0.00000000000E+00  0.39834503665E+02  0.97652891547E+02  0.89158844459E+02 0.  0.
        -13    1    3    3    0    0 -0.21544478500E+02  0.37892322435E+02  0.30152071075E+02  0.53001426546E+02  0.10570000000E+00 0. -1.
         13    1    3    3    0    0  0.21544478500E+02 -0.37892322435E+02  0.96824325896E+01  0.44651465000E+02  0.10570000000E+00 0.  1.
<mgrwt>
<rscale>  0 0.89158844E+02</rscale>
<asrwt>0</asrwt>
<pdfrwt beam="2">  1        1 0.44475683E-02 0.89158844E+02</pdfrwt>
<pdfrwt beam="1">  1       -1 0.10575953E-01 0.89158844E+02</pdfrwt>
<totfact> 0.91879950E+04</totfact>
</mgrwt>
</event>
<event>
 5   1  0.1388354E+00  0.9084214E+02  0.7818608E-02  0.1300825E+00
         -1   -1    0    0    0  501 -0.00000000000E+00  0.00000000000E+00  0.37415132206E+02  0.37415132498E+02  0.46700000000E-02 0.  1.
          1   -1    0    0  501    0  0.00000000000E+00 -0.00000000000E+00 -0.55140090462E+02  0.55140090659E+02  0.46700000000E-02 0. -1.
         23    2    1    2    0    0  0.00000000000E+00  0.00000000000E+00 -0.17724958255E+02  0.92555223157E+02  0.90842144341E+02 0.  0.
        -13    1    3    3    0    0  0.23608675558E+02 -0.38744075940E+02 -0.11045224069E+02  0.46695622164E+02  0.10570000000E+00 0.  1.
         13    1    3    3    0    0 -0.23608675558E+02  0.38744075940E+02 -0.66797341860E+01  0.45859600994E+02  0.10570000000E+00 0. -1.
<mgrwt>
<rscale>  0 0.90842144E+02</rscale>
<asrwt>0</asrwt>
<pdfrwt beam="2">  1        1 0.84830909E-02 0.90842144E+02</pdfrwt>
<pdfrwt beam="1">  1       -1 0.57561742E-02 0.90842144E+02</pdfrwt>
<totfact> 0.96130064E+04</totfact>
</mgrwt>
</event>
<event>
 5   1  0.1388354E+00  0.9852174E+02  0.7818608E-02  0.1283436E+00
          1   -1    0    0  501    0  0.00000000000E+00  0.00000000000E+00  0.10211128649E+03  0.10211128660E+03  0.46700000000E-02 0. -1.
         -1   -1    0    0    0  501 -0.00000000000E+00 -0.00000000000E+00 -0.23764593192E+02  0.23764593651E+02  0.46700000000E-02 0.  1.
         23    2    1    2    0    0  0.00000000000E+00  0.00000000000E+00  0.78346693297E+02  0.12587588025E+03  0.98521738095E+02 0.  0.
        -13    1    3    3    0    0  0.26623639271E+02 -0.34634390850E+01  0.91941948667E+02  0.95781765882E+02  0.10570000000E+00 0. -1.
         13    1    3    3    0    0 -0.26623639271E+02  0.34634390850E+01 -0.13595255370E+02  0.30094114364E+02  0.10570000000E+00 0.  1.
<mgrwt>
<rscale>  0 0.98521738E+02</rscale>
<asrwt>0</asrwt>
<pdfrwt beam="1">  1        1 0.15709429E-01 0.98521738E+02</pdfrwt>
<pdfrwt beam="2">  1       -1 0.36560913E-02 0.98521738E+02</pdfrwt>
<totfact> 0.84767591E+04</totfact>
</mgrwt>
</event>
<event>
 5   1  0.1388354E+00  0.9082409E+02  0.7818608E-02  0.1300868E+00
          1   -1    0    0  501    0  0.00000000000E+00  0.00000000000E+00  0.14285180513E+03  0.14285180520E+03  0.46700000000E-02 0. -1.
         -1   -1    0    0    0  501 -0.00000000000E+00 -0.00000000000E+00 -0.14436314594E+02  0.14436315349E+02  0.46700000000E-02 0.  1.
         23    2    1    2    0    0  0.00000000000E+00  0.00000000000E+00  0.12841549053E+03  0.15728812055E+03  0.90824086333E+02 0.  0.
        -13    1    3    3    0    0 -0.25415229391E+02 -0.24114261728E+02  0.14171010207E+02  0.37792329995E+02  0.10570000000E+00 0.  1.
         13    1    3    3    0    0  0.25415229391E+02  0.24114261728E+02  0.11424448033E+03  0.11949579056E+03  0.10570000000E+00 0. -1.
<mgrwt>
<rscale>  0 0.90824086E+02</rscale>
<asrwt>0</asrwt>
<pdfrwt beam="1">  1        1 0.21977202E-01 0.90824086E+02</pdfrwt>
<pdfrwt beam="2">  1       -1 0.22209715E-02 0.90824086E+02</pdfrwt>
<totfact> 0.11230509E+05</totfact>
</mgrwt>
</event>
<event>
 5   1  0.1388354E+00  0.8875244E+02  0.7818608E-02  0.1305901E+00
         -1   -1    0    0    0  501 -0.00000000000E+00  0.00000000000E+00  0.96628889448E+01  0.96628900733E+01  0.46700000000E-02 0.  1.
          1   -1    0    0  501    0  0.00000000000E+00 -0.00000000000E+00 -0.20379502568E+03  0.20379502574E+03  0.46700000000E-02 0. -1.
         23    2    1    2    0    0  0.00000000000E+00  0.00000000000E+00 -0.19413213674E+03  0.21345791581E+03  0.88752438318E+02 0.  0.
        -13    1    3    3    0    0  0.33144394396E+02  0.19277913761E+02 -0.15079441618E+03  0.15559291746E+03  0.10570000000E+00 0. -1.
         13    1    3    3    0    0 -0.33144394396E+02 -0.19277913761E+02 -0.43337720559E+02  0.57864998354E+02  0.10570000000E+00 0.  1.
<mgrwt>
<rscale>  0 0.88752438E+02</rscale>
<asrwt>0</asrwt>
<pdfrwt beam="2">  1        1 0.31353078E-01 0.88752438E+02</pdfrwt>
<pdfrwt beam="1">  1       -1 0.14865985E-02 0.88752438E+02</pdfrwt>
<totfact> 0.12772328E+05</totfact>
</mgrwt>
</event>
<event>
 5   1  0.1388354E+00  0.9091815E+02  0.7818608E-02  0.1300643E+00
          1   -1    0    0  501    0  0.00000000000E+00  0.00000000000E+00  0.28405617539E+03  0.28405617543E+03  0.46700000000E-02 0. -1.
         -1   -1    0    0    0  501 -0.00000000000E+00 -0.00000000000E+00 -0.72750658389E+01  0.72750673378E+01  0.46700000000E-02 0.  1.
         23    2    1    2    0    0  0.00000000000E+00  0.00000000000E+00  0.27678110955E+03  0.29133124277E+03  0.90918152243E+02 0.  0.
        -13    1    3    3    0    0  0.44240375602E+02 -0.62562083297E+01  0.11154958962E+03  0.12016519085E+03  0.10570000000E+00 0.  1.
         13    1    3    3    0    0 -0.44240375602E+02  0.62562083297E+01  0.16523151993E+03  0.17116605191E+03  0.10570000000E+00 0. -1.
<mgrwt>
<rscale>  0 0.90918152E+02</rscale>
<asrwt>0</asrwt>
<pdfrwt beam="1">  1        1 0.43700950E-01 0.90918152E+02</pdfrwt>
<pdfrwt beam="2">  1       -1 0.11192410E-02 0.90918152E+02</pdfrwt>
<totfact> 0.12774964E+05</totfact>
</mgrwt>
</event>
<event>
 5   1  0.1388354E+00  0.7804406E+02  0.7818608E-02  0.1334696E+00
          1   -1    0    0  501    0  0.00000000000E+00  0.00000000000E+00  0.10217003312E+03  0.10217003322E+03  0.46700000000E-02 0. -1.
         -1   -1    0    0    0  501 -0.00000000000E+00 -0.00000000000E+00 -0.14903769777E+02  0.14903770508E+02  0.46700000000E-02 0.  1.
         23    2    1    2    0    0  0.00000000000E+00  0.00000000000E+00  0.87266263339E+02  0.11707380373E+03  0.78044056806E+02 0.  0.
        -13    1    3    3    0    0  0.20647627049E+02 -0.19331323989E+02  0.33063287054E+01  0.28477492374E+02  0.10570000000E+00 0.  1.
         13    1    3    3    0    0 -0.20647627049E+02  0.19331323989E+02  0.83959934633E+02  0.88596311357E+02  0.10570000000E+00 0. -1.
<mgrwt>
<rscale>  0 0.78044057E+02</rscale>
<asrwt>0</asrwt>
<pdfrwt beam="1">  1        1 0.15718467E-01 0.78044057E+02</pdfrwt>
<pdfrwt beam="2">  1       -1 0.22928876E-02 0.78044057E+02</pdfrwt>
<totfact> 0.15943058E+05</totfact>
</mgrwt>
</event>
<event>
 5   1  0.1388354E+00  0.8889638E+02  0.7818608E-02  0.1305546E+00
         -1   -1    0    0    0  501 -0.00000000000E+00  0.00000000000E+00  0.12606359912E+02  0.12606360777E+02  0.46700000000E-02 0.  1.
          1   -1    0    0  501    0  0.00000000000E+00 -0.00000000000E+00 -0.15671782825E+03  0.15671782832E+03  0.46700000000E-02 0. -1.
         23    2    1    2    0    0  0.00000000000E+00  0.00000000000E+00 -0.14411146834E+03  0.16932418910E+03  0.88896376231E+02 0.  0.
        -13    1    3    3    0    0  0.22447611822E+02 -0.36607022583E+02 -0.50200104877E+02  0.66060813506E+02  0.10570000000E+00 0.  1.
         13    1    3    3    0    0 -0.22447611822E+02  0.36607022583E+02 -0.93911363465E+02  0.10326337559E+03  0.10570000000E+00 0. -1.
<mgrwt>
<rscale>  0 0.88896376E+02</rscale>
<asrwt>0</asrwt>
<pdfrwt beam="2">  1        1 0.24110434E-01 0.88896376E+02</pdfrwt>
<pdfrwt beam="1">  1       -1 0.19394402E-02 0.88896376E+02</pdfrwt>
<totfact> 0.12101171E+05</totfact>
</mgrwt>
</event>
<event>
 5   1  0.1388354E+00  0.9271730E+02  0.7818608E-02  0.1296402E+00
         -1   -1    0    0    0  501 -0.00000000000E+00  0.00000000000E+00  0.68610885389E+02  0.68610885548E+02  0.46700000000E-02 0.  1.
          1   -1    0    0  501    0  0.00000000000E+00 -0.00000000000E+00 -0.31323370499E+02  0.31323370847E+02  0.46700000000E-02 0. -1.
         23    2    1    2    0    0  0.00000000000E+00  0.00000000000E+00  0.37287514890E+02  0.99934256395E+02  0.92717295229E+02 0.  0.
        -13    1    3    3    0    0 -0.67849821307E+01  0.22372544143E+02 -0.24504069416E+02  0.33867791548E+02  0.10570000000E+00 0. -1.
         13    1    3    3    0    0  0.67849821307E+01 -0.22372544143E+02  0.61791584305E+02  0.66066464847E+02  0.10570000000E+00 0.  1.
<mgrwt>
<rscale>  0 0.92717295E+02</rscale>
<asrwt>0</asrwt>
<pdfrwt beam="2">  1        1 0.48189801E-02 0.92717295E+02</pdfrwt>
<pdfrwt beam="1">  1       -1 0.10555521E-01 0.92717295E+02</pdfrwt>
<totfact> 0.83187724E+04</totfact>
</mgrwt>
</event>
<event>
 5   1  0.1388354E+00  0.8839437E+02  0.7818608E-02  0.1306787E+00
         -1   -1    0    0    0  501 -0.00000000000E+00  0.00000000000E+00  0.22465697945E+02  0.22465698430E+02  0.46700000000E-02 0.  1.
          1   -1    0    0  501    0  0.00000000000E+00 -0.00000000000E+00 -0.86949950178E+02  0.86949950303E+02  0.46700000000E-02 0. -1.
         23    2    1    2    0    0  0.00000000000E+00  0.00000000000E+00 -0.64484252233E+02  0.10941564873E+03  0.88394374266E+02 0.  0.
        -13    1    3    3    0    0  0.35602723656E+02  0.24256476502E+02 -0.20022868229E+02  0.47506389135E+02  0.10570000000E+00 0.  1.
         13    1    3    3    0    0 -0.35602723656E+02 -0.24256476502E+02 -0.44461384004E+02  0.61909259599E+02  0.10570000000E+00 0. -1.
<mgrwt>
<rscale>  0 0.88394374E+02</rscale>
<asrwt>0</asrwt>
<pdfrwt beam="2">  1        1 0.13376915E-01 0.88394374E+02</pdfrwt>
<pdfrwt beam="1">  1       -1 0.34562613E-02 0.88394374E+02</pdfrwt>
<totfact> 0.11110248E+05</totfact>
</mgrwt>
</event>
<event>
 5   1  0.1388354E+00  0.8969831E+02  0.7818608E-02  0.1303584E+00
          1   -1    0    0  501    0  0.00000000000E+00  0.00000000000E+00  0.18077910209E+03  0.18077910215E+03  0.46700000000E-02 0. -1.
         -1   -1    0    0    0  501 -0.00000000000E+00 -0.00000000000E+00 -0.11126543906E+02  0.11126544886E+02  0.46700000000E-02 0.  1.
         23    2    1    2    0    0  0.00000000000E+00  0.00000000000E+00  0.16965255818E+03  0.19190564704E+03  0.89698310274E+02 0.  0.
        -13    1    3    3    0    0  0.42041110399E+02  0.15583561936E+02  0.87103748358E+02  0.97966200889E+02  0.10570000000E+00 0. -1.
         13    1    3    3    0    0 -0.42041110399E+02 -0.15583561936E+02  0.82548809826E+02  0.93939446147E+02  0.10570000000E+00 0.  1.
<mgrwt>
<rscale>  0 0.89698310E+02</rscale>
<asrwt>0</asrwt>
<pdfrwt beam="1">  1        1 0.27812170E-01 0.89698310E+02</pdfrwt>
<pdfrwt beam="2">  1       -1 0.17117760E-02 0.89698310E+02</pdfrwt>
<totfact> 0.12132853E+05</totfact>
</mgrwt>
</event>
<event>
 5   1  0.1388354E+00  0.9214484E+02  0.7818608E-02  0.1297739E+00
          1   -1    0    0  501    0  0.00000000000E+00  0.00000000000E+00  0.10883044354E+03  0.10883044364E+03  0.46700000000E-02 0. -1.
         -1   -1    0    0    0  501 -0.00000000000E+00 -0.00000000000E+00 -0.19504355428E+02  0.19504355987E+02  0.46700000000E-02 0.  1.
         23    2    1    2    0    0  0.00000000000E+00  0.00000000000E+00  0.89326088112E+02  0.12833479963E+03  0.92144835873E+02 0.  0.
        -13    1    3    3    0    0  0.18626247268E+02  0.42082996630E+02  0.47695542590E+02  0.66278138538E+02  0.10570000000E+00 0. -1.
         13    1    3    3    0    0 -0.18626247268E+02 -0.42082996630E+02  0.41630545522E+02  0.62056661090E+02  0.10570000000E+00 0.  1.
<mgrwt>
<rscale>  0 0.92144836E+02</rscale>
<asrwt>0</asrwt>
<pdfrwt beam="1">  1        1 0.16743145E-01 0.92144836E+02</pdfrwt>
<pdfrwt beam="2">  1       -1 0.30006702E-02 0.92144836E+02</pdfrwt>
<totfact> 0.10294286E+05</totfact>
</mgrwt>
</event>
<event>
 5   1  0.1388354E+00  0.9273569E+02  0.7818608E-02  0.1296359E+00
         -1   -1    0    0    0  501 -0.00000000000E+00  0.00000000000E+00  0.53479776749E+01  0.53479797139E+01  0.46700000000E-02 0.  1.
          1   -1    0    0  501    0  0.00000000000E+00 -0.00000000000E+00 -0.40201677878E+03  0.40201677881E+03  0.46700000000E-02 0. -1.
         23    2    1    2    0    0  0.00000000000E+00  0.00000000000E+00 -0.39666880111E+03  0.40736475852E+03  0.92735692776E+02 0.  0.
        -13    1    3    3    0    0 -0.32945200754E+02 -0.30594189824E+02 -0.14852454163E+03  0.15518035102E+03  0.10570000000E+00 0.  1.
         13    1    3    3    0    0  0.32945200754E+02  0.30594189824E+02 -0.24814425948E+03  0.25218440751E+03  0.10570000000E+00 0. -1.
<mgrwt>
<rscale>  0 0.92735693E+02</rscale>
<asrwt>0</asrwt>
<pdfrwt beam="2">  1        1 0.61848711E-01 0.92735693E+02</pdfrwt>
<pdfrwt beam="1">  1       -1 0.82276627E-03 0.92735693E+02</pdfrwt>
<totfact> 0.12905268E+05</totfact>
</mgrwt>
</event>
<event>
 5   1  0.1388354E+00  0.9104450E+02  0.7818608E-02  0.1300342E+00
         -1   -1    0    0    0  501 -0.00000000000E+00  0.00000000000E+00  0.11504767339E+02  0.11504768287E+02  0.46700000000E-02 0.  1.
          1   -1    0    0  501    0  0.00000000000E+00 -0.00000000000E+00 -0.18012316594E+03  0.18012316600E+03  0.46700000000E-02 0. -1.
         23    2    1    2    0    0  0.00000000000E+00  0.00000000000E+00 -0.16861839860E+03  0.19162793429E+03  0.91044499300E+02 0.  0.
        -13    1    3    3    0    0 -0.75508739368E+01  0.37917207070E+02 -0.13489094235E+03  0.14032215716E+03  0.10570000000E+00 0. -1.
         13    1    3    3    0    0  0.75508739368E+01 -0.37917207070E+02 -0.33727456252E+02  0.51305777130E+02  0.10570000000E+00 0.  1.
<mgrwt>
<rscale>  0 0.91044499E+02</rscale>
<asrwt>0</asrwt>
<pdfrwt beam="2">  1        1 0.27711254E-01 0.91044499E+02</pdfrwt>
<pdfrwt beam="1">  1       -1 0.17699644E-02 0.91044499E+02</pdfrwt>
<totfact> 0.11649548E+05</totfact>
</mgrwt>
</event>
<event>
 5   1  0.1388354E+00  0.9809145E+02  0.7818608E-02  0.1284361E+00
         -1   -1    0    0    0  501 -0.00000000000E+00  0.00000000000E+00  0.14702682716E+03  0.14702682723E+03  0.46700000000E-02 0.  1.
          1   -1    0    0  501    0  0.00000000000E+00 -0.00000000000E+00 -0.16360843676E+02  0.16360844342E+02  0.46700000000E-02 0. -1.
         23    2    1    2    0    0  0.00000000000E+00  0.00000000000E+00  0.13066598348E+03  0.16338767158E+03  0.98091447044E+02 0.  0.
        -13    1    3    3    0    0  0.20615711101E+02  0.42234791269E+02  0.41972841941E+02  0.63012028778E+02  0.10570000000E+00 0. -1.
         13    1    3    3    0    0 -0.20615711101E+02 -0.42234791269E+02  0.88693141544E+02  0.10037564280E+03  0.10570000000E+00 0.  1.
<mgrwt>
<rscale>  0 0.98091447E+02</rscale>
<asrwt>0</asrwt>
<pdfrwt beam="2">  1        1 0.25170528E-02 0.98091447E+02</pdfrwt>
<pdfrwt beam="1">  1       -1 0.22619513E-01 0.98091447E+02</pdfrwt>
<totfact> 0.62128268E+04</totfact>
</mgrwt>
</event>
<event>
 5   1  0.1388354E+00  0.9144166E+02  0.7818608E-02  0.1299398E+00
          1   -1    0    0  501    0  0.00000000000E+00  0.00000000000E+00  0.61589518996E+01  0.61589536701E+01  0.46700000000E-02 0. -1.
         -1   -1    0    0    0  501 -0.00000000000E+00 -0.00000000000E+00 -0.33940744316E+03  0.33940744319E+03  0.46700000000E-02 0.  1.
         23    2    1    2    0    0  0.00000000000E+00  0.00000000000E+00 -0.33324849126E+03  0.34556639686E+03  0.91441662895E+02 0.  0.
        -13    1    3    3    0    0 -0.31688880768E+02  0.27595082660E+02 -0.98526162090E+02  0.10711250879E+03  0.10570000000E+00 0. -1.
         13    1    3    3    0    0  0.31688880768E+02 -0.27595082660E+02 -0.23472232917E+03  0.23845388806E+03  0.10570000000E+00 0.  1.
<mgrwt>
<rscale>  0 0.91441663E+02</rscale>
<asrwt>0</asrwt>
<pdfrwt beam="1">  1        1 0.94753146E-03 0.91441663E+02</pdfrwt>
<pdfrwt beam="2">  1       -1 0.52216515E-01 0.91441663E+02</pdfrwt>
<totfact> 0.57128562E+04</totfact>
</mgrwt>
</event>
<event>
 5   1  0.1388354E+00  0.9205044E+02  0.7818608E-02  0.1297961E+00
         -1   -1    0    0    0  501 -0.00000000000E+00  0.00000000000E+00  0.93240378061E+01  0.93240389756E+01  0.46700000000E-02 0.  1.
          1   -1    0    0  501    0  0.00000000000E+00 -0.00000000000E+00 -0.22718920966E+03  0.22718920971E+03  0.46700000000E-02 0. -1.
         23    2    1    2    0    0  0.00000000000E+00  0.00000000000E+00 -0.21786517186E+03  0.23651324869E+03  0.92050441042E+02 0.  0.
        -13    1    3    3    0    0  0.17150781698E+02 -0.39412647774E+02 -0.15121471464E+03  0.15720498469E+03  0.10570000000E+00 0. -1.
         13    1    3    3    0    0 -0.17150781698E+02  0.39412647774E+02 -0.66650457221E+02  0.79308263994E+02  0.10570000000E+00 0.  1.
<mgrwt>
<rscale>  0 0.92050441E+02</rscale>
<asrwt>0</asrwt>
<pdfrwt beam="2">  1        1 0.34952182E-01 0.92050441E+02</pdfrwt>
<pdfrwt beam="1">  1       -1 0.14344676E-02 0.92050441E+02</pdfrwt>
<totfact> 0.11832115E+05</totfact>
</mgrwt>
</event>
<event>
 5   1  0.1388354E+00  0.8869811E+02  0.7818608E-02  0.1306035E+00
         -1   -1    0    0    0  501 -0.00000000000E+00  0.00000000000E+00  0.60696666263E+02  0.60696666443E+02  0.46700000000E-02 0.  1.
          1   -1    0    0  501    0  0.00000000000E+00 -0.00000000000E+00 -0.32404391713E+02  0.32404392049E+02  0.46700000000E-02 0. -1.
         23    2    1    2    0    0  0.00000000000E+00  0.00000000000E+00  0.28292274551E+02  0.93101058492E+02  0.88698107608E+02 0.  0.
        -13    1    3    3    0    0  0.13010489624E+02  0.42230409714E+02  0.18094102332E+02  0.47750267607E+02  0.10570000000E+00 0.  1.
         13    1    3    3    0    0 -0.13010489624E+02 -0.42230409714E+02  0.10198172219E+02  0.45350790885E+02  0.10570000000E+00 0. -1.
<mgrwt>
<rscale>  0 0.88698108E+02</rscale>
<asrwt>0</asrwt>
<pdfrwt beam="2">  1        1 0.49852911E-02 0.88698108E+02</pdfrwt>
<pdfrwt beam="1">  1       -1 0.93379486E-02 0.88698108E+02</pdfrwt>
<totfact> 0.94924356E+04</totfact>
</mgrwt>
</event>
<event>
 5   1  0.1388354E+00  0.9092384E+02  0.7818608E-02  0.1300630E+00
          1   -1    0    0  501    0  0.00000000000E+00  0.00000000000E+00  0.63336797200E+02  0.63336797372E+02  0.46700000000E-02 0. -1.
         -1   -1    0    0    0  501 -0.00000000000E+00 -0.00000000000E+00 -0.32631677161E+02  0.32631677495E+02  0.46700000000E-02 0.  1.
         23    2    1    2    0    0  0.00000000000E+00  0.00000000000E+00  0.30705120039E+02  0.95968474868E+02  0.90923835004E+02 0.  0.
        -13    1    3    3    0    0  0.19232702131E+02 -0.22289684812E+02  0.51916259999E+02  0.59682795721E+02  0.10570000000E+00 0. -1.
         13    1    3    3    0    0 -0.19232702131E+02  0.22289684812E+02 -0.21211139960E+02  0.36285679147E+02  0.10570000000E+00 0.  1.
<mgrwt>
<rscale>  0 0.90923835E+02</rscale>
<asrwt>0</asrwt>
<pdfrwt beam="1">  1        1 0.97441226E-02 0.90923835E+02</pdfrwt>
<pdfrwt beam="2">  1       -1 0.50202581E-02 0.90923835E+02</pdfrwt>
<totfact> 0.97916337E+04</totfact>
</mgrwt>
</event>
<event>
 5   1  0.1388354E+00  0.9476530E+02  0.7818608E-02  0.1291706E+00
          1   -1    0    0  501    0  0.00000000000E+00  0.00000000000E+00  0.93883107510E+02  0.93883107626E+02  0.46700000000E-02 0. -1.
         -1   -1    0    0    0  501 -0.00000000000E+00 -0.00000000000E+00 -0.23913942972E+02  0.23913943428E+02  0.46700000000E-02 0.  1.
         23    2    1    2    0    0  0.00000000000E+00  0.00000000000E+00  0.69969164538E+02  0.11779705105E+03  0.94765295604E+02 0.  0.
        -13    1    3    3    0    0 -0.38014421827E+02 -0.81562064773E+01  0.68649725707E+02  0.78894968047E+02  0.10570000000E+00 0. -1.
         13    1    3    3    0    0  0.38014421827E+02  0.81562064773E+01  0.13194388308E+01  0.38902083007E+02  0.10570000000E+00 0.  1.
<mgrwt>
<rscale>  0 0.94765296E+02</rscale>
<asrwt>0</asrwt>
<pdfrwt beam="1">  1        1 0.14443555E-01 0.94765296E+02</pdfrwt>
<pdfrwt beam="2">  1       -1 0.36790682E-02 0.94765296E+02</pdfrwt>
<totfact> 0.92993041E+04</totfact>
</mgrwt>
</event>
<event>
 5   1  0.1388354E+00  0.9054986E+02  0.7818608E-02  0.1301526E+00
         -1   -1    0    0    0  501 -0.00000000000E+00  0.00000000000E+00  0.13835689602E+02  0.13835690390E+02  0.46700000000E-02 0.  1.
          1   -1    0    0  501    0  0.00000000000E+00 -0.00000000000E+00 -0.14815447217E+03  0.14815447225E+03  0.46700000000E-02 0. -1.
         23    2    1    2    0    0  0.00000000000E+00  0.00000000000E+00 -0.13431878257E+03  0.16199016264E+03  0.90549861623E+02 0.  0.
        -13    1    3    3    0    0 -0.30791047196E+02  0.10321197544E+02 -0.12359515333E+03  0.12779040967E+03  0.10570000000E+00 0. -1.
         13    1    3    3    0    0  0.30791047196E+02 -0.10321197544E+02 -0.10723629247E+02  0.34199752966E+02  0.10570000000E+00 0.  1.
<mgrwt>
<rscale>  0 0.90549862E+02</rscale>
<asrwt>0</asrwt>
<pdfrwt beam="2">  1        1 0.22792995E-01 0.90549862E+02</pdfrwt>
<pdfrwt beam="1">  1       -1 0.21285678E-02 0.90549862E+02</pdfrwt>
<totfact> 0.11397899E+05</totfact>
</mgrwt>
</event>
<event>
 5   1  0.1388354E+00  0.9358613E+02  0.7818608E-02  0.1294393E+00
         -1   -1    0    0    0  501 -0.00000000000E+00  0.00000000000E+00  0.42292100948E+02  0.42292101205E+02  0.46700000000E-02 0.  1.
          1   -1    0    0  501    0  0.00000000000E+00 -0.00000000000E+00 -0.51773049704E+02  0.51773049915E+02  0.46700000000E-02 0. -1.
         23    2    1    2    0    0  0.00000000000E+00  0.00000000000E+00 -0.94809487566E+01  0.94065151120E+02  0.93586132872E+02 0.  0.
        -13    1    3    3    0    0 -0.17338495170E+02 -0.21413527197E+02  0.33273969155E+02  0.43201050422E+02  0.10570000000E+00 0.  1.
         13    1    3    3    0    0  0.17338495170E+02  0.21413527197E+02 -0.42754917911E+02  0.50864100698E+02  0.10570000000E+00 0. -1.
<mgrwt>
<rscale>  0 0.93586133E+02</rscale>
<asrwt>0</asrwt>
<pdfrwt beam="2">  1        1 0.79650847E-02 0.93586133E+02</pdfrwt>
<pdfrwt beam="1">  1       -1 0.65064771E-02 0.93586133E+02</pdfrwt>
<totfact> 0.87619212E+04</totfact>
</mgrwt>
</event>
<event>
 5   1  0.1388354E+00  0.9394483E+02  0.7818608E-02  0.1293570E+00
         -1   -1    0    0    0  501 -0.00000000000E+00  0.00000000000E+00  0.93991173920E+01  0.93991185521E+01  0.46700000000E-02 0.  1.
          1   -1    0    0  501    0  0.00000000000E+00 -0.00000000000E+00 -0.23474624221E+03  0.23474624226E+03  0.46700000000E-02 0. -1.
         23    2    1    2    0    0  0.00000000000E+00  0.00000000000E+00 -0.22534712482E+03  0.24414536081E+03  0.93944827110E+02 0.  0.
        -13    1    3    3    0    0  0.20772067916E+02  0.42129731962E+02 -0.11282380027E+03  0.12221135054E+03  0.10570000000E+00 0. -1.
         13    1    3    3    0    0 -0.20772067916E+02 -0.42129731962E+02 -0.11252332455E+03  0.12193401027E+03  0.10570000000E+00 0.  1.
<mgrwt>
<rscale>  0 0.93944827E+02</rscale>
<asrwt>0</asrwt>
<pdfrwt beam="2">  1        1 0.36114802E-01 0.93944827E+02</pdfrwt>
<pdfrwt beam="1">  1       -1 0.14460183E-02 0.93944827E+02</pdfrwt>
<totfact> 0.11275039E+05</totfact>
</mgrwt>
</event>
<event>
 5   1  0.1388354E+00  0.9596714E+02  0.7818608E-02  0.1289013E+00
          1   -1    0    0  501    0  0.00000000000E+00  0.00000000000E+00  0.28742992463E+03  0.28742992467E+03  0.46700000000E-02 0. -1.
         -1   -1    0    0    0  501 -0.00000000000E+00 -0.00000000000E+00 -0.80103791037E+01  0.80103804650E+01  0.46700000000E-02 0.  1.
         23    2    1    2    0    0  0.00000000000E+00  0.00000000000E+00  0.27941954553E+03  0.29544030513E+03  0.95967137474E+02 0.  0.
        -13    1    3    3    0    0  0.95326797758E+01  0.46388597044E+02  0.11593546256E+03  0.12523504529E+03  0.10570000000E+00 0.  1.
         13    1    3    3    0    0 -0.95326797758E+01 -0.46388597044E+02  0.16348408297E+03  0.17020525984E+03  0.10570000000E+00 0. -1.
<mgrwt>
<rscale>  0 0.95967137E+02</rscale>
<asrwt>0</asrwt>
<pdfrwt beam="1">  1        1 0.44219992E-01 0.95967137E+02</pdfrwt>
<pdfrwt beam="2">  1       -1 0.12323660E-02 0.95967137E+02</pdfrwt>
<totfact> 0.11081044E+05</totfact>
</mgrwt>
</event>
<event>
 5   1  0.1388354E+00  0.9213761E+02  0.7818608E-02  0.1297756E+00
          1   -1    0    0  501    0  0.00000000000E+00  0.00000000000E+00  0.43540256521E+03  0.43540256524E+03  0.46700000000E-02 0. -1.
         -1   -1    0    0    0  501 -0.00000000000E+00 -0.00000000000E+00 -0.48744184393E+01  0.48744206764E+01  0.46700000000E-02 0.  1.
         23    2    1    2    0    0  0.00000000000E+00  0.00000000000E+00  0.43052814678E+03  0.44027698592E+03  0.92137609919E+02 0.  0.
        -13    1    3    3    0    0 -0.44281783889E+02  0.12705177329E+02  0.21449798811E+03  0.21938937073E+03  0.10570000000E+00 0. -1.
         13    1    3    3    0    0  0.44281783889E+02 -0.12705177329E+02  0.21603015866E+03  0.22088761518E+03  0.10570000000E+00 0.  1.
<mgrwt>
<rscale>  0 0.92137610E+02</rscale>
<asrwt>0</asrwt>
<pdfrwt beam="1">  1        1 0.66985012E-01 0.92137610E+02</pdfrwt>
<pdfrwt beam="2">  1       -1 0.74991069E-03 0.92137610E+02</pdfrwt>
<totfact> 0.13294437E+05</totfact>
</mgrwt>
</event>
<event>
 5   1  0.1388354E+00  0.8939833E+02  0.7818608E-02  0.1304315E+00
         -1   -1    0    0    0  501 -0.00000000000E+00  0.00000000000E+00  0.40101505791E+01  0.40101532984E+01  0.46700000000E-02 0.  1.
          1   -1    0    0  501    0  0.00000000000E+00 -0.00000000000E+00 -0.49823933638E+03  0.49823933640E+03  0.46700000000E-02 0. -1.
         23    2    1    2    0    0  0.00000000000E+00  0.00000000000E+00 -0.49422918580E+03  0.50224948970E+03  0.89398332237E+02 0.  0.
        -13    1    3    3    0    0  0.30075756463E+02 -0.32962205239E+02 -0.26192145549E+03  0.26569516013E+03  0.10570000000E+00 0.  1.
         13    1    3    3    0    0 -0.30075756463E+02  0.32962205239E+02 -0.23230773031E+03  0.23655432956E+03  0.10570000000E+00 0. -1.
<mgrwt>
<rscale>  0 0.89398332E+02</rscale>
<asrwt>0</asrwt>
<pdfrwt beam="2">  1        1 0.76652157E-01 0.89398332E+02</pdfrwt>
<pdfrwt beam="1">  1       -1 0.61694685E-03 0.89398332E+02</pdfrwt>
<totfact> 0.14665685E+05</totfact>
</mgrwt>
</event>
<event>
 5   1  0.1388354E+00  0.8497224E+02  0.7818608E-02  0.1315505E+00
          1   -1    0    0  501    0  0.00000000000E+00  0.00000000000E+00  0.25732367444E+03  0.25732367448E+03  0.46700000000E-02 0. -1.
         -1   -1    0    0    0  501 -0.00000000000E+00 -0.00000000000E+00 -0.70147852023E+01  0.70147867568E+01  0.46700000000E-02 0.  1.
         23    2    1    2    0    0  0.00000000000E+00  0.00000000000E+00  0.25030888923E+03  0.26433846124E+03  0.84972242873E+02 0.  0.
        -13    1    3    3    0    0 -0.37390025804E+01  0.33926195797E+02  0.46449027489E+02  0.57641046388E+02  0.10570000000E+00 0.  1.
         13    1    3    3    0    0  0.37390025804E+01 -0.33926195797E+02  0.20385986175E+03  0.20669741485E+03  0.10570000000E+00 0. -1.
<mgrwt>
<rscale>  0 0.84972243E+02</rscale>
<asrwt>0</asrwt>
<pdfrwt beam="1">  1        1 0.39588253E-01 0.84972243E+02</pdfrwt>
<pdfrwt beam="2">  1       -1 0.10791980E-02 0.84972243E+02</pdfrwt>
<totfact> 0.15000068E+05</totfact>
</mgrwt>
</event>
<event>
 5   1  0.1388354E+00  0.9178487E+02  0.7818608E-02  0.1298586E+00
          1   -1    0    0  501    0  0.00000000000E+00  0.00000000000E+00  0.39851525962E+02  0.39851526236E+02  0.46700000000E-02 0. -1.
         -1   -1    0    0    0  501 -0.00000000000E+00 -0.00000000000E+00 -0.52849055487E+02  0.52849055693E+02  0.46700000000E-02 0.  1.
         23    2    1    2    0    0  0.00000000000E+00  0.00000000000E+00 -0.12997529525E+02  0.92700581929E+02  0.91784868667E+02 0.  0.
        -13    1    3    3    0    0  0.31064054503E+02  0.33294940349E+02 -0.73429908008E+00  0.45542056417E+02  0.10570000000E+00 0. -1.
         13    1    3    3    0    0 -0.31064054503E+02 -0.33294940349E+02 -0.12263230444E+02  0.47158525512E+02  0.10570000000E+00 0.  1.
<mgrwt>
<rscale>  0 0.91784869E+02</rscale>
<asrwt>0</asrwt>
<pdfrwt beam="1">  1        1 0.61310041E-02 0.91784869E+02</pdfrwt>
<pdfrwt beam="2">  1       -1 0.81306239E-02 0.91784869E+02</pdfrwt>
<totfact> 0.88924200E+04</totfact>
</mgrwt>
</event>
<event>
 5   1  0.1388354E+00  0.9351467E+02  0.7818608E-02  0.1294557E+00
         -1   -1    0    0    0  501 -0.00000000000E+00  0.00000000000E+00  0.42208787681E+02  0.42208787940E+02  0.46700000000E-02 0.  1.
          1   -1    0    0  501    0  0.00000000000E+00 -0.00000000000E+00 -0.51796042010E+02  0.51796042220E+02  0.46700000000E-02 0. -1.
         23    2    1    2    0    0  0.00000000000E+00  0.00000000000E+00 -0.95872543286E+01  0.94004830160E+02  0.93514665416E+02 0.  0.
        -13    1    3    3    0    0  0.12837920419E+02  0.23183813350E+02  0.33930172960E+02  0.43053097585E+02  0.10570000000E+00 0.  1.
         13    1    3    3    0    0 -0.12837920419E+02 -0.23183813350E+02 -0.43517427288E+02  0.50951732575E+02  0.10570000000E+00 0. -1.
<mgrwt>
<rscale>  0 0.93514665E+02</rscale>
<asrwt>0</asrwt>
<pdfrwt beam="2">  1        1 0.79686219E-02 0.93514665E+02</pdfrwt>
<pdfrwt beam="1">  1       -1 0.64936596E-02 0.93514665E+02</pdfrwt>
<totfact> 0.87813125E+04</totfact>
</mgrwt>
</event>
<event>
 5   1  0.1388354E+00  0.9219754E+02  0.7818608E-02  0.1297616E+00
         -1   -1    0    0    0  501 -0.00000000000E+00  0.00000000000E+00  0.33278330451E+02  0.33278330778E+02  0.46700000000E-02 0.  1.
          1   -1    0    0  501    0  0.00000000000E+00 -0.00000000000E+00 -0.63858274392E+02  0.63858274562E+02  0.46700000000E-02 0. -1.
         23    2    1    2    0    0  0.00000000000E+00  0.00000000000E+00 -0.30579943941E+02  0.97136605341E+02  0.92197544033E+02 0.  0.
        -13    1    3    3    0    0  0.14542331657E+01 -0.44931877934E+02 -0.26039341938E+02  0.51952352688E+02  0.10570000000E+00 0.  1.
         13    1    3    3    0    0 -0.14542331657E+01  0.44931877934E+02 -0.45406020034E+01  0.45184252653E+02  0.10570000000E+00 0. -1.
<mgrwt>
<rscale>  0 0.92197544E+02</rscale>
<asrwt>0</asrwt>
<pdfrwt beam="2">  1        1 0.98243499E-02 0.92197544E+02</pdfrwt>
<pdfrwt beam="1">  1       -1 0.51197432E-02 0.92197544E+02</pdfrwt>
<totfact> 0.94330996E+04</totfact>
</mgrwt>
</event>
<event>
 5   1  0.1388354E+00  0.8515055E+02  0.7818608E-02  0.1315039E+00
          1   -1    0    0  501    0  0.00000000000E+00  0.00000000000E+00  0.79146605139E+01  0.79146618916E+01  0.46700000000E-02 0. -1.
         -1   -1    0    0    0  501 -0.00000000000E+00 -0.00000000000E+00 -0.22902486642E+03  0.22902486647E+03  0.46700000000E-02 0.  1.
         23    2    1    2    0    0  0.00000000000E+00  0.00000000000E+00 -0.22111020591E+03  0.23693952836E+03  0.85150554568E+02 0.  0.
        -13    1    3    3    0    0  0.33127642226E+02  0.25307612112E+02 -0.13460921100E+03  0.14091687893E+03  0.10570000000E+00 0.  1.
         13    1    3    3    0    0 -0.33127642226E+02 -0.25307612112E+02 -0.86500994910E+02  0.96022649428E+02  0.10570000000E+00 0. -1.
<mgrwt>
<rscale>  0 0.85150555E+02</rscale>
<asrwt>0</asrwt>
<pdfrwt beam="1">  1        1 0.12176404E-02 0.85150555E+02</pdfrwt>
<pdfrwt beam="2">  1       -1 0.35234590E-01 0.85150555E+02</pdfrwt>
<totfact> 0.79628986E+04</totfact>
</mgrwt>
</event>
<event>
 5   1  0.1388354E+00  0.9246452E+02  0.7818608E-02  0.1296991E+00
         -1   -1    0    0    0  501 -0.00000000000E+00  0.00000000000E+00  0.46324321162E+02  0.46324321397E+02  0.46700000000E-02 0.  1.
          1   -1    0    0  501    0  0.00000000000E+00 -0.00000000000E+00 -0.46140376613E+02  0.46140376849E+02  0.46700000000E-02 0. -1.
         23    2    1    2    0    0  0.00000000000E+00  0.00000000000E+00  0.18394454884E+00  0.92464698247E+02  0.92464515282E+02 0.  0.
        -13    1    3    3    0    0  0.29853325757E+02  0.96711464383E+01  0.34042861859E+02  0.46299889289E+02  0.10570000000E+00 0.  1.
         13    1    3    3    0    0 -0.29853325757E+02 -0.96711464383E+01 -0.33858917310E+02  0.46164808957E+02  0.10570000000E+00 0. -1.
<mgrwt>
<rscale>  0 0.92464515E+02</rscale>
<asrwt>0</asrwt>
<pdfrwt beam="2">  1        1 0.70985195E-02 0.92464515E+02</pdfrwt>
<pdfrwt beam="1">  1       -1 0.71268186E-02 0.92464515E+02</pdfrwt>
<totfact> 0.89058389E+04</totfact>
</mgrwt>
</event>
<event>
 5   1  0.1388354E+00  0.9097316E+02  0.7818608E-02  0.1300512E+00
          1   -1    0    0  501    0  0.00000000000E+00  0.00000000000E+00  0.16102846393E+03  0.16102846400E+03  0.46700000000E-02 0. -1.
         -1   -1    0    0    0  501 -0.00000000000E+00 -0.00000000000E+00 -0.12848839619E+02  0.12848840467E+02  0.46700000000E-02 0.  1.
         23    2    1    2    0    0  0.00000000000E+00  0.00000000000E+00  0.14817962431E+03  0.17387730447E+03  0.90973160587E+02 0.  0.
        -13    1    3    3    0    0 -0.15378204401E+02  0.23162296619E+02  0.14289770506E+03  0.14557728682E+03  0.10570000000E+00 0. -1.
         13    1    3    3    0    0  0.15378204401E+02 -0.23162296619E+02  0.52819192573E+01  0.28300017647E+02  0.10570000000E+00 0.  1.
<mgrwt>
<rscale>  0 0.90973161E+02</rscale>
<asrwt>0</asrwt>
<pdfrwt beam="1">  1        1 0.24773610E-01 0.90973161E+02</pdfrwt>
<pdfrwt beam="2">  1       -1 0.19767446E-02 0.90973161E+02</pdfrwt>
<totfact> 0.11430219E+05</totfact>
</mgrwt>
</event>
<event>
 5   1  0.1388354E+00  0.8830104E+02  0.7818608E-02  0.1307019E+00
          1   -1    0    0  501    0  0.00000000000E+00  0.00000000000E+00  0.12580767707E+03  0.12580767716E+03  0.46700000000E-02 0. -1.
         -1   -1    0    0    0  501 -0.00000000000E+00 -0.00000000000E+00 -0.15494034069E+02  0.15494034773E+02  0.46700000000E-02 0.  1.
         23    2    1    2    0    0  0.00000000000E+00  0.00000000000E+00  0.11031364300E+03  0.14130171193E+03  0.88301041682E+02 0.  0.
        -13    1    3    3    0    0  0.51022611874E+01 -0.42871528979E+02  0.40381235491E+02  0.59115619074E+02  0.10570000000E+00 0.  1.
         13    1    3    3    0    0 -0.51022611874E+01  0.42871528979E+02  0.69932407511E+02  0.82186092857E+02  0.10570000000E+00 0. -1.
<mgrwt>
<rscale>  0 0.88301042E+02</rscale>
<asrwt>0</asrwt>
<pdfrwt beam="1">  1        1 0.19355026E-01 0.88301042E+02</pdfrwt>
<pdfrwt beam="2">  1       -1 0.23836978E-02 0.88301042E+02</pdfrwt>
<totfact> 0.11845955E+05</totfact>
</mgrwt>
</event>
<event>
 5   1  0.1388354E+00  0.9353206E+02  0.7818608E-02  0.1294517E+00
          1   -1    0    0  501    0  0.00000000000E+00  0.00000000000E+00  0.34984453053E+03  0.34984453056E+03  0.46700000000E-02 0. -1.
         -1   -1    0    0    0  501 -0.00000000000E+00 -0.00000000000E+00 -0.62515230750E+01  0.62515248192E+01  0.46700000000E-02 0.  1.
         23    2    1    2    0    0  0.00000000000E+00  0.00000000000E+00  0.34359300746E+03  0.35609605538E+03  0.93532058063E+02 0.  0.
        -13    1    3    3    0    0 -0.42272643103E+02 -0.19273872303E+02  0.15143886756E+03  0.15840517760E+03  0.10570000000E+00 0.  1.
         13    1    3    3    0    0  0.42272643103E+02  0.19273872303E+02  0.19215413990E+03  0.19769087779E+03  0.10570000000E+00 0. -1.
<mgrwt>
<rscale>  0 0.93532058E+02</rscale>
<asrwt>0</asrwt>
<pdfrwt beam="1">  1        1 0.53822267E-01 0.93532058E+02</pdfrwt>
<pdfrwt beam="2">  1       -1 0.96177236E-03 0.93532058E+02</pdfrwt>
<totfact> 0.12316325E+05</totfact>
</mgrwt>
</event>
<event>
 5   1  0.1388354E+00  0.9098695E+02  0.7818608E-02  0.1300479E+00
          1   -1    0    0  501    0  0.00000000000E+00  0.00000000000E+00  0.10127565394E+03  0.10127565405E+03  0.46700000000E-02 0. -1.
         -1   -1    0    0    0  501 -0.00000000000E+00 -0.00000000000E+00 -0.20435870940E+02  0.20435871474E+02  0.46700000000E-02 0.  1.
         23    2    1    2    0    0  0.00000000000E+00  0.00000000000E+00  0.80839782999E+02  0.12171152552E+03  0.90986949225E+02 0.  0.
        -13    1    3    3    0    0  0.10550494163E+01  0.37770085461E+02  0.74312428197E+02  0.83366903757E+02  0.10570000000E+00 0. -1.
         13    1    3    3    0    0 -0.10550494163E+01 -0.37770085461E+02  0.65273548023E+01  0.38344621764E+02  0.10570000000E+00 0.  1.
<mgrwt>
<rscale>  0 0.90986949E+02</rscale>
<asrwt>0</asrwt>
<pdfrwt beam="1">  1        1 0.15580870E-01 0.90986949E+02</pdfrwt>
<pdfrwt beam="2">  1       -1 0.31439802E-02 0.90986949E+02</pdfrwt>
<totfact> 0.10526904E+05</totfact>
</mgrwt>
</event>
<event>
 5   1  0.1388354E+00  0.9095949E+02  0.7818608E-02  0.1300545E+00
          1   -1    0    0  501    0  0.00000000000E+00  0.00000000000E+00  0.47780896199E+02  0.47780896428E+02  0.46700000000E-02 0. -1.
         -1   -1    0    0    0  501 -0.00000000000E+00 -0.00000000000E+00 -0.43289422597E+02  0.43289422849E+02  0.46700000000E-02 0.  1.
         23    2    1    2    0    0  0.00000000000E+00  0.00000000000E+00  0.44914736026E+01  0.91070319276E+02  0.90959494930E+02 0.  0.
        -13    1    3    3    0    0 -0.10004546927E+00  0.16917277870E+02  0.44513187882E+02  0.47619737163E+02  0.10570000000E+00 0. -1.
         13    1    3    3    0    0  0.10004546927E+00 -0.16917277870E+02 -0.40021714279E+02  0.43450582113E+02  0.10570000000E+00 0.  1.
<mgrwt>
<rscale>  0 0.90959495E+02</rscale>
<asrwt>0</asrwt>
<pdfrwt beam="1">  1        1 0.73509071E-02 0.90959495E+02</pdfrwt>
<pdfrwt beam="2">  1       -1 0.66599112E-02 0.90959495E+02</pdfrwt>
<totfact> 0.93751865E+04</totfact>
</mgrwt>
</event>
<event>
 5   1  0.1388354E+00  0.8795759E+02  0.7818608E-02  0.1307874E+00
         -1   -1    0    0    0  501 -0.00000000000E+00  0.00000000000E+00  0.56405646686E+02  0.56405646880E+02  0.46700000000E-02 0.  1.
          1   -1    0    0  501    0  0.00000000000E+00 -0.00000000000E+00 -0.34289729094E+02  0.34289729412E+02  0.46700000000E-02 0. -1.
         23    2    1    2    0    0  0.00000000000E+00  0.00000000000E+00  0.22115917593E+02  0.90695376291E+02  0.87957589040E+02 0.  0.
        -13    1    3    3    0    0  0.16090920959E+02 -0.38748160453E+02  0.24651062278E+02  0.48662343961E+02  0.10570000000E+00 0. -1.
         13    1    3    3    0    0 -0.16090920959E+02  0.38748160453E+02 -0.25351446858E+01  0.42033032330E+02  0.10570000000E+00 0.  1.
<mgrwt>
<rscale>  0 0.87957589E+02</rscale>
<asrwt>0</asrwt>
<pdfrwt beam="2">  1        1 0.52753430E-02 0.87957589E+02</pdfrwt>
<pdfrwt beam="1">  1       -1 0.86777918E-02 0.87957589E+02</pdfrwt>
<totfact> 0.98045337E+04</totfact>
</mgrwt>
</event>
<event>
 5   1  0.1388354E+00  0.9173522E+02  0.7818608E-02  0.1298703E+00
         -1   -1    0    0    0  501 -0.00000000000E+00  0.00000000000E+00  0.81079685013E+02  0.81079685147E+02  0.46700000000E-02 0.  1.
          1   -1    0    0  501    0  0.00000000000E+00 -0.00000000000E+00 -0.25947779263E+02  0.25947779683E+02  0.46700000000E-02 0. -1.
         23    2    1    2    0    0  0.00000000000E+00  0.00000000000E+00  0.55131905750E+02  0.10702746483E+03  0.91735223313E+02 0.  0.
        -13    1    3    3    0    0 -0.13298634838E+02 -0.26125173061E+01  0.78690142038E+02  0.79848785599E+02  0.10570000000E+00 0.  1.
         13    1    3    3    0    0  0.13298634838E+02  0.26125173061E+01 -0.23558236288E+02  0.27178679231E+02  0.10570000000E+00 0. -1.
<mgrwt>
<rscale>  0 0.91735223E+02</rscale>
<asrwt>0</asrwt>
<pdfrwt beam="2">  1        1 0.39919660E-02 0.91735223E+02</pdfrwt>
<pdfrwt beam="1">  1       -1 0.12473798E-01 0.91735223E+02</pdfrwt>
<totfact> 0.83146765E+04</totfact>
</mgrwt>
</event>
<event>
 5   1  0.1388354E+00  0.9274826E+02  0.7818608E-02  0.1296330E+00
          1   -1    0    0  501    0  0.00000000000E+00  0.00000000000E+00  0.65788626604E+02  0.65788626770E+02  0.46700000000E-02 0. -1.
         -1   -1    0    0    0  501 -0.00000000000E+00 -0.00000000000E+00 -0.32688933946E+02  0.32688934280E+02  0.46700000000E-02 0.  1.
         23    2    1    2    0    0  0.00000000000E+00  0.00000000000E+00  0.33099692658E+02  0.98477561049E+02  0.92748263467E+02 0.  0.
        -13    1    3    3    0    0 -0.33835473881E+02  0.21617312301E+02 -0.80869709475E+01  0.40957999896E+02  0.10570000000E+00 0.  1.
         13    1    3    3    0    0  0.33835473881E+02 -0.21617312301E+02  0.41186663605E+02  0.57519561154E+02  0.10570000000E+00 0. -1.
<mgrwt>
<rscale>  0 0.92748263E+02</rscale>
<asrwt>0</asrwt>
<pdfrwt beam="1">  1        1 0.10121327E-01 0.92748263E+02</pdfrwt>
<pdfrwt beam="2">  1       -1 0.50290668E-02 0.92748263E+02</pdfrwt>
<totfact> 0.93212349E+04</totfact>
</mgrwt>
</event>
<event>
 5   1  0.1388354E+00  0.9119303E+02  0.7818608E-02  0.1299988E+00
         -1   -1    0    0    0  501 -0.00000000000E+00  0.00000000000E+00  0.66961395009E+02  0.66961395172E+02  0.46700000000E-02 0.  1.
          1   -1    0    0  501    0  0.00000000000E+00 -0.00000000000E+00 -0.31048370350E+02  0.31048370702E+02  0.46700000000E-02 0. -1.
         23    2    1    2    0    0  0.00000000000E+00  0.00000000000E+00  0.35913024658E+02  0.98009765873E+02  0.91193030799E+02 0.  0.
        -13    1    3    3    0    0 -0.33726964442E+02 -0.27503968832E+02  0.33361660536E+01  0.43647652954E+02  0.10570000000E+00 0.  1.
         13    1    3    3    0    0  0.33726964442E+02  0.27503968832E+02  0.32576858605E+02  0.54362112919E+02  0.10570000000E+00 0. -1.
<mgrwt>
<rscale>  0 0.91193031E+02</rscale>
<asrwt>0</asrwt>
<pdfrwt beam="2">  1        1 0.47766724E-02 0.91193031E+02</pdfrwt>
<pdfrwt beam="1">  1       -1 0.10301753E-01 0.91193031E+02</pdfrwt>
<totfact> 0.87119450E+04</totfact>
</mgrwt>
</event>
<event>
 5   1  0.1388354E+00  0.9149562E+02  0.7818608E-02  0.1299270E+00
         -1   -1    0    0    0  501 -0.00000000000E+00  0.00000000000E+00  0.44356632889E+02  0.44356633135E+02  0.46700000000E-02 0.  1.
          1   -1    0    0  501    0  0.00000000000E+00 -0.00000000000E+00 -0.47182620729E+02  0.47182620960E+02  0.46700000000E-02 0. -1.
         23    2    1    2    0    0  0.00000000000E+00  0.00000000000E+00 -0.28259878394E+01  0.91539254095E+02  0.91495621934E+02 0.  0.
        -13    1    3    3    0    0  0.14531610392E+02 -0.27455551834E+02  0.32186886757E+02  0.44732335941E+02  0.10570000000E+00 0.  1.
         13    1    3    3    0    0 -0.14531610392E+02  0.27455551834E+02 -0.35012874596E+02  0.46806918154E+02  0.10570000000E+00 0. -1.
<mgrwt>
<rscale>  0 0.91495622E+02</rscale>
<asrwt>0</asrwt>
<pdfrwt beam="2">  1        1 0.72588647E-02 0.91495622E+02</pdfrwt>
<pdfrwt beam="1">  1       -1 0.68240974E-02 0.91495622E+02</pdfrwt>
<totfact> 0.92045212E+04</totfact>
</mgrwt>
</event>
<event>
 5   1  0.1388354E+00  0.9105685E+02  0.7818608E-02  0.1300312E+00
          1   -1    0    0  501    0  0.00000000000E+00  0.00000000000E+00  0.94721468969E+02  0.94721469084E+02  0.46700000000E-02 0.  1.
         -1   -1    0    0    0  501 -0.00000000000E+00 -0.00000000000E+00 -0.21883501767E+02  0.21883502265E+02  0.46700000000E-02 0. -1.
         23    2    1    2    0    0  0.00000000000E+00  0.00000000000E+00  0.72837967202E+02  0.11660497135E+03  0.91056849700E+02 0.  0.
        -13    1    3    3    0    0  0.14343077722E+02 -0.30060525801E+02  0.76167682221E+02  0.83131739290E+02  0.10570000000E+00 0.  1.
         13    1    3    3    0    0 -0.14343077722E+02  0.30060525801E+02 -0.33297150189E+01  0.33473232060E+02  0.10570000000E+00 0. -1.
<mgrwt>
<rscale>  0 0.91056850E+02</rscale>
<asrwt>0</asrwt>
<pdfrwt beam="1">  1        1 0.14572534E-01 0.91056850E+02</pdfrwt>
<pdfrwt beam="2">  1       -1 0.33666927E-02 0.91056850E+02</pdfrwt>
<totfact> 0.10389349E+05</totfact>
</mgrwt>
</event>
<event>
 5   1  0.1388354E+00  0.9199822E+02  0.7818608E-02  0.1298084E+00
         -1   -1    0    0    0  501 -0.00000000000E+00  0.00000000000E+00  0.18471036122E+02  0.18471036713E+02  0.46700000000E-02 0. -1.
          1   -1    0    0  501    0  0.00000000000E+00 -0.00000000000E+00 -0.11455329694E+03  0.11455329704E+03  0.46700000000E-02 0.  1.
         23    2    1    2    0    0  0.00000000000E+00  0.00000000000E+00 -0.96082260822E+02  0.13302433375E+03  0.91998220230E+02 0.  0.
        -13    1    3    3    0    0 -0.38427337531E+02  0.63185687854E+01 -0.12642870505E+02  0.40944327181E+02  0.10570000000E+00 0. -1.
         13    1    3    3    0    0  0.38427337531E+02 -0.63185687854E+01 -0.83439390317E+02  0.92080006571E+02  0.10570000000E+00 0.  1.
<mgrwt>
<rscale>  0 0.91998220E+02</rscale>
<asrwt>0</asrwt>
<pdfrwt beam="2">  1        1 0.17623584E-01 0.91998220E+02</pdfrwt>
<pdfrwt beam="1">  1       -1 0.28416980E-02 0.91998220E+02</pdfrwt>
<totfact> 0.10430274E+05</totfact>
</mgrwt>
</event>
<event>
 5   1  0.1388354E+00  0.9322189E+02  0.7818608E-02  0.1295232E+00
         -1   -1    0    0    0  501 -0.00000000000E+00  0.00000000000E+00  0.16259724547E+02  0.16259725217E+02  0.46700000000E-02 0.  1.
          1   -1    0    0  501    0  0.00000000000E+00 -0.00000000000E+00 -0.13361727969E+03  0.13361727977E+03  0.46700000000E-02 0. -1.
         23    2    1    2    0    0  0.00000000000E+00  0.00000000000E+00 -0.11735755514E+03  0.14987700499E+03  0.93221890537E+02 0.  0.
        -13    1    3    3    0    0  0.82785498923E+00  0.45139785948E+02 -0.77309440471E+02  0.89526791397E+02  0.10570000000E+00 0. -1.
         13    1    3    3    0    0 -0.82785498923E+00 -0.45139785948E+02 -0.40048114672E+02  0.60350213592E+02  0.10570000000E+00 0.  1.
<mgrwt>
<rscale>  0 0.93221891E+02</rscale>
<asrwt>0</asrwt>
<pdfrwt beam="2">  1        1 0.20556504E-01 0.93221891E+02</pdfrwt>
<pdfrwt beam="1">  1       -1 0.25014962E-02 0.93221891E+02</pdfrwt>
<totfact> 0.10339559E+05</totfact>
</mgrwt>
</event>
<event>
 5   1  0.1388354E+00  0.9060791E+02  0.7818608E-02  0.1301386E+00
          1   -1    0    0  501    0  0.00000000000E+00  0.00000000000E+00  0.29357171673E+03  0.29357171677E+03  0.46700000000E-02 0. -1.
         -1   -1    0    0    0  501 -0.00000000000E+00 -0.00000000000E+00 -0.69913003768E+01  0.69913019365E+01  0.46700000000E-02 0.  1.
         23    2    1    2    0    0  0.00000000000E+00  0.00000000000E+00  0.28658041635E+03  0.30056301870E+03  0.90607909010E+02 0.  0.
        -13    1    3    3    0    0  0.31171702876E+02  0.21935962886E+02  0.62064892341E+02  0.72834906204E+02  0.10570000000E+00 0.  1.
         13    1    3    3    0    0 -0.31171702876E+02 -0.21935962886E+02  0.22451552401E+03  0.22772811250E+03  0.10570000000E+00 0. -1.
<mgrwt>
<rscale>  0 0.90607909E+02</rscale>
<asrwt>0</asrwt>
<pdfrwt beam="1">  1        1 0.45164874E-01 0.90607909E+02</pdfrwt>
<pdfrwt beam="2">  1       -1 0.10755849E-02 0.90607909E+02</pdfrwt>
<totfact> 0.12973746E+05</totfact>
</mgrwt>
</event>
<event>
 5   1  0.1388354E+00  0.8981121E+02  0.7818608E-02  0.1303310E+00
          1   -1    0    0  501    0  0.00000000000E+00  0.00000000000E+00  0.84558853086E+02  0.84558853215E+02  0.46700000000E-02 0. -1.
         -1   -1    0    0    0  501 -0.00000000000E+00 -0.00000000000E+00 -0.23847452923E+02  0.23847453380E+02  0.46700000000E-02 0.  1.
         23    2    1    2    0    0  0.00000000000E+00  0.00000000000E+00  0.60711400163E+02  0.10840630660E+03  0.89811208654E+02 0.  0.
        -13    1    3    3    0    0  0.18657656628E+02  0.17059078139E+02 -0.14441532124E+02  0.29115104678E+02  0.10570000000E+00 0.  1.
         13    1    3    3    0    0 -0.18657656628E+02 -0.17059078139E+02  0.75152932286E+02  0.79291201918E+02  0.10570000000E+00 0. -1.
<mgrwt>
<rscale>  0 0.89811209E+02</rscale>
<asrwt>0</asrwt>
<pdfrwt beam="1">  1        1 0.13009054E-01 0.89811209E+02</pdfrwt>
<pdfrwt beam="2">  1       -1 0.36688390E-02 0.89811209E+02</pdfrwt>
<totfact> 0.10591723E+05</totfact>
</mgrwt>
</event>
<event>
 5   1  0.1388354E+00  0.9583473E+02  0.7818608E-02  0.1289307E+00
         -1   -1    0    0    0  501 -0.00000000000E+00  0.00000000000E+00  0.10089053303E+03  0.10089053314E+03  0.46700000000E-02 0.  1.
          1   -1    0    0  501    0  0.00000000000E+00 -0.00000000000E+00 -0.22758069248E+02  0.22758069727E+02  0.46700000000E-02 0. -1.
         23    2    1    2    0    0  0.00000000000E+00  0.00000000000E+00  0.78132463783E+02  0.12364860287E+03  0.95834728016E+02 0.  0.
        -13    1    3    3    0    0 -0.21176438682E+02  0.37574389095E+02  0.66000371092E+02  0.78843746916E+02  0.10570000000E+00 0.  1.
         13    1    3    3    0    0  0.21176438682E+02 -0.37574389095E+02  0.12132092691E+02  0.44804855949E+02  0.10570000000E+00 0. -1.
<mgrwt>
<rscale>  0 0.95834728E+02</rscale>
<asrwt>0</asrwt>
<pdfrwt beam="2">  1        1 0.35012415E-02 0.95834728E+02</pdfrwt>
<pdfrwt beam="1">  1       -1 0.15521620E-01 0.95834728E+02</pdfrwt>
<totfact> 0.71437379E+04</totfact>
</mgrwt>
</event>
<event>
 5   1  0.1388354E+00  0.9163284E+02  0.7818608E-02  0.1298945E+00
          1   -1    0    0  501    0  0.00000000000E+00  0.00000000000E+00  0.30064781336E+03  0.30064781339E+03  0.46700000000E-02 0. -1.
         -1   -1    0    0    0  501 -0.00000000000E+00 -0.00000000000E+00 -0.69820706544E+01  0.69820722162E+01  0.46700000000E-02 0.  1.
         23    2    1    2    0    0  0.00000000000E+00  0.00000000000E+00  0.29366574270E+03  0.30762988561E+03  0.91632843910E+02 0.  0.
        -13    1    3    3    0    0 -0.10197049791E+02  0.40687392464E+02  0.84957403532E+02  0.94748167884E+02  0.10570000000E+00 0.  1.
         13    1    3    3    0    0  0.10197049791E+02 -0.40687392464E+02  0.20870833917E+03  0.21288171773E+03  0.10570000000E+00 0. -1.
<mgrwt>
<rscale>  0 0.91632844E+02</rscale>
<asrwt>0</asrwt>
<pdfrwt beam="1">  1        1 0.46253511E-01 0.91632844E+02</pdfrwt>
<pdfrwt beam="2">  1       -1 0.10741648E-02 0.91632844E+02</pdfrwt>
<totfact> 0.12648057E+05</totfact>
</mgrwt>
</event>
<event>
 5   1  0.1388354E+00  0.8472269E+02  0.7818608E-02  0.1316159E+00
         -1   -1    0    0    0  501 -0.00000000000E+00  0.00000000000E+00  0.10275150163E+02  0.10275151224E+02  0.46700000000E-02 0.  1.
          1   -1    0    0  501    0  0.00000000000E+00 -0.00000000000E+00 -0.17464305551E+03  0.17464305557E+03  0.46700000000E-02 0. -1.
         23    2    1    2    0    0  0.00000000000E+00  0.00000000000E+00 -0.16436790535E+03  0.18491820680E+03  0.84722694106E+02 0.  0.
        -13    1    3    3    0    0 -0.33360104762E+02 -0.21961329508E+02 -0.51372840177E+02  0.65072086672E+02  0.10570000000E+00 0.  1.
         13    1    3    3    0    0  0.33360104762E+02  0.21961329508E+02 -0.11299506517E+03  0.11984612013E+03  0.10570000000E+00 0. -1.
<mgrwt>
<rscale>  0 0.84722694E+02</rscale>
<asrwt>0</asrwt>
<pdfrwt beam="2">  1        1 0.26868160E-01 0.84722694E+02</pdfrwt>
<pdfrwt beam="1">  1       -1 0.15807926E-02 0.84722694E+02</pdfrwt>
<totfact> 0.14040493E+05</totfact>
</mgrwt>
</event>
<event>
 5   1  0.1388354E+00  0.9033365E+02  0.7818608E-02  0.1302046E+00
          1   -1    0    0  501    0  0.00000000000E+00  0.00000000000E+00  0.14297465637E+03  0.14297465645E+03  0.46700000000E-02 0. -1.
         -1   -1    0    0    0  501 -0.00000000000E+00 -0.00000000000E+00 -0.14268556510E+02  0.14268557274E+02  0.46700000000E-02 0.  1.
         23    2    1    2    0    0  0.00000000000E+00  0.00000000000E+00  0.12870609986E+03  0.15724321372E+03  0.90333648881E+02 0.  0.
        -13    1    3    3    0    0 -0.35896356164E+02  0.26639655965E+01  0.16860948565E+02  0.39748557930E+02  0.10570000000E+00 0.  1.
         13    1    3    3    0    0  0.35896356164E+02 -0.26639655965E+01  0.11184515130E+03  0.11749465579E+03  0.10570000000E+00 0. -1.
<mgrwt>
<rscale>  0 0.90333649E+02</rscale>
<asrwt>0</asrwt>
<pdfrwt beam="1">  1        1 0.21996100E-01 0.90333649E+02</pdfrwt>
<pdfrwt beam="2">  1       -1 0.21951627E-02 0.90333649E+02</pdfrwt>
<totfact> 0.11397440E+05</totfact>
</mgrwt>
</event>
<event>
 5   1  0.1388354E+00  0.8949687E+02  0.7818608E-02  0.1304075E+00
         -1   -1    0    0    0  501 -0.00000000000E+00  0.00000000000E+00  0.17570769612E+02  0.17570770232E+02  0.46700000000E-02 0.  1.
          1   -1    0    0  501    0  0.00000000000E+00 -0.00000000000E+00 -0.11396328242E+03  0.11396328251E+03  0.46700000000E-02 0. -1.
         23    2    1    2    0    0  0.00000000000E+00  0.00000000000E+00 -0.96392512807E+02  0.13153405275E+03  0.89496874284E+02 0.  0.
        -13    1    3    3    0    0  0.29797199220E+02  0.11632221950E+02 -0.22052787842E+01  0.32063313862E+02  0.10570000000E+00 0.  1.
         13    1    3    3    0    0 -0.29797199220E+02 -0.11632221950E+02 -0.94187234023E+02  0.99470738885E+02  0.10570000000E+00 0. -1.
<mgrwt>
<rscale>  0 0.89496874E+02</rscale>
<asrwt>0</asrwt>
<pdfrwt beam="2">  1        1 0.17532812E-01 0.89496874E+02</pdfrwt>
<pdfrwt beam="1">  1       -1 0.27031955E-02 0.89496874E+02</pdfrwt>
<totfact> 0.11230390E+05</totfact>
</mgrwt>
</event>
<event>
 5   1  0.1388354E+00  0.1000939E+03  0.7818608E-02  0.1280099E+00
         -1   -1    0    0    0  501 -0.00000000000E+00  0.00000000000E+00  0.13548597956E+03  0.13548597964E+03  0.46700000000E-02 0.  1.
          1   -1    0    0  501    0  0.00000000000E+00 -0.00000000000E+00 -0.18486754218E+02  0.18486754808E+02  0.46700000000E-02 0. -1.
         23    2    1    2    0    0  0.00000000000E+00  0.00000000000E+00  0.11699922534E+03  0.15397273445E+03  0.10009387705E+03 0.  0.
        -13    1    3    3    0    0  0.12075657552E+02  0.39094080715E+02  0.10283090310E+03  0.11067237440E+03  0.10570000000E+00 0.  1.
         13    1    3    3    0    0 -0.12075657552E+02 -0.39094080715E+02  0.14168322246E+02  0.43300360045E+02  0.10570000000E+00 0. -1.
<mgrwt>
<rscale>  0 0.10009388E+03</rscale>
<asrwt>0</asrwt>
<pdfrwt beam="2">  1        1 0.28441162E-02 0.10009388E+03</pdfrwt>
<pdfrwt beam="1">  1       -1 0.20843996E-01 0.10009388E+03</pdfrwt>
<totfact> 0.60060398E+04</totfact>
</mgrwt>
</event>
<event>
 5   1  0.1388354E+00  0.8729887E+02  0.7818608E-02  0.1309528E+00
          1   -1    0    0  501    0  0.00000000000E+00  0.00000000000E+00  0.51496690627E+02  0.51496690838E+02  0.46700000000E-02 0. -1.
         -1   -1    0    0    0  501 -0.00000000000E+00 -0.00000000000E+00 -0.36997976215E+02  0.36997976509E+02  0.46700000000E-02 0.  1.
         23    2    1    2    0    0  0.00000000000E+00  0.00000000000E+00  0.14498714412E+02  0.88494667348E+02  0.87298874159E+02 0.  0.
        -13    1    3    3    0    0 -0.49423023723E+01  0.18290907235E+02  0.47110736584E+02  0.50778108612E+02  0.10570000000E+00 0. -1.
         13    1    3    3    0    0  0.49423023723E+01 -0.18290907235E+02 -0.32612022172E+02  0.37716558736E+02  0.10570000000E+00 0.  1.
<mgrwt>
<rscale>  0 0.87298874E+02</rscale>
<asrwt>0</asrwt>
<pdfrwt beam="1">  1        1 0.79225678E-02 0.87298874E+02</pdfrwt>
<pdfrwt beam="2">  1       -1 0.56919964E-02 0.87298874E+02</pdfrwt>
<totfact> 0.10627310E+05</totfact>
</mgrwt>
</event>
<event>
 5   1  0.1388354E+00  0.9180330E+02  0.7818608E-02  0.1298543E+00
          1   -1    0    0  501    0  0.00000000000E+00  0.00000000000E+00  0.29922271575E+03  0.29922271579E+03  0.46700000000E-02 0. -1.
         -1   -1    0    0    0  501 -0.00000000000E+00 -0.00000000000E+00 -0.70414485916E+01  0.70414501402E+01  0.46700000000E-02 0.  1.
         23    2    1    2    0    0  0.00000000000E+00  0.00000000000E+00  0.29218126716E+03  0.30626416593E+03  0.91803303059E+02 0.  0.
        -13    1    3    3    0    0 -0.39277409258E+02  0.17025290940E+02  0.20135054339E+03  0.20585098471E+03  0.10570000000E+00 0. -1.
         13    1    3    3    0    0  0.39277409258E+02 -0.17025290940E+02  0.90830723772E+02  0.10041318122E+03  0.10570000000E+00 0.  1.
<mgrwt>
<rscale>  0 0.91803303E+02</rscale>
<asrwt>0</asrwt>
<pdfrwt beam="1">  1        1 0.46034259E-01 0.91803303E+02</pdfrwt>
<pdfrwt beam="2">  1       -1 0.10833000E-02 0.91803303E+02</pdfrwt>
<totfact> 0.12574092E+05</totfact>
</mgrwt>
</event>
<event>
 5   1  0.1388354E+00  0.7913486E+02  0.7818608E-02  0.1331525E+00
         -1   -1    0    0    0  501 -0.00000000000E+00  0.00000000000E+00  0.10985861990E+03  0.10985862000E+03  0.46700000000E-02 0.  1.
          1   -1    0    0  501    0  0.00000000000E+00 -0.00000000000E+00 -0.14250873452E+02  0.14250874218E+02  0.46700000000E-02 0. -1.
         23    2    1    2    0    0  0.00000000000E+00  0.00000000000E+00  0.95607746444E+02  0.12410949421E+03  0.79134855619E+02 0.  0.
        -13    1    3    3    0    0 -0.26999482747E+02 -0.28779543930E+02  0.43275785481E+02  0.58566534804E+02  0.10570000000E+00 0.  1.
         13    1    3    3    0    0  0.26999482747E+02  0.28779543930E+02  0.52331960963E+02  0.65542959409E+02  0.10570000000E+00 0. -1.
<mgrwt>
<rscale>  0 0.79134856E+02</rscale>
<asrwt>0</asrwt>
<pdfrwt beam="2">  1        1 0.21924422E-02 0.79134856E+02</pdfrwt>
<pdfrwt beam="1">  1       -1 0.16901326E-01 0.79134856E+02</pdfrwt>
<totfact> 0.11504972E+05</totfact>
</mgrwt>
</event>
<event>
 5   1  0.1388354E+00  0.9140508E+02  0.7818608E-02  0.1299484E+00
         -1   -1    0    0    0  501 -0.00000000000E+00  0.00000000000E+00  0.15904271249E+03  0.15904271255E+03  0.46700000000E-02 0.  1.
          1   -1    0    0  501    0  0.00000000000E+00 -0.00000000000E+00 -0.13133087831E+02  0.13133088661E+02  0.46700000000E-02 0. -1.
         23    2    1    2    0    0  0.00000000000E+00  0.00000000000E+00  0.14590962466E+03  0.17217580122E+03  0.91405076211E+02 0.  0.
        -13    1    3    3    0    0 -0.20930198949E+02  0.39756218802E+02  0.88723693281E+02  0.99451169342E+02  0.10570000000E+00 0.  1.
         13    1    3    3    0    0  0.20930198949E+02 -0.39756218802E+02  0.57185931374E+02  0.72724631873E+02  0.10570000000E+00 0. -1.
<mgrwt>
<rscale>  0 0.91405076E+02</rscale>
<asrwt>0</asrwt>
<pdfrwt beam="2">  1        1 0.20204753E-02 0.91405076E+02</pdfrwt>
<pdfrwt beam="1">  1       -1 0.24468107E-01 0.91405076E+02</pdfrwt>
<totfact> 0.73273159E+04</totfact>
</mgrwt>
</event>
<event>
 5   1  0.1388354E+00  0.8629182E+02  0.7818608E-02  0.1312088E+00
          1   -1    0    0  501    0  0.00000000000E+00  0.00000000000E+00  0.36269393013E+02  0.36269393314E+02  0.46700000000E-02 0. -1.
         -1   -1    0    0    0  501 -0.00000000000E+00 -0.00000000000E+00 -0.51326182127E+02  0.51326182340E+02  0.46700000000E-02 0.  1.
         23    2    1    2    0    0  0.00000000000E+00  0.00000000000E+00 -0.15056789114E+02  0.87595575653E+02  0.86291818706E+02 0.  0.
        -13    1    3    3    0    0 -0.38886099806E+02 -0.13059953713E+02 -0.21104583368E+02  0.46131396692E+02  0.10570000000E+00 0.  1.
         13    1    3    3    0    0  0.38886099806E+02  0.13059953713E+02  0.60477942538E+01  0.41464178961E+02  0.10570000000E+00 0. -1.
<mgrwt>
<rscale>  0 0.86291819E+02</rscale>
<asrwt>0</asrwt>
<pdfrwt beam="1">  1        1 0.55799067E-02 0.86291819E+02</pdfrwt>
<pdfrwt beam="2">  1       -1 0.78963357E-02 0.86291819E+02</pdfrwt>
<totfact> 0.10433790E+05</totfact>
</mgrwt>
</event>
<event>
 5   1  0.1388354E+00  0.9094327E+02  0.7818608E-02  0.1300583E+00
         -1   -1    0    0    0  501 -0.00000000000E+00  0.00000000000E+00  0.91685144535E+02  0.91685144654E+02  0.46700000000E-02 0.  1.
          1   -1    0    0  501    0  0.00000000000E+00 -0.00000000000E+00 -0.22551849526E+02  0.22551850009E+02  0.46700000000E-02 0. -1.
         23    2    1    2    0    0  0.00000000000E+00  0.00000000000E+00  0.69133295009E+02  0.11423699466E+03  0.90943270619E+02 0.  0.
        -13    1    3    3    0    0 -0.26669831071E+02 -0.19379979244E+02  0.73905828421E+02  0.80925559201E+02  0.10570000000E+00 0.  1.
         13    1    3    3    0    0  0.26669831071E+02  0.19379979244E+02 -0.47725334127E+01  0.33311435462E+02  0.10570000000E+00 0. -1.
<mgrwt>
<rscale>  0 0.90943271E+02</rscale>
<asrwt>0</asrwt>
<pdfrwt beam="2">  1        1 0.34695154E-02 0.90943271E+02</pdfrwt>
<pdfrwt beam="1">  1       -1 0.14105407E-01 0.90943271E+02</pdfrwt>
<totfact> 0.83215345E+04</totfact>
</mgrwt>
</event>
<event>
 5   1  0.1388354E+00  0.9038661E+02  0.7818608E-02  0.1301918E+00
         -1   -1    0    0    0  501 -0.00000000000E+00  0.00000000000E+00  0.16619373082E+03  0.16619373089E+03  0.46700000000E-02 0.  1.
          1   -1    0    0  501    0  0.00000000000E+00 -0.00000000000E+00 -0.12289480024E+02  0.12289480912E+02  0.46700000000E-02 0. -1.
         23    2    1    2    0    0  0.00000000000E+00  0.00000000000E+00  0.15390425080E+03  0.17848321180E+03  0.90386605647E+02 0.  0.
        -13    1    3    3    0    0  0.11774959725E+02 -0.25716229041E+02  0.73483752943E+01  0.29223003004E+02  0.10570000000E+00 0. -1.
         13    1    3    3    0    0 -0.11774959725E+02  0.25716229041E+02  0.14655587550E+03  0.14926020879E+03  0.10570000000E+00 0.  1.
<mgrwt>
<rscale>  0 0.90386606E+02</rscale>
<asrwt>0</asrwt>
<pdfrwt beam="2">  1        1 0.18906894E-02 0.90386606E+02</pdfrwt>
<pdfrwt beam="1">  1       -1 0.25568265E-01 0.90386606E+02</pdfrwt>
<totfact> 0.74622424E+04</totfact>
</mgrwt>
</event>
<event>
 5   1  0.1388354E+00  0.9078541E+02  0.7818608E-02  0.1300961E+00
         -1   -1    0    0    0  501 -0.00000000000E+00  0.00000000000E+00  0.18125635908E+02  0.18125636510E+02  0.46700000000E-02 0.  1.
          1   -1    0    0  501    0  0.00000000000E+00 -0.00000000000E+00 -0.11367864815E+03  0.11367864824E+03  0.46700000000E-02 0. -1.
         23    2    1    2    0    0  0.00000000000E+00  0.00000000000E+00 -0.95553012240E+02  0.13180428475E+03  0.90785413648E+02 0.  0.
        -13    1    3    3    0    0  0.39853000634E+02 -0.11717762437E+02 -0.21207006614E+02  0.46640282140E+02  0.10570000000E+00 0.  1.
         13    1    3    3    0    0 -0.39853000634E+02  0.11717762437E+02 -0.74346005626E+02  0.85164002614E+02  0.10570000000E+00 0. -1.
<mgrwt>
<rscale>  0 0.90785414E+02</rscale>
<asrwt>0</asrwt>
<pdfrwt beam="2">  1        1 0.17489023E-01 0.90785414E+02</pdfrwt>
<pdfrwt beam="1">  1       -1 0.27885595E-02 0.90785414E+02</pdfrwt>
<totfact> 0.10799122E+05</totfact>
</mgrwt>
</event>
<event>
 5   1  0.1388354E+00  0.9112991E+02  0.7818608E-02  0.1300138E+00
          1   -1    0    0  501    0  0.00000000000E+00  0.00000000000E+00  0.43702087050E+03  0.43702087052E+03  0.46700000000E-02 0. -1.
         -1   -1    0    0    0  501 -0.00000000000E+00 -0.00000000000E+00 -0.47507218045E+01  0.47507240998E+01  0.46700000000E-02 0.  1.
         23    2    1    2    0    0  0.00000000000E+00  0.00000000000E+00  0.43227014869E+03  0.44177159462E+03  0.91129909273E+02 0.  0.
        -13    1    3    3    0    0 -0.67520605204E+01  0.44189995257E+02  0.17337398674E+03  0.17904439799E+03  0.10570000000E+00 0.  1.
         13    1    3    3    0    0  0.67520605204E+01 -0.44189995257E+02  0.25889616195E+03  0.26272719663E+03  0.10570000000E+00 0. -1.
<mgrwt>
<rscale>  0 0.91129909E+02</rscale>
<asrwt>0</asrwt>
<pdfrwt beam="1">  1        1 0.67233992E-01 0.91129909E+02</pdfrwt>
<pdfrwt beam="2">  1       -1 0.73088032E-03 0.91129909E+02</pdfrwt>
<totfact> 0.13695992E+05</totfact>
</mgrwt>
</event>
<event>
 5   1  0.1388354E+00  0.8935361E+02  0.7818608E-02  0.1304425E+00
          1   -1    0    0  501    0  0.00000000000E+00  0.00000000000E+00  0.53132625855E+01  0.53132646378E+01  0.46700000000E-02 0. -1.
         -1   -1    0    0    0  501 -0.00000000000E+00 -0.00000000000E+00 -0.37566683599E+03  0.37566683602E+03  0.46700000000E-02 0.  1.
         23    2    1    2    0    0  0.00000000000E+00  0.00000000000E+00 -0.37035357341E+03  0.38098010066E+03  0.89353610800E+02 0.  0.
        -13    1    3    3    0    0 -0.15619248306E+02  0.41214735315E+02 -0.15402220321E+03  0.16020444931E+03  0.10570000000E+00 0. -1.
         13    1    3    3    0    0  0.15619248306E+02 -0.41214735315E+02 -0.21633137019E+03  0.22077565135E+03  0.10570000000E+00 0.  1.
<mgrwt>
<rscale>  0 0.89353611E+02</rscale>
<asrwt>0</asrwt>
<pdfrwt beam="1">  1        1 0.81742547E-03 0.89353611E+02</pdfrwt>
<pdfrwt beam="2">  1       -1 0.57794877E-01 0.89353611E+02</pdfrwt>
<totfact> 0.57941403E+04</totfact>
</mgrwt>
</event>
<event>
 5   1  0.1388354E+00  0.9131483E+02  0.7818608E-02  0.1299699E+00
          1   -1    0    0  501    0  0.00000000000E+00  0.00000000000E+00  0.86652990260E+02  0.86652990386E+02  0.46700000000E-02 0. -1.
         -1   -1    0    0    0  501 -0.00000000000E+00 -0.00000000000E+00 -0.24056865068E+02  0.24056865522E+02  0.46700000000E-02 0.  1.
         23    2    1    2    0    0  0.00000000000E+00  0.00000000000E+00  0.62596125192E+02  0.11070985591E+03  0.91314825226E+02 0.  0.
        -13    1    3    3    0    0  0.10355565804E+01 -0.16812934130E+02 -0.20151617753E+02  0.26264919609E+02  0.10570000000E+00 0.  1.
         13    1    3    3    0    0 -0.10355565804E+01  0.16812934130E+02  0.82747742945E+02  0.84444936299E+02  0.10570000000E+00 0. -1.
<mgrwt>
<rscale>  0 0.91314825E+02</rscale>
<asrwt>0</asrwt>
<pdfrwt beam="1">  1        1 0.13331229E-01 0.91314825E+02</pdfrwt>
<pdfrwt beam="2">  1       -1 0.37010563E-02 0.91314825E+02</pdfrwt>
<totfact> 0.10161205E+05</totfact>
</mgrwt>
</event>
<event>
 5   1  0.1388354E+00  0.9337601E+02  0.7818608E-02  0.1294876E+00
          1   -1    0    0  501    0  0.00000000000E+00  0.00000000000E+00  0.39205519702E+03  0.39205519705E+03  0.46700000000E-02 0. -1.
         -1   -1    0    0    0  501 -0.00000000000E+00 -0.00000000000E+00 -0.55598539330E+01  0.55598558942E+01  0.46700000000E-02 0.  1.
         23    2    1    2    0    0  0.00000000000E+00  0.00000000000E+00  0.38649534309E+03  0.39761505294E+03  0.93376014577E+02 0.  0.
        -13    1    3    3    0    0 -0.39065313290E+02  0.20062194340E+02  0.26073311044E+03  0.26440566635E+03  0.10570000000E+00 0. -1.
         13    1    3    3    0    0  0.39065313290E+02 -0.20062194340E+02  0.12576223265E+03  0.13320938660E+03  0.10570000000E+00 0.  1.
<mgrwt>
<rscale>  0 0.93376015E+02</rscale>
<asrwt>0</asrwt>
<pdfrwt beam="1">  1        1 0.60316197E-01 0.93376015E+02</pdfrwt>
<pdfrwt beam="2">  1       -1 0.85536212E-03 0.93376015E+02</pdfrwt>
<totfact> 0.12618533E+05</totfact>
</mgrwt>
</event>
<event>
 5   1  0.1388354E+00  0.9035112E+02  0.7818608E-02  0.1302004E+00
          1   -1    0    0  501    0  0.00000000000E+00  0.00000000000E+00  0.47983372985E+02  0.47983373212E+02  0.46700000000E-02 0. -1.
         -1   -1    0    0    0  501 -0.00000000000E+00 -0.00000000000E+00 -0.42532046844E+02  0.42532047101E+02  0.46700000000E-02 0.  1.
         23    2    1    2    0    0  0.00000000000E+00  0.00000000000E+00  0.54513261402E+01  0.90515420313E+02  0.90351117081E+02 0.  0.
        -13    1    3    3    0    0 -0.19283421920E+02  0.24573206786E+02 -0.29969970388E+02  0.43288603006E+02  0.10570000000E+00 0.  1.
         13    1    3    3    0    0  0.19283421920E+02 -0.24573206786E+02  0.35421296528E+02  0.47226817307E+02  0.10570000000E+00 0. -1.
<mgrwt>
<rscale>  0 0.90351117E+02</rscale>
<asrwt>0</asrwt>
<pdfrwt beam="1">  1        1 0.73820574E-02 0.90351117E+02</pdfrwt>
<pdfrwt beam="2">  1       -1 0.65433919E-02 0.90351117E+02</pdfrwt>
<totfact> 0.95587428E+04</totfact>
</mgrwt>
</event>
<event>
 5   1  0.1388354E+00  0.8918103E+02  0.7818608E-02  0.1304847E+00
          1   -1    0    0  501    0  0.00000000000E+00  0.00000000000E+00  0.38035737884E+03  0.38035737887E+03  0.46700000000E-02 0. -1.
         -1   -1    0    0    0  501 -0.00000000000E+00 -0.00000000000E+00 -0.52274882510E+01  0.52274903370E+01  0.46700000000E-02 0.  1.
         23    2    1    2    0    0  0.00000000000E+00  0.00000000000E+00  0.37512989059E+03  0.38558486921E+03  0.89181032440E+02 0.  0.
        -13    1    3    3    0    0  0.23611561366E+02 -0.35174012675E+02  0.12740818729E+03  0.13426680289E+03  0.10570000000E+00 0. -1.
         13    1    3    3    0    0 -0.23611561366E+02  0.35174012675E+02  0.24772170330E+03  0.25131806631E+03  0.10570000000E+00 0.  1.
<mgrwt>
<rscale>  0 0.89181032E+02</rscale>
<asrwt>0</asrwt>
<pdfrwt beam="1">  1        1 0.58516539E-01 0.89181032E+02</pdfrwt>
<pdfrwt beam="2">  1       -1 0.80422886E-03 0.89181032E+02</pdfrwt>
<totfact> 0.14184750E+05</totfact>
</mgrwt>
</event>
<event>
 5   1  0.1388354E+00  0.9065382E+02  0.7818608E-02  0.1301276E+00
          1   -1    0    0  501    0  0.00000000000E+00  0.00000000000E+00  0.68186267302E+02  0.68186267462E+02  0.46700000000E-02 0. -1.
         -1   -1    0    0    0  501 -0.00000000000E+00 -0.00000000000E+00 -0.30131122091E+02  0.30131122453E+02  0.46700000000E-02 0.  1.
         23    2    1    2    0    0  0.00000000000E+00  0.00000000000E+00  0.38055145211E+02  0.98317389915E+02  0.90653820011E+02 0.  0.
        -13    1    3    3    0    0  0.26409767195E+02  0.67242352642E+01  0.58308562507E+02  0.64362961222E+02  0.10570000000E+00 0. -1.
         13    1    3    3    0    0 -0.26409767195E+02 -0.67242352642E+01 -0.20253417296E+02  0.33954428692E+02  0.10570000000E+00 0.  1.
<mgrwt>
<rscale>  0 0.90653820E+02</rscale>
<asrwt>0</asrwt>
<pdfrwt beam="1">  1        1 0.10490195E-01 0.90653820E+02</pdfrwt>
<pdfrwt beam="2">  1       -1 0.46355573E-02 0.90653820E+02</pdfrwt>
<totfact> 0.99840432E+04</totfact>
</mgrwt>
</event>
<event>
 5   1  0.1388354E+00  0.9070601E+02  0.7818608E-02  0.1301151E+00
          1   -1    0    0  501    0  0.00000000000E+00  0.00000000000E+00  0.13721875041E+03  0.13721875049E+03  0.46700000000E-02 0. -1.
         -1   -1    0    0    0  501 -0.00000000000E+00 -0.00000000000E+00 -0.14989896820E+02  0.14989897547E+02  0.46700000000E-02 0.  1.
         23    2    1    2    0    0  0.00000000000E+00  0.00000000000E+00  0.12222885359E+03  0.15220864804E+03  0.90706008001E+02 0.  0.
        -13    1    3    3    0    0  0.41507748049E+02 -0.17097454140E+02  0.50282565068E+02  0.67405961224E+02  0.10570000000E+00 0.  1.
         13    1    3    3    0    0 -0.41507748049E+02  0.17097454140E+02  0.71946288526E+02  0.84802686817E+02  0.10570000000E+00 0. -1.
<mgrwt>
<rscale>  0 0.90706008E+02</rscale>
<asrwt>0</asrwt>
<pdfrwt beam="1">  1        1 0.21110577E-01 0.90706008E+02</pdfrwt>
<pdfrwt beam="2">  1       -1 0.23061380E-02 0.90706008E+02</pdfrwt>
<totfact> 0.11188340E+05</totfact>
</mgrwt>
</event>
<event>
 5   1  0.1388354E+00  0.9276735E+02  0.7818608E-02  0.1296285E+00
          1   -1    0    0  501    0  0.00000000000E+00  0.00000000000E+00  0.11795647244E+02  0.11795648169E+02  0.46700000000E-02 0. -1.
         -1   -1    0    0    0  501 -0.00000000000E+00 -0.00000000000E+00 -0.18239312803E+03  0.18239312809E+03  0.46700000000E-02 0.  1.
         23    2    1    2    0    0  0.00000000000E+00  0.00000000000E+00 -0.17059748078E+03  0.19418877626E+03  0.92767345409E+02 0.  0.
        -13    1    3    3    0    0 -0.41676521356E+02  0.29415739426E+01 -0.12746946259E+03  0.13414194108E+03  0.10570000000E+00 0. -1.
         13    1    3    3    0    0  0.41676521356E+02 -0.29415739426E+01 -0.43128018190E+02  0.60046835179E+02  0.10570000000E+00 0.  1.
<mgrwt>
<rscale>  0 0.92767345E+02</rscale>
<asrwt>0</asrwt>
<pdfrwt beam="1">  1        1 0.18147152E-02 0.92767345E+02</pdfrwt>
<pdfrwt beam="2">  1       -1 0.28060479E-01 0.92767345E+02</pdfrwt>
<totfact> 0.68079886E+04</totfact>
</mgrwt>
</event>
<event>
 5   1  0.1388354E+00  0.9165043E+02  0.7818608E-02  0.1298903E+00
         -1   -1    0    0    0  501 -0.00000000000E+00  0.00000000000E+00  0.16827289196E+03  0.16827289203E+03  0.46700000000E-02 0.  1.
          1   -1    0    0  501    0  0.00000000000E+00 -0.00000000000E+00 -0.12479432918E+02  0.12479433792E+02  0.46700000000E-02 0. -1.
         23    2    1    2    0    0  0.00000000000E+00  0.00000000000E+00  0.15579345905E+03  0.18075232582E+03  0.91650430484E+02 0.  0.
        -13    1    3    3    0    0  0.41318471368E+01 -0.34245926517E+02  0.18400421914E+02  0.39095298220E+02  0.10570000000E+00 0. -1.
         13    1    3    3    0    0 -0.41318471368E+01  0.34245926517E+02  0.13739303713E+03  0.14165702760E+03  0.10570000000E+00 0.  1.
<mgrwt>
<rscale>  0 0.91650430E+02</rscale>
<asrwt>0</asrwt>
<pdfrwt beam="2">  1        1 0.19199130E-02 0.91650430E+02</pdfrwt>
<pdfrwt beam="1">  1       -1 0.25888135E-01 0.91650430E+02</pdfrwt>
<totfact> 0.71752517E+04</totfact>
</mgrwt>
</event>
<event>
 5   1  0.1388354E+00  0.8992572E+02  0.7818608E-02  0.1303032E+00
         -1   -1    0    0    0  501 -0.00000000000E+00  0.00000000000E+00  0.66391536335E+02  0.66391536500E+02  0.46700000000E-02 0.  1.
          1   -1    0    0  501    0  0.00000000000E+00 -0.00000000000E+00 -0.30450546439E+02  0.30450546797E+02  0.46700000000E-02 0. -1.
         23    2    1    2    0    0  0.00000000000E+00  0.00000000000E+00  0.35940989896E+02  0.96842083297E+02  0.89925715691E+02 0.  0.
        -13    1    3    3    0    0 -0.26414950356E+02  0.24907747188E+02  0.46534090208E+02  0.59021845077E+02  0.10570000000E+00 0.  1.
         13    1    3    3    0    0  0.26414950356E+02 -0.24907747188E+02 -0.10593100312E+02  0.37820238220E+02  0.10570000000E+00 0. -1.
<mgrwt>
<rscale>  0 0.89925716E+02</rscale>
<asrwt>0</asrwt>
<pdfrwt beam="2">  1        1 0.46846995E-02 0.89925716E+02</pdfrwt>
<pdfrwt beam="1">  1       -1 0.10214083E-01 0.89925716E+02</pdfrwt>
<totfact> 0.90398247E+04</totfact>
</mgrwt>
</event>
<event>
 5   1  0.1388354E+00  0.9001731E+02  0.7818608E-02  0.1302810E+00
          1   -1    0    0  501    0  0.00000000000E+00  0.00000000000E+00  0.44666724215E+02  0.44666724459E+02  0.46700000000E-02 0. -1.
         -1   -1    0    0    0  501 -0.00000000000E+00 -0.00000000000E+00 -0.45353203546E+02  0.45353203787E+02  0.46700000000E-02 0.  1.
         23    2    1    2    0    0  0.00000000000E+00  0.00000000000E+00 -0.68647933148E+00  0.90019928246E+02  0.90017310710E+02 0.  0.
        -13    1    3    3    0    0 -0.12616865842E+02  0.34118303928E+01 -0.43413529567E+02  0.45338412105E+02  0.10570000000E+00 0.  1.
         13    1    3    3    0    0  0.12616865842E+02 -0.34118303928E+01  0.42727050235E+02  0.44681516140E+02  0.10570000000E+00 0. -1.
<mgrwt>
<rscale>  0 0.90017311E+02</rscale>
<asrwt>0</asrwt>
<pdfrwt beam="1">  1        1 0.68718038E-02 0.90017311E+02</pdfrwt>
<pdfrwt beam="2">  1       -1 0.69774160E-02 0.90017311E+02</pdfrwt>
<totfact> 0.95557767E+04</totfact>
</mgrwt>
</event>
<event>
 5   1  0.1388354E+00  0.9163520E+02  0.7818608E-02  0.1298939E+00
          1   -1    0    0  501    0  0.00000000000E+00  0.00000000000E+00  0.25872300016E+02  0.25872300438E+02  0.46700000000E-02 0. -1.
         -1   -1    0    0    0  501 -0.00000000000E+00 -0.00000000000E+00 -0.81138994432E+02  0.81138994567E+02  0.46700000000E-02 0.  1.
         23    2    1    2    0    0  0.00000000000E+00  0.00000000000E+00 -0.55266694416E+02  0.10701129500E+03  0.91635199278E+02 0.  0.
        -13    1    3    3    0    0  0.39760561344E+02  0.21220791421E+02 -0.37264452849E+02  0.58479696011E+02  0.10570000000E+00 0.  1.
         13    1    3    3    0    0 -0.39760561344E+02 -0.21220791421E+02 -0.18002241567E+02  0.48531598993E+02  0.10570000000E+00 0. -1.
<mgrwt>
<rscale>  0 0.91635199E+02</rscale>
<asrwt>0</asrwt>
<pdfrwt beam="1">  1        1 0.39803539E-02 0.91635199E+02</pdfrwt>
<pdfrwt beam="2">  1       -1 0.12482922E-01 0.91635199E+02</pdfrwt>
<totfact> 0.83369268E+04</totfact>
</mgrwt>
</event>
<event>
 5   1  0.1388354E+00  0.8994580E+02  0.7818608E-02  0.1302983E+00
         -1   -1    0    0    0  501 -0.00000000000E+00  0.00000000000E+00  0.38566160948E+02  0.38566161231E+02  0.46700000000E-02 0.  1.
          1   -1    0    0  501    0  0.00000000000E+00 -0.00000000000E+00 -0.52443947791E+02  0.52443947999E+02  0.46700000000E-02 0. -1.
         23    2    1    2    0    0  0.00000000000E+00  0.00000000000E+00 -0.13877786843E+02  0.91010109229E+02  0.89945800426E+02 0.  0.
        -13    1    3    3    0    0 -0.37884391825E+02 -0.58732733903E+01  0.16851619111E+02  0.41877329468E+02  0.10570000000E+00 0.  1.
         13    1    3    3    0    0  0.37884391825E+02  0.58732733903E+01 -0.30729405954E+02  0.49132779761E+02  0.10570000000E+00 0. -1.
<mgrwt>
<rscale>  0 0.89945800E+02</rscale>
<asrwt>0</asrwt>
<pdfrwt beam="2">  1        1 0.80682997E-02 0.89945800E+02</pdfrwt>
<pdfrwt beam="1">  1       -1 0.59332556E-02 0.89945800E+02</pdfrwt>
<totfact> 0.98080357E+04</totfact>
</mgrwt>
</event>
<event>
 5   1  0.1388354E+00  0.8845021E+02  0.7818608E-02  0.1306649E+00
         -1   -1    0    0    0  501 -0.00000000000E+00  0.00000000000E+00  0.22166480555E+03  0.22166480560E+03  0.46700000000E-02 0.  1.
          1   -1    0    0  501    0  0.00000000000E+00 -0.00000000000E+00 -0.88235023808E+01  0.88235036167E+01  0.46700000000E-02 0. -1.
         23    2    1    2    0    0  0.00000000000E+00  0.00000000000E+00  0.21284130317E+03  0.23048830922E+03  0.88450213965E+02 0.  0.
        -13    1    3    3    0    0  0.84144897049E+00  0.40672616894E+02  0.61219860593E+02  0.73504097198E+02  0.10570000000E+00 0. -1.
         13    1    3    3    0    0 -0.84144897049E+00 -0.40672616894E+02  0.15162144258E+03  0.15698421202E+03  0.10570000000E+00 0.  1.
<mgrwt>
<rscale>  0 0.88450214E+02</rscale>
<asrwt>0</asrwt>
<pdfrwt beam="2">  1        1 0.13574621E-02 0.88450214E+02</pdfrwt>
<pdfrwt beam="1">  1       -1 0.34102275E-01 0.88450214E+02</pdfrwt>
<totfact> 0.72874577E+04</totfact>
</mgrwt>
</event>
<event>
 5   1  0.1388354E+00  0.9162474E+02  0.7818608E-02  0.1298964E+00
         -1   -1    0    0    0  501 -0.00000000000E+00  0.00000000000E+00  0.14669023159E+03  0.14669023167E+03  0.46700000000E-02 0.  1.
          1   -1    0    0  501    0  0.00000000000E+00 -0.00000000000E+00 -0.14307519148E+02  0.14307519910E+02  0.46700000000E-02 0. -1.
         23    2    1    2    0    0  0.00000000000E+00  0.00000000000E+00  0.13238271245E+03  0.16099775158E+03  0.91624742612E+02 0.  0.
        -13    1    3    3    0    0  0.41446691080E+01 -0.32278083404E+02  0.12284958523E+03  0.12708691795E+03  0.10570000000E+00 0.  1.
         13    1    3    3    0    0 -0.41446691080E+01  0.32278083404E+02  0.95331272133E+01  0.33910833626E+02  0.10570000000E+00 0. -1.
<mgrwt>
<rscale>  0 0.91624743E+02</rscale>
<asrwt>0</asrwt>
<pdfrwt beam="2">  1        1 0.22011569E-02 0.91624743E+02</pdfrwt>
<pdfrwt beam="1">  1       -1 0.22567727E-01 0.91624743E+02</pdfrwt>
<totfact> 0.74226641E+04</totfact>
</mgrwt>
</event>
<event>
 5   1  0.1388354E+00  0.9135569E+02  0.7818608E-02  0.1299602E+00
         -1   -1    0    0    0  501 -0.00000000000E+00  0.00000000000E+00  0.10263926243E+03  0.10263926254E+03  0.46700000000E-02 0.  1.
          1   -1    0    0  501    0  0.00000000000E+00 -0.00000000000E+00 -0.20328140489E+02  0.20328141025E+02  0.46700000000E-02 0. -1.
         23    2    1    2    0    0  0.00000000000E+00  0.00000000000E+00  0.82311121945E+02  0.12296740357E+03  0.91355686981E+02 0.  0.
        -13    1    3    3    0    0  0.33642517458E+02  0.96273245216E+01  0.80673602730E+02  0.87936031911E+02  0.10570000000E+00 0.  1.
         13    1    3    3    0    0 -0.33642517458E+02 -0.96273245216E+01  0.16375192154E+01  0.35031371655E+02  0.10570000000E+00 0. -1.
<mgrwt>
<rscale>  0 0.91355687E+02</rscale>
<asrwt>0</asrwt>
<pdfrwt beam="2">  1        1 0.31274063E-02 0.91355687E+02</pdfrwt>
<pdfrwt beam="1">  1       -1 0.15790656E-01 0.91355687E+02</pdfrwt>
<totfact> 0.80566586E+04</totfact>
</mgrwt>
</event>
<event>
 5   1  0.1388354E+00  0.9138716E+02  0.7818608E-02  0.1299527E+00
          1   -1    0    0  501    0  0.00000000000E+00  0.00000000000E+00  0.38452512831E+02  0.38452513115E+02  0.46700000000E-02 0. -1.
         -1   -1    0    0    0  501 -0.00000000000E+00 -0.00000000000E+00 -0.54298225153E+02  0.54298225354E+02  0.46700000000E-02 0.  1.
         23    2    1    2    0    0  0.00000000000E+00  0.00000000000E+00 -0.15845712322E+02  0.92750738469E+02  0.91387159314E+02 0.  0.
        -13    1    3    3    0    0 -0.15885066015E+02 -0.84628685583E-01 -0.51405431319E+02  0.53804014961E+02  0.10570000000E+00 0.  1.
         13    1    3    3    0    0  0.15885066015E+02  0.84628685583E-01  0.35559718998E+02  0.38946723508E+02  0.10570000000E+00 0. -1.
<mgrwt>
<rscale>  0 0.91387159E+02</rscale>
<asrwt>0</asrwt>
<pdfrwt beam="1">  1        1 0.59157713E-02 0.91387159E+02</pdfrwt>
<pdfrwt beam="2">  1       -1 0.83535731E-02 0.91387159E+02</pdfrwt>
<totfact> 0.89533698E+04</totfact>
</mgrwt>
</event>
<event>
 5   1  0.1388354E+00  0.9203875E+02  0.7818608E-02  0.1297988E+00
          1   -1    0    0  501    0  0.00000000000E+00  0.00000000000E+00  0.31394371323E+03  0.31394371326E+03  0.46700000000E-02 0. -1.
         -1   -1    0    0    0  501 -0.00000000000E+00 -0.00000000000E+00 -0.67457399444E+01  0.67457415609E+01  0.46700000000E-02 0.  1.
         23    2    1    2    0    0  0.00000000000E+00  0.00000000000E+00  0.30719797328E+03  0.32068945482E+03  0.92038750781E+02 0.  0.
        -13    1    3    3    0    0  0.45706136895E+02  0.40781063878E+01  0.16571400822E+03  0.17195006715E+03  0.10570000000E+00 0. -1.
         13    1    3    3    0    0 -0.45706136895E+02 -0.40781063878E+01  0.14148396506E+03  0.14873938767E+03  0.10570000000E+00 0.  1.
<mgrwt>
<rscale>  0 0.92038751E+02</rscale>
<asrwt>0</asrwt>
<pdfrwt beam="1">  1        1 0.48299033E-01 0.92038751E+02</pdfrwt>
<pdfrwt beam="2">  1       -1 0.10378063E-02 0.92038751E+02</pdfrwt>
<totfact> 0.12602734E+05</totfact>
</mgrwt>
</event>
<event>
 5   1  0.1388354E+00  0.9369821E+02  0.7818608E-02  0.1294135E+00
          1   -1    0    0  501    0  0.00000000000E+00  0.00000000000E+00  0.12320350980E+02  0.12320351865E+02  0.46700000000E-02 0. -1.
         -1   -1    0    0    0  501 -0.00000000000E+00 -0.00000000000E+00 -0.17814740733E+03  0.17814740740E+03  0.46700000000E-02 0.  1.
         23    2    1    2    0    0  0.00000000000E+00  0.00000000000E+00 -0.16582705635E+03  0.19046775926E+03  0.93698210756E+02 0.  0.
        -13    1    3    3    0    0  0.92941180015E+01  0.28203013405E+02 -0.92540493517E+01  0.31103684612E+02  0.10570000000E+00 0. -1.
         13    1    3    3    0    0 -0.92941180015E+01 -0.28203013405E+02 -0.15657300700E+03  0.15936407465E+03  0.10570000000E+00 0.  1.
<mgrwt>
<rscale>  0 0.93698211E+02</rscale>
<asrwt>0</asrwt>
<pdfrwt beam="1">  1        1 0.18954388E-02 0.93698211E+02</pdfrwt>
<pdfrwt beam="2">  1       -1 0.27407292E-01 0.93698211E+02</pdfrwt>
<totfact> 0.66748024E+04</totfact>
</mgrwt>
</event>
<event>
 5   1  0.1388354E+00  0.8907161E+02  0.7818608E-02  0.1305116E+00
         -1   -1    0    0    0  501 -0.00000000000E+00  0.00000000000E+00  0.98589264795E+01  0.98589275855E+01  0.46700000000E-02 0.  1.
          1   -1    0    0  501    0  0.00000000000E+00 -0.00000000000E+00 -0.20118194584E+03  0.20118194589E+03  0.46700000000E-02 0. -1.
         23    2    1    2    0    0  0.00000000000E+00  0.00000000000E+00 -0.19132301936E+03  0.21104087348E+03  0.89071614680E+02 0.  0.
        -13    1    3    3    0    0  0.33071787614E+02  0.29442125001E+02 -0.84336885327E+02  0.95253888423E+02  0.10570000000E+00 0. -1.
         13    1    3    3    0    0 -0.33071787614E+02 -0.29442125001E+02 -0.10698613403E+03  0.11578698505E+03  0.10570000000E+00 0.  1.
<mgrwt>
<rscale>  0 0.89071615E+02</rscale>
<asrwt>0</asrwt>
<pdfrwt beam="2">  1        1 0.30951065E-01 0.89071615E+02</pdfrwt>
<pdfrwt beam="1">  1       -1 0.15167582E-02 0.89071615E+02</pdfrwt>
<totfact> 0.12618934E+05</totfact>
</mgrwt>
</event>
<event>
 5   1  0.1388354E+00  0.9149130E+02  0.7818608E-02  0.1299280E+00
         -1   -1    0    0    0  501 -0.00000000000E+00  0.00000000000E+00  0.97108849568E+01  0.97108860797E+01  0.46700000000E-02 0.  1.
          1   -1    0    0  501    0  0.00000000000E+00 -0.00000000000E+00 -0.21549678011E+03  0.21549678016E+03  0.46700000000E-02 0. -1.
         23    2    1    2    0    0  0.00000000000E+00  0.00000000000E+00 -0.20578589515E+03  0.22520766624E+03  0.91491301714E+02 0.  0.
        -13    1    3    3    0    0 -0.22328020652E+02  0.33464912928E+02 -0.49289853274E+02  0.63623436812E+02  0.10570000000E+00 0.  1.
         13    1    3    3    0    0  0.22328020652E+02 -0.33464912928E+02 -0.15649604188E+03  0.16158422943E+03  0.10570000000E+00 0. -1.
<mgrwt>
<rscale>  0 0.91491302E+02</rscale>
<asrwt>0</asrwt>
<pdfrwt beam="2">  1        1 0.33153347E-01 0.91491302E+02</pdfrwt>
<pdfrwt beam="1">  1       -1 0.14939826E-02 0.91491302E+02</pdfrwt>
<totfact> 0.11903376E+05</totfact>
</mgrwt>
</event>
<event>
 5   1  0.1388354E+00  0.8747748E+02  0.7818608E-02  0.1309078E+00
          1   -1    0    0  501    0  0.00000000000E+00  0.00000000000E+00  0.90673380322E+02  0.90673380442E+02  0.46700000000E-02 0. -1.
         -1   -1    0    0    0  501 -0.00000000000E+00 -0.00000000000E+00 -0.21098556225E+02  0.21098556742E+02  0.46700000000E-02 0.  1.
         23    2    1    2    0    0  0.00000000000E+00  0.00000000000E+00  0.69574824098E+02  0.11177193718E+03  0.87477481638E+02 0.  0.
        -13    1    3    3    0    0  0.10684647439E+02 -0.32341304978E+02 -0.27308035153E+00  0.34061817978E+02  0.10570000000E+00 0.  1.
         13    1    3    3    0    0 -0.10684647439E+02  0.32341304978E+02  0.69847904449E+02  0.77710119206E+02  0.10570000000E+00 0. -1.
<mgrwt>
<rscale>  0 0.87477482E+02</rscale>
<asrwt>0</asrwt>
<pdfrwt beam="1">  1        1 0.13949751E-01 0.87477482E+02</pdfrwt>
<pdfrwt beam="2">  1       -1 0.32459318E-02 0.87477482E+02</pdfrwt>
<totfact> 0.11506231E+05</totfact>
</mgrwt>
</event>
<event>
 5   1  0.1388354E+00  0.9136783E+02  0.7818608E-02  0.1299573E+00
          1   -1    0    0  501    0  0.00000000000E+00  0.00000000000E+00  0.25251109416E+02  0.25251109847E+02  0.46700000000E-02 0. -1.
         -1   -1    0    0    0  501 -0.00000000000E+00 -0.00000000000E+00 -0.82650620475E+02  0.82650620606E+02  0.46700000000E-02 0.  1.
         23    2    1    2    0    0  0.00000000000E+00  0.00000000000E+00 -0.57399511059E+02  0.10790173045E+03  0.91367825656E+02 0.  0.
        -13    1    3    3    0    0 -0.41291853057E+02 -0.18393883089E+02 -0.36502732896E+02  0.58101744770E+02  0.10570000000E+00 0.  1.
         13    1    3    3    0    0  0.41291853057E+02  0.18393883089E+02 -0.20896778163E+02  0.49799985684E+02  0.10570000000E+00 0. -1.
<mgrwt>
<rscale>  0 0.91367826E+02</rscale>
<asrwt>0</asrwt>
<pdfrwt beam="1">  1        1 0.38847862E-02 0.91367826E+02</pdfrwt>
<pdfrwt beam="2">  1       -1 0.12715480E-01 0.91367826E+02</pdfrwt>
<totfact> 0.83731923E+04</totfact>
</mgrwt>
</event>
<event>
 5   1  0.1388354E+00  0.9135457E+02  0.7818608E-02  0.1299604E+00
         -1   -1    0    0    0  501 -0.00000000000E+00  0.00000000000E+00  0.80117143688E+02  0.80117143824E+02  0.46700000000E-02 0.  1.
          1   -1    0    0  501    0  0.00000000000E+00 -0.00000000000E+00 -0.26042044067E+02  0.26042044485E+02  0.46700000000E-02 0. -1.
         23    2    1    2    0    0  0.00000000000E+00  0.00000000000E+00  0.54075099621E+02  0.10615918831E+03  0.91354566735E+02 0.  0.
        -13    1    3    3    0    0 -0.14379566928E+02 -0.95059240365E+01  0.76192253894E+02  0.78117893359E+02  0.10570000000E+00 0.  1.
         13    1    3    3    0    0  0.14379566928E+02  0.95059240365E+01 -0.22117154273E+02  0.28041294950E+02  0.10570000000E+00 0. -1.
<mgrwt>
<rscale>  0 0.91354567E+02</rscale>
<asrwt>0</asrwt>
<pdfrwt beam="2">  1        1 0.40064684E-02 0.91354567E+02</pdfrwt>
<pdfrwt beam="1">  1       -1 0.12325714E-01 0.91354567E+02</pdfrwt>
<totfact> 0.84208372E+04</totfact>
</mgrwt>
</event>
<event>
 5   1  0.1388354E+00  0.9266762E+02  0.7818608E-02  0.1296517E+00
          1   -1    0    0  501    0  0.00000000000E+00  0.00000000000E+00  0.11024583635E+03  0.11024583645E+03  0.46700000000E-02 0. -1.
         -1   -1    0    0    0  501 -0.00000000000E+00 -0.00000000000E+00 -0.19473041241E+02  0.19473041801E+02  0.46700000000E-02 0.  1.
         23    2    1    2    0    0  0.00000000000E+00  0.00000000000E+00  0.90772795106E+02  0.12971887825E+03  0.92667615931E+02 0.  0.
        -13    1    3    3    0    0 -0.31011420451E+02 -0.27179012697E+02  0.15810422789E+02  0.44163192489E+02  0.10570000000E+00 0.  1.
         13    1    3    3    0    0  0.31011420451E+02  0.27179012697E+02  0.74962372318E+02  0.85555685758E+02  0.10570000000E+00 0. -1.
<mgrwt>
<rscale>  0 0.92667616E+02</rscale>
<asrwt>0</asrwt>
<pdfrwt beam="1">  1        1 0.16960898E-01 0.92667616E+02</pdfrwt>
<pdfrwt beam="2">  1       -1 0.29958525E-02 0.92667616E+02</pdfrwt>
<totfact> 0.10159166E+05</totfact>
</mgrwt>
</event>
<event>
 5   1  0.1388354E+00  0.8632269E+02  0.7818608E-02  0.1312009E+00
         -1   -1    0    0    0  501 -0.00000000000E+00  0.00000000000E+00  0.47840977468E+02  0.47840977696E+02  0.46700000000E-02 0.  1.
          1   -1    0    0  501    0  0.00000000000E+00 -0.00000000000E+00 -0.38939459692E+02  0.38939459972E+02  0.46700000000E-02 0. -1.
         23    2    1    2    0    0  0.00000000000E+00  0.00000000000E+00  0.89015177761E+01  0.86780437668E+02  0.86322693095E+02 0.  0.
        -13    1    3    3    0    0  0.24717948355E+02 -0.29909720760E+01  0.39893458208E+02  0.47025759591E+02  0.10570000000E+00 0.  1.
         13    1    3    3    0    0 -0.24717948355E+02  0.29909720760E+01 -0.30991940431E+02  0.39754678077E+02  0.10570000000E+00 0. -1.
<mgrwt>
<rscale>  0 0.86322693E+02</rscale>
<asrwt>0</asrwt>
<pdfrwt beam="2">  1        1 0.59906862E-02 0.86322693E+02</pdfrwt>
<pdfrwt beam="1">  1       -1 0.73601504E-02 0.86322693E+02</pdfrwt>
<totfact> 0.10531579E+05</totfact>
</mgrwt>
</event>
<event>
 5   1  0.1388354E+00  0.6937833E+02  0.7818608E-02  0.1362220E+00
          1   -1    0    0  501    0  0.00000000000E+00  0.00000000000E+00  0.36790881973E+02  0.36790882269E+02  0.46700000000E-02 0. -1.
         -1   -1    0    0    0  501 -0.00000000000E+00 -0.00000000000E+00 -0.32707512129E+02  0.32707512463E+02  0.46700000000E-02 0.  1.
         23    2    1    2    0    0  0.00000000000E+00  0.00000000000E+00  0.40833698436E+01  0.69498394732E+02  0.69378332071E+02 0.  0.
        -13    1    3    3    0    0 -0.17883043414E+02 -0.29724111472E+02  0.20096419320E+01  0.34747314684E+02  0.10570000000E+00 0. -1.
         13    1    3    3    0    0  0.17883043414E+02  0.29724111472E+02  0.20737279116E+01  0.34751080048E+02  0.10570000000E+00 0.  1.
<mgrwt>
<rscale>  0 0.69378332E+02</rscale>
<asrwt>0</asrwt>
<pdfrwt beam="1">  1        1 0.56601357E-02 0.69378332E+02</pdfrwt>
<pdfrwt beam="2">  1       -1 0.50319250E-02 0.69378332E+02</pdfrwt>
<totfact> 0.19080091E+05</totfact>
</mgrwt>
</event>
<event>
 5   1  0.1388354E+00  0.8751212E+02  0.7818608E-02  0.1308991E+00
         -1   -1    0    0    0  501 -0.00000000000E+00  0.00000000000E+00  0.57146664303E+01  0.57146683384E+01  0.46700000000E-02 0.  1.
          1   -1    0    0  501    0  0.00000000000E+00 -0.00000000000E+00 -0.33503136126E+03  0.33503136129E+03  0.46700000000E-02 0. -1.
         23    2    1    2    0    0  0.00000000000E+00  0.00000000000E+00 -0.32931669483E+03  0.34074602963E+03  0.87512120394E+02 0.  0.
        -13    1    3    3    0    0 -0.39734400321E+02 -0.67096146467E+01 -0.98266448498E+02  0.10620803910E+03  0.10570000000E+00 0.  1.
         13    1    3    3    0    0  0.39734400321E+02  0.67096146467E+01 -0.23105024633E+03  0.23453799053E+03  0.10570000000E+00 0. -1.
<mgrwt>
<rscale>  0 0.87512120E+02</rscale>
<asrwt>0</asrwt>
<pdfrwt beam="2">  1        1 0.51543271E-01 0.87512120E+02</pdfrwt>
<pdfrwt beam="1">  1       -1 0.87917986E-03 0.87512120E+02</pdfrwt>
<totfact> 0.14583856E+05</totfact>
</mgrwt>
</event>
<event>
 5   1  0.1388354E+00  0.8788055E+02  0.7818608E-02  0.1308067E+00
         -1   -1    0    0    0  501 -0.00000000000E+00  0.00000000000E+00  0.24375521791E+02  0.24375522238E+02  0.46700000000E-02 0.  1.
          1   -1    0    0  501    0  0.00000000000E+00 -0.00000000000E+00 -0.79208460969E+02  0.79208461107E+02  0.46700000000E-02 0. -1.
         23    2    1    2    0    0  0.00000000000E+00  0.00000000000E+00 -0.54832939179E+02  0.10358398334E+03  0.87880546121E+02 0.  0.
        -13    1    3    3    0    0  0.37479160990E+02 -0.16808502472E+02 -0.90227315792E+01  0.42055131928E+02  0.10570000000E+00 0.  1.
         13    1    3    3    0    0 -0.37479160990E+02  0.16808502472E+02 -0.45810207599E+02  0.61528851417E+02  0.10570000000E+00 0. -1.
<mgrwt>
<rscale>  0 0.87880546E+02</rscale>
<asrwt>0</asrwt>
<pdfrwt beam="2">  1        1 0.12185917E-01 0.87880546E+02</pdfrwt>
<pdfrwt beam="1">  1       -1 0.37500804E-02 0.87880546E+02</pdfrwt>
<totfact> 0.11124999E+05</totfact>
</mgrwt>
</event>
<event>
 5   1  0.1388354E+00  0.9105156E+02  0.7818608E-02  0.1300325E+00
          1   -1    0    0  501    0  0.00000000000E+00  0.00000000000E+00  0.16108661752E+02  0.16108662429E+02  0.46700000000E-02 0. -1.
         -1   -1    0    0    0  501 -0.00000000000E+00 -0.00000000000E+00 -0.12866347700E+03  0.12866347709E+03  0.46700000000E-02 0.  1.
         23    2    1    2    0    0  0.00000000000E+00  0.00000000000E+00 -0.11255481525E+03  0.14477213951E+03  0.91051556515E+02 0.  0.
        -13    1    3    3    0    0 -0.88291028365E+00 -0.33291627993E+02 -0.10563085088E+03  0.11075648900E+03  0.10570000000E+00 0.  1.
         13    1    3    3    0    0  0.88291028365E+00  0.33291627993E+02 -0.69239643699E+01  0.34015650517E+02  0.10570000000E+00 0. -1.
<mgrwt>
<rscale>  0 0.91051557E+02</rscale>
<asrwt>0</asrwt>
<pdfrwt beam="1">  1        1 0.24782558E-02 0.91051557E+02</pdfrwt>
<pdfrwt beam="2">  1       -1 0.19794380E-01 0.91051557E+02</pdfrwt>
<totfact> 0.77671861E+04</totfact>
</mgrwt>
</event>
<event>
 5   1  0.1388354E+00  0.9124640E+02  0.7818608E-02  0.1299861E+00
          1   -1    0    0  501    0  0.00000000000E+00  0.00000000000E+00  0.16812786685E+02  0.16812787333E+02  0.46700000000E-02 0. -1.
         -1   -1    0    0    0  501 -0.00000000000E+00 -0.00000000000E+00 -0.12380317222E+03  0.12380317231E+03  0.46700000000E-02 0.  1.
         23    2    1    2    0    0  0.00000000000E+00  0.00000000000E+00 -0.10699038553E+03  0.14061595964E+03  0.91246399977E+02 0.  0.
        -13    1    3    3    0    0 -0.18065237858E+02  0.17019057618E+02  0.54986196223E+01  0.25421391215E+02  0.10570000000E+00 0. -1.
         13    1    3    3    0    0  0.18065237858E+02 -0.17019057618E+02 -0.11248900516E+03  0.11519456842E+03  0.10570000000E+00 0.  1.
<mgrwt>
<rscale>  0 0.91246400E+02</rscale>
<asrwt>0</asrwt>
<pdfrwt beam="1">  1        1 0.25865827E-02 0.91246400E+02</pdfrwt>
<pdfrwt beam="2">  1       -1 0.19046641E-01 0.91246400E+02</pdfrwt>
<totfact> 0.77872475E+04</totfact>
</mgrwt>
</event>
<event>
 5   1  0.1388354E+00  0.9283214E+02  0.7818608E-02  0.1296135E+00
          1   -1    0    0  501    0  0.00000000000E+00  0.00000000000E+00  0.12772243493E+03  0.12772243502E+03  0.46700000000E-02 0. -1.
         -1   -1    0    0    0  501 -0.00000000000E+00 -0.00000000000E+00 -0.16868231649E+02  0.16868232295E+02  0.46700000000E-02 0.  1.
         23    2    1    2    0    0  0.00000000000E+00  0.00000000000E+00  0.11085420328E+03  0.14459066731E+03  0.92832142538E+02 0.  0.
        -13    1    3    3    0    0  0.43785310280E+02 -0.15288538241E+02  0.58360799855E+02  0.74544529847E+02  0.10570000000E+00 0.  1.
         13    1    3    3    0    0 -0.43785310280E+02  0.15288538241E+02  0.52493403428E+02  0.70046137466E+02  0.10570000000E+00 0. -1.
<mgrwt>
<rscale>  0 0.92832143E+02</rscale>
<asrwt>0</asrwt>
<pdfrwt beam="1">  1        1 0.19649606E-01 0.92832143E+02</pdfrwt>
<pdfrwt beam="2">  1       -1 0.25951125E-02 0.92832143E+02</pdfrwt>
<totfact> 0.10373534E+05</totfact>
</mgrwt>
</event>
<event>
 5   1  0.1388354E+00  0.9176701E+02  0.7818608E-02  0.1298628E+00
         -1   -1    0    0    0  501 -0.00000000000E+00  0.00000000000E+00  0.28698901143E+02  0.28698901523E+02  0.46700000000E-02 0.  1.
          1   -1    0    0  501    0  0.00000000000E+00 -0.00000000000E+00 -0.73358070942E+02  0.73358071091E+02  0.46700000000E-02 0. -1.
         23    2    1    2    0    0  0.00000000000E+00  0.00000000000E+00 -0.44659169799E+02  0.10205697261E+03  0.91767010477E+02 0.  0.
        -13    1    3    3    0    0  0.10914845867E+02 -0.16159753752E+02  0.23860879800E+02  0.30815974087E+02  0.10570000000E+00 0.  1.
         13    1    3    3    0    0 -0.10914845867E+02  0.16159753752E+02 -0.68520049599E+02  0.71240998527E+02  0.10570000000E+00 0. -1.
<mgrwt>
<rscale>  0 0.91767010E+02</rscale>
<asrwt>0</asrwt>
<pdfrwt beam="2">  1        1 0.11285857E-01 0.91767010E+02</pdfrwt>
<pdfrwt beam="1">  1       -1 0.44152156E-02 0.91767010E+02</pdfrwt>
<totfact> 0.97633428E+04</totfact>
</mgrwt>
</event>
<event>
 5   1  0.1388354E+00  0.8941586E+02  0.7818608E-02  0.1304272E+00
          1   -1    0    0  501    0  0.00000000000E+00  0.00000000000E+00  0.11911898306E+03  0.11911898315E+03  0.46700000000E-02 0. -1.
         -1   -1    0    0    0  501 -0.00000000000E+00 -0.00000000000E+00 -0.16779851596E+02  0.16779852245E+02  0.46700000000E-02 0.  1.
         23    2    1    2    0    0  0.00000000000E+00  0.00000000000E+00  0.10233913147E+03  0.13589883540E+03  0.89415857842E+02 0.  0.
        -13    1    3    3    0    0 -0.29259615929E+02  0.24638120615E+01  0.10240890622E+03  0.10653539665E+03  0.10570000000E+00 0. -1.
         13    1    3    3    0    0  0.29259615929E+02 -0.24638120615E+01 -0.69774750308E-01  0.29363438750E+02  0.10570000000E+00 0.  1.
<mgrwt>
<rscale>  0 0.89415858E+02</rscale>
<asrwt>0</asrwt>
<pdfrwt beam="1">  1        1 0.18325997E-01 0.89415858E+02</pdfrwt>
<pdfrwt beam="2">  1       -1 0.25815157E-02 0.89415858E+02</pdfrwt>
<totfact> 0.11343510E+05</totfact>
</mgrwt>
</event>
<event>
 5   1  0.1388354E+00  0.9394164E+02  0.7818608E-02  0.1293578E+00
          1   -1    0    0  501    0  0.00000000000E+00  0.00000000000E+00  0.26394926737E+03  0.26394926741E+03  0.46700000000E-02 0. -1.
         -1   -1    0    0    0  501 -0.00000000000E+00 -0.00000000000E+00 -0.83586429058E+01  0.83586442104E+01  0.46700000000E-02 0.  1.
         23    2    1    2    0    0  0.00000000000E+00  0.00000000000E+00  0.25559062447E+03  0.27230791162E+03  0.93941638361E+02 0.  0.
        -13    1    3    3    0    0  0.22588352753E+02 -0.34507317919E+02  0.19295196024E+03  0.19731056435E+03  0.10570000000E+00 0. -1.
         13    1    3    3    0    0 -0.22588352753E+02  0.34507317919E+02  0.62638664227E+02  0.74997347278E+02  0.10570000000E+00 0.  1.
<mgrwt>
<rscale>  0 0.93941638E+02</rscale>
<asrwt>0</asrwt>
<pdfrwt beam="1">  1        1 0.40607584E-01 0.93941638E+02</pdfrwt>
<pdfrwt beam="2">  1       -1 0.12859450E-02 0.93941638E+02</pdfrwt>
<totfact> 0.11538819E+05</totfact>
</mgrwt>
</event>
<event>
 5   1  0.1388354E+00  0.9263622E+02  0.7818608E-02  0.1296590E+00
         -1   -1    0    0    0  501 -0.00000000000E+00  0.00000000000E+00  0.26679335931E+02  0.26679336340E+02  0.46700000000E-02 0.  1.
          1   -1    0    0  501    0  0.00000000000E+00 -0.00000000000E+00 -0.80413063674E+02  0.80413063809E+02  0.46700000000E-02 0. -1.
         23    2    1    2    0    0  0.00000000000E+00  0.00000000000E+00 -0.53733727742E+02  0.10709240015E+03  0.92636216852E+02 0.  0.
        -13    1    3    3    0    0  0.23879258538E+02  0.25647486350E+00 -0.72747342569E+02  0.76566779944E+02  0.10570000000E+00 0. -1.
         13    1    3    3    0    0 -0.23879258538E+02 -0.25647486350E+00  0.19013614827E+02  0.30525620205E+02  0.10570000000E+00 0.  1.
<mgrwt>
<rscale>  0 0.92636217E+02</rscale>
<asrwt>0</asrwt>
<pdfrwt beam="2">  1        1 0.12371241E-01 0.92636217E+02</pdfrwt>
<pdfrwt beam="1">  1       -1 0.41045133E-02 0.92636217E+02</pdfrwt>
<totfact> 0.96518157E+04</totfact>
</mgrwt>
</event>
<event>
 5   1  0.1388354E+00  0.9201867E+02  0.7818608E-02  0.1298036E+00
         -1   -1    0    0    0  501 -0.00000000000E+00  0.00000000000E+00  0.89296177228E+02  0.89296177350E+02  0.46700000000E-02 0.  1.
          1   -1    0    0  501    0  0.00000000000E+00 -0.00000000000E+00 -0.23706039984E+02  0.23706040444E+02  0.46700000000E-02 0. -1.
         23    2    1    2    0    0  0.00000000000E+00  0.00000000000E+00  0.65590137244E+02  0.11300221779E+03  0.92018667251E+02 0.  0.
        -13    1    3    3    0    0  0.32340578220E+01  0.43057651786E+02  0.52306045665E+02  0.67825910188E+02  0.10570000000E+00 0.  1.
         13    1    3    3    0    0 -0.32340578220E+01 -0.43057651786E+02  0.13284091579E+02  0.45176307605E+02  0.10570000000E+00 0. -1.
<mgrwt>
<rscale>  0 0.92018667E+02</rscale>
<asrwt>0</asrwt>
<pdfrwt beam="2">  1        1 0.36470831E-02 0.92018667E+02</pdfrwt>
<pdfrwt beam="1">  1       -1 0.13737873E-01 0.92018667E+02</pdfrwt>
<totfact> 0.81118116E+04</totfact>
</mgrwt>
</event>
<event>
 5   1  0.1388354E+00  0.9067613E+02  0.7818608E-02  0.1301223E+00
          1   -1    0    0  501    0  0.00000000000E+00  0.00000000000E+00  0.34153933151E+03  0.34153933154E+03  0.46700000000E-02 0. -1.
         -1   -1    0    0    0  501 -0.00000000000E+00 -0.00000000000E+00 -0.60184575944E+01  0.60184594062E+01  0.46700000000E-02 0.  1.
         23    2    1    2    0    0  0.00000000000E+00  0.00000000000E+00  0.33552087391E+03  0.34755779094E+03  0.90676133660E+02 0.  0.
        -13    1    3    3    0    0 -0.41200016664E+02  0.18828661194E+02  0.16051901100E+03  0.16678826074E+03  0.10570000000E+00 0.  1.
         13    1    3    3    0    0  0.41200016664E+02 -0.18828661194E+02  0.17500186291E+03  0.18076953020E+03  0.10570000000E+00 0. -1.
<mgrwt>
<rscale>  0 0.90676134E+02</rscale>
<asrwt>0</asrwt>
<pdfrwt beam="1">  1        1 0.52544522E-01 0.90676134E+02</pdfrwt>
<pdfrwt beam="2">  1       -1 0.92591654E-03 0.90676134E+02</pdfrwt>
<totfact> 0.13318950E+05</totfact>
</mgrwt>
</event>
<event>
 5   1  0.1388354E+00  0.8290742E+02  0.7818608E-02  0.1320997E+00
         -1   -1    0    0    0  501 -0.00000000000E+00  0.00000000000E+00  0.52722882682E+02  0.52722882889E+02  0.46700000000E-02 0.  1.
          1   -1    0    0  501    0  0.00000000000E+00 -0.00000000000E+00 -0.32593252626E+02  0.32593252960E+02  0.46700000000E-02 0. -1.
         23    2    1    2    0    0  0.00000000000E+00  0.00000000000E+00  0.20129630057E+02  0.85316135849E+02  0.82907424457E+02 0.  0.
        -13    1    3    3    0    0  0.15288084870E+01  0.14794059996E+02 -0.29752990123E+02  0.33263389188E+02  0.10570000000E+00 0. -1.
         13    1    3    3    0    0 -0.15288084870E+01 -0.14794059996E+02  0.49882620179E+02  0.52052746661E+02  0.10570000000E+00 0.  1.
<mgrwt>
<rscale>  0 0.82907424E+02</rscale>
<asrwt>0</asrwt>
<pdfrwt beam="2">  1        1 0.50143467E-02 0.82907424E+02</pdfrwt>
<pdfrwt beam="1">  1       -1 0.81112126E-02 0.82907424E+02</pdfrwt>
<totfact> 0.11495605E+05</totfact>
</mgrwt>
</event>
<event>
 5   1  0.1388354E+00  0.9014791E+02  0.7818608E-02  0.1302494E+00
         -1   -1    0    0    0  501 -0.00000000000E+00  0.00000000000E+00  0.88522244262E+02  0.88522244385E+02  0.46700000000E-02 0.  1.
          1   -1    0    0  501    0  0.00000000000E+00 -0.00000000000E+00 -0.22950855998E+02  0.22950856473E+02  0.46700000000E-02 0. -1.
         23    2    1    2    0    0  0.00000000000E+00  0.00000000000E+00  0.65571388264E+02  0.11147310086E+03  0.90147907663E+02 0.  0.
        -13    1    3    3    0    0  0.18601314705E+02  0.91539406261E+01  0.82276541908E+02  0.84848359198E+02  0.10570000000E+00 0.  1.
         13    1    3    3    0    0 -0.18601314705E+02 -0.91539406261E+01 -0.16705153644E+02  0.26624741660E+02  0.10570000000E+00 0. -1.
<mgrwt>
<rscale>  0 0.90147908E+02</rscale>
<asrwt>0</asrwt>
<pdfrwt beam="2">  1        1 0.35309010E-02 0.90147908E+02</pdfrwt>
<pdfrwt beam="1">  1       -1 0.13618807E-01 0.90147908E+02</pdfrwt>
<totfact> 0.85642132E+04</totfact>
</mgrwt>
</event>
<event>
 4   1  0.1388354E+00  0.4665575E+02  0.7818608E-02  0.1464262E+00
          1   -1    0    0  501    0  0.00000000000E+00  0.00000000000E+00  0.11388342270E+03  0.11388342279E+03  0.46700000000E-02 0.  1.
         -1   -1    0    0    0  501 -0.00000000000E+00 -0.00000000000E+00 -0.47784793000E+01  0.47784815820E+01  0.46700000000E-02 0. -1.
        -13    1    1    2    0    0  0.15395100829E+02  0.15621203159E+02  0.34341649188E+02  0.40747897603E+02  0.10570000000E+00 0. -1.
         13    1    1    2    0    0 -0.15395100829E+02 -0.15621203159E+02  0.74763294210E+02  0.77914006772E+02  0.10570000000E+00 0.  1.
<mgrwt>
<rscale>  0 0.46655749E+02</rscale>
<asrwt>0</asrwt>
<pdfrwt beam="1">  1        1 0.17520526E-01 0.46655749E+02</pdfrwt>
<pdfrwt beam="2">  1       -1 0.73515088E-03 0.46655749E+02</pdfrwt>
<totfact> 0.61154031E+05</totfact>
</mgrwt>
</event>
<event>
 5   1  0.1388354E+00  0.9078968E+02  0.7818608E-02  0.1300951E+00
          1   -1    0    0  501    0  0.00000000000E+00  0.00000000000E+00  0.30526842338E+02  0.30526842695E+02  0.46700000000E-02 0. -1.
         -1   -1    0    0    0  501 -0.00000000000E+00 -0.00000000000E+00 -0.67504252132E+02  0.67504252293E+02  0.46700000000E-02 0.  1.
         23    2    1    2    0    0  0.00000000000E+00  0.00000000000E+00 -0.36977409794E+02  0.98031094988E+02  0.90789684158E+02 0.  0.
        -13    1    3    3    0    0 -0.16277677185E+02 -0.20673990038E+02 -0.58429676659E+02  0.64081314949E+02  0.10570000000E+00 0.  1.
         13    1    3    3    0    0  0.16277677185E+02  0.20673990038E+02  0.21452266865E+02  0.33949780040E+02  0.10570000000E+00 0. -1.
<mgrwt>
<rscale>  0 0.90789684E+02</rscale>
<asrwt>0</asrwt>
<pdfrwt beam="1">  1        1 0.46964373E-02 0.90789684E+02</pdfrwt>
<pdfrwt beam="2">  1       -1 0.10385270E-01 0.90789684E+02</pdfrwt>
<totfact> 0.87994340E+04</totfact>
</mgrwt>
</event>
<event>
 5   1  0.1388354E+00  0.6900259E+02  0.7818608E-02  0.1363518E+00
         -1   -1    0    0    0  501 -0.00000000000E+00  0.00000000000E+00  0.23336456101E+02  0.23336456569E+02  0.46700000000E-02 0.  1.
          1   -1    0    0  501    0  0.00000000000E+00 -0.00000000000E+00 -0.51007717570E+02  0.51007717783E+02  0.46700000000E-02 0. -1.
         23    2    1    2    0    0  0.00000000000E+00  0.00000000000E+00 -0.27671261468E+02  0.74344174352E+02  0.69002590885E+02 0.  0.
        -13    1    3    3    0    0  0.82913811926E+01 -0.32221835811E+02 -0.40001863524E+01  0.33511287180E+02  0.10570000000E+00 0. -1.
         13    1    3    3    0    0 -0.82913811926E+01  0.32221835811E+02 -0.23671075116E+02  0.40832887172E+02  0.10570000000E+00 0.  1.
<mgrwt>
<rscale>  0 0.69002591E+02</rscale>
<asrwt>0</asrwt>
<pdfrwt beam="2">  1        1 0.78473412E-02 0.69002591E+02</pdfrwt>
<pdfrwt beam="1">  1       -1 0.35902241E-02 0.69002591E+02</pdfrwt>
<totfact> 0.20134043E+05</totfact>
</mgrwt>
</event>
<event>
 5   1  0.1388354E+00  0.9434843E+02  0.7818608E-02  0.1292650E+00
         -1   -1    0    0    0  501 -0.00000000000E+00  0.00000000000E+00  0.18631612401E+02  0.18631612986E+02  0.46700000000E-02 0.  1.
          1   -1    0    0  501    0  0.00000000000E+00 -0.00000000000E+00 -0.11944250234E+03  0.11944250243E+03  0.46700000000E-02 0. -1.
         23    2    1    2    0    0  0.00000000000E+00  0.00000000000E+00 -0.10081088994E+03  0.13807411542E+03  0.94348427747E+02 0.  0.
        -13    1    3    3    0    0 -0.45437661336E+02 -0.10023843478E+02 -0.61773041574E+02  0.77336785191E+02  0.10570000000E+00 0. -1.
         13    1    3    3    0    0  0.45437661336E+02  0.10023843478E+02 -0.39037848368E+02  0.60737330230E+02  0.10570000000E+00 0.  1.
<mgrwt>
<rscale>  0 0.94348428E+02</rscale>
<asrwt>0</asrwt>
<pdfrwt beam="2">  1        1 0.18375769E-01 0.94348428E+02</pdfrwt>
<pdfrwt beam="1">  1       -1 0.28664020E-02 0.94348428E+02</pdfrwt>
<totfact> 0.98089341E+04</totfact>
</mgrwt>
</event>
<event>
 5   1  0.1388354E+00  0.9252572E+02  0.7818608E-02  0.1296848E+00
          1   -1    0    0  501    0  0.00000000000E+00  0.00000000000E+00  0.14319936591E+03  0.14319936599E+03  0.46700000000E-02 0. -1.
         -1   -1    0    0    0  501 -0.00000000000E+00 -0.00000000000E+00 -0.14945961882E+02  0.14945962611E+02  0.46700000000E-02 0.  1.
         23    2    1    2    0    0  0.00000000000E+00  0.00000000000E+00  0.12825340403E+03  0.15814532860E+03  0.92525722436E+02 0.  0.
        -13    1    3    3    0    0  0.23496991951E+02  0.17831054159E+02  0.32112390010E+01  0.29671170377E+02  0.10570000000E+00 0.  1.
         13    1    3    3    0    0 -0.23496991951E+02 -0.17831054159E+02  0.12504216503E+03  0.12847415822E+03  0.10570000000E+00 0. -1.
<mgrwt>
<rscale>  0 0.92525722E+02</rscale>
<asrwt>0</asrwt>
<pdfrwt beam="1">  1        1 0.22030671E-01 0.92525722E+02</pdfrwt>
<pdfrwt beam="2">  1       -1 0.22993788E-02 0.92525722E+02</pdfrwt>
<totfact> 0.10685444E+05</totfact>
</mgrwt>
</event>
<event>
 5   1  0.1388354E+00  0.8796902E+02  0.7818608E-02  0.1307846E+00
          1   -1    0    0  501    0  0.00000000000E+00  0.00000000000E+00  0.12557520839E+03  0.12557520847E+03  0.46700000000E-02 0. -1.
         -1   -1    0    0    0  501 -0.00000000000E+00 -0.00000000000E+00 -0.15406202297E+02  0.15406203005E+02  0.46700000000E-02 0.  1.
         23    2    1    2    0    0  0.00000000000E+00  0.00000000000E+00  0.11016900609E+03  0.14098141148E+03  0.87969019999E+02 0.  0.
        -13    1    3    3    0    0  0.21913078534E+02 -0.32505637814E+00 -0.60328684635E+01  0.22730933700E+02  0.10570000000E+00 0.  1.
         13    1    3    3    0    0 -0.21913078534E+02  0.32505637814E+00  0.11620187455E+03  0.11825047778E+03  0.10570000000E+00 0. -1.
<mgrwt>
<rscale>  0 0.87969020E+02</rscale>
<asrwt>0</asrwt>
<pdfrwt beam="1">  1        1 0.19319262E-01 0.87969020E+02</pdfrwt>
<pdfrwt beam="2">  1       -1 0.23701851E-02 0.87969020E+02</pdfrwt>
<totfact> 0.11963017E+05</totfact>
</mgrwt>
</event>
<event>
 5   1  0.1388354E+00  0.8984722E+02  0.7818608E-02  0.1303222E+00
          1   -1    0    0  501    0  0.00000000000E+00  0.00000000000E+00  0.92066694756E+02  0.92066694874E+02  0.46700000000E-02 0. -1.
         -1   -1    0    0    0  501 -0.00000000000E+00 -0.00000000000E+00 -0.21920311680E+02  0.21920312177E+02  0.46700000000E-02 0.  1.
         23    2    1    2    0    0  0.00000000000E+00  0.00000000000E+00  0.70146383076E+02  0.11398700705E+03  0.89847218755E+02 0.  0.
        -13    1    3    3    0    0 -0.26808785021E+02  0.31065904916E+02  0.11876253604E+02  0.42718356414E+02  0.10570000000E+00 0.  1.
         13    1    3    3    0    0  0.26808785021E+02 -0.31065904916E+02  0.58270129472E+02  0.71268650638E+02  0.10570000000E+00 0. -1.
<mgrwt>
<rscale>  0 0.89847219E+02</rscale>
<asrwt>0</asrwt>
<pdfrwt beam="1">  1        1 0.14164107E-01 0.89847219E+02</pdfrwt>
<pdfrwt beam="2">  1       -1 0.33723557E-02 0.89847219E+02</pdfrwt>
<totfact> 0.10725321E+05</totfact>
</mgrwt>
</event>
<event>
 5   1  0.1388354E+00  0.9652411E+02  0.7818608E-02  0.1287780E+00
          1   -1    0    0  501    0  0.00000000000E+00  0.00000000000E+00  0.13509370488E+03  0.13509370497E+03  0.46700000000E-02 0. -1.
         -1   -1    0    0    0  501 -0.00000000000E+00 -0.00000000000E+00 -0.17241558598E+02  0.17241559231E+02  0.46700000000E-02 0.  1.
         23    2    1    2    0    0  0.00000000000E+00  0.00000000000E+00  0.11785214629E+03  0.15233526420E+03  0.96524112704E+02 0.  0.
        -13    1    3    3    0    0  0.39284662110E+02 -0.24546237252E+02  0.37552404983E+02  0.59632178669E+02  0.10570000000E+00 0.  1.
         13    1    3    3    0    0 -0.39284662110E+02  0.24546237252E+02  0.80299741303E+02  0.92703085527E+02  0.10570000000E+00 0. -1.
<mgrwt>
<rscale>  0 0.96524113E+02</rscale>
<asrwt>0</asrwt>
<pdfrwt beam="1">  1        1 0.20783647E-01 0.96524113E+02</pdfrwt>
<pdfrwt beam="2">  1       -1 0.26525475E-02 0.96524113E+02</pdfrwt>
<totfact> 0.94245219E+04</totfact>
</mgrwt>
</event>
<event>
 5   1  0.1388354E+00  0.8991779E+02  0.7818608E-02  0.1303051E+00
          1   -1    0    0  501    0  0.00000000000E+00  0.00000000000E+00  0.22448765419E+02  0.22448765905E+02  0.46700000000E-02 0. -1.
         -1   -1    0    0    0  501 -0.00000000000E+00 -0.00000000000E+00 -0.90040677096E+02  0.90040677217E+02  0.46700000000E-02 0.  1.
         23    2    1    2    0    0  0.00000000000E+00  0.00000000000E+00 -0.67591911677E+02  0.11248944312E+03  0.89917786281E+02 0.  0.
        -13    1    3    3    0    0  0.14841722083E+02 -0.41645176002E+02 -0.23579319865E+02  0.50105816992E+02  0.10570000000E+00 0. -1.
         13    1    3    3    0    0 -0.14841722083E+02  0.41645176002E+02 -0.44012591812E+02  0.62383626130E+02  0.10570000000E+00 0.  1.
<mgrwt>
<rscale>  0 0.89917786E+02</rscale>
<asrwt>0</asrwt>
<pdfrwt beam="1">  1        1 0.34536563E-02 0.89917786E+02</pdfrwt>
<pdfrwt beam="2">  1       -1 0.13852412E-01 0.89917786E+02</pdfrwt>
<totfact> 0.85947763E+04</totfact>
</mgrwt>
</event>
<event>
 5   1  0.1388354E+00  0.9332702E+02  0.7818608E-02  0.1294989E+00
         -1   -1    0    0    0  501 -0.00000000000E+00  0.00000000000E+00  0.32474996319E+03  0.32474996322E+03  0.46700000000E-02 0.  1.
          1   -1    0    0  501    0  0.00000000000E+00 -0.00000000000E+00 -0.67051054191E+01  0.67051070454E+01  0.46700000000E-02 0. -1.
         23    2    1    2    0    0  0.00000000000E+00  0.00000000000E+00  0.31804485777E+03  0.33145507027E+03  0.93327016734E+02 0.  0.
        -13    1    3    3    0    0  0.53758836864E+01  0.43766412083E+02  0.21324288450E+03  0.21775430631E+03  0.10570000000E+00 0.  1.
         13    1    3    3    0    0 -0.53758836864E+01 -0.43766412083E+02  0.10480197327E+03  0.11370076396E+03  0.10570000000E+00 0. -1.
<mgrwt>
<rscale>  0 0.93327017E+02</rscale>
<asrwt>0</asrwt>
<pdfrwt beam="2">  1        1 0.10315550E-02 0.93327017E+02</pdfrwt>
<pdfrwt beam="1">  1       -1 0.49961524E-01 0.93327017E+02</pdfrwt>
<totfact> 0.55187366E+04</totfact>
</mgrwt>
</event>
<event>
 5   1  0.1388354E+00  0.8882072E+02  0.7818608E-02  0.1305733E+00
         -1   -1    0    0    0  501 -0.00000000000E+00  0.00000000000E+00  0.66555870779E+02  0.66555870943E+02  0.46700000000E-02 0.  1.
          1   -1    0    0  501    0  0.00000000000E+00 -0.00000000000E+00 -0.29633450265E+02  0.29633450632E+02  0.46700000000E-02 0. -1.
         23    2    1    2    0    0  0.00000000000E+00  0.00000000000E+00  0.36922420515E+02  0.96189321576E+02  0.88820720829E+02 0.  0.
        -13    1    3    3    0    0 -0.24446332242E+01  0.29713369294E+02 -0.17184614375E+02  0.34411955628E+02  0.10570000000E+00 0. -1.
         13    1    3    3    0    0  0.24446332242E+01 -0.29713369294E+02  0.54107034890E+02  0.61777365948E+02  0.10570000000E+00 0.  1.
<mgrwt>
<rscale>  0 0.88820721E+02</rscale>
<asrwt>0</asrwt>
<pdfrwt beam="2">  1        1 0.45589925E-02 0.88820721E+02</pdfrwt>
<pdfrwt beam="1">  1       -1 0.10239365E-01 0.88820721E+02</pdfrwt>
<totfact> 0.93247778E+04</totfact>
</mgrwt>
</event>
<event>
 5   1  0.1388354E+00  0.8107871E+02  0.7818608E-02  0.1326018E+00
          1   -1    0    0  501    0  0.00000000000E+00  0.00000000000E+00  0.62197734628E+02  0.62197734804E+02  0.46700000000E-02 0. -1.
         -1   -1    0    0    0  501 -0.00000000000E+00 -0.00000000000E+00 -0.26422815075E+02  0.26422815488E+02  0.46700000000E-02 0.  1.
         23    2    1    2    0    0  0.00000000000E+00  0.00000000000E+00  0.35774919553E+02  0.88620550291E+02  0.81078709073E+02 0.  0.
        -13    1    3    3    0    0  0.99648244782E+01  0.20093210454E+02 -0.19023466015E+02  0.29409832793E+02  0.10570000000E+00 0.  1.
         13    1    3    3    0    0 -0.99648244782E+01 -0.20093210454E+02  0.54798385569E+02  0.59210717498E+02  0.10570000000E+00 0. -1.
<mgrwt>
<rscale>  0 0.81078709E+02</rscale>
<asrwt>0</asrwt>
<pdfrwt beam="1">  1        1 0.95688821E-02 0.81078709E+02</pdfrwt>
<pdfrwt beam="2">  1       -1 0.40650486E-02 0.81078709E+02</pdfrwt>
<totfact> 0.13372879E+05</totfact>
</mgrwt>
</event>
<event>
 5   1  0.1388354E+00  0.9755521E+02  0.7818608E-02  0.1285523E+00
         -1   -1    0    0    0  501 -0.00000000000E+00  0.00000000000E+00  0.14440246675E+03  0.14440246683E+03  0.46700000000E-02 0.  1.
          1   -1    0    0  501    0  0.00000000000E+00 -0.00000000000E+00 -0.16476549925E+02  0.16476550587E+02  0.46700000000E-02 0. -1.
         23    2    1    2    0    0  0.00000000000E+00  0.00000000000E+00  0.12792591683E+03  0.16087901741E+03  0.97555205132E+02 0.  0.
        -13    1    3    3    0    0 -0.30994809541E+02 -0.66707549277E+01  0.28331859765E+01  0.31831043103E+02  0.10570000000E+00 0. -1.
         13    1    3    3    0    0  0.30994809541E+02  0.66707549277E+01  0.12509273085E+03  0.12904797431E+03  0.10570000000E+00 0.  1.
<mgrwt>
<rscale>  0 0.97555205E+02</rscale>
<asrwt>0</asrwt>
<pdfrwt beam="2">  1        1 0.25348540E-02 0.97555205E+02</pdfrwt>
<pdfrwt beam="1">  1       -1 0.22215763E-01 0.97555205E+02</pdfrwt>
<totfact> 0.63286453E+04</totfact>
</mgrwt>
</event>
<event>
 5   1  0.1388354E+00  0.9084205E+02  0.7818608E-02  0.1300825E+00
          1   -1    0    0  501    0  0.00000000000E+00  0.00000000000E+00  0.48338100323E+03  0.48338100325E+03  0.46700000000E-02 0. -1.
         -1   -1    0    0    0  501 -0.00000000000E+00 -0.00000000000E+00 -0.42679970304E+01  0.42679995853E+01  0.46700000000E-02 0.  1.
         23    2    1    2    0    0  0.00000000000E+00  0.00000000000E+00  0.47911300620E+03  0.48764900284E+03  0.90842045657E+02 0.  0.
        -13    1    3    3    0    0 -0.44182333157E+02  0.88966561107E+01  0.26984184915E+03  0.27357972106E+03  0.10570000000E+00 0. -1.
         13    1    3    3    0    0  0.44182333157E+02 -0.88966561107E+01  0.20927115705E+03  0.21406928177E+03  0.10570000000E+00 0.  1.
<mgrwt>
<rscale>  0 0.90842046E+02</rscale>
<asrwt>0</asrwt>
<pdfrwt beam="1">  1        1 0.74366280E-01 0.90842046E+02</pdfrwt>
<pdfrwt beam="2">  1       -1 0.65661537E-03 0.90842046E+02</pdfrwt>
<totfact> 0.14004888E+05</totfact>
</mgrwt>
</event>
<event>
 5   1  0.1388354E+00  0.8882099E+02  0.7818608E-02  0.1305732E+00
         -1   -1    0    0    0  501 -0.00000000000E+00  0.00000000000E+00  0.37255296929E+02  0.37255297222E+02  0.46700000000E-02 0.  1.
          1   -1    0    0  501    0  0.00000000000E+00 -0.00000000000E+00 -0.52939914059E+02  0.52939914265E+02  0.46700000000E-02 0. -1.
         23    2    1    2    0    0  0.00000000000E+00  0.00000000000E+00 -0.15684617130E+02  0.90195211487E+02  0.88820993919E+02 0.  0.
        -13    1    3    3    0    0  0.33324484132E+02 -0.76010366563E+01  0.20951000143E+02  0.40090554753E+02  0.10570000000E+00 0.  1.
         13    1    3    3    0    0 -0.33324484132E+02  0.76010366563E+01 -0.36635617273E+02  0.50104656734E+02  0.10570000000E+00 0. -1.
<mgrwt>
<rscale>  0 0.88820994E+02</rscale>
<asrwt>0</asrwt>
<pdfrwt beam="2">  1        1 0.81446023E-02 0.88820994E+02</pdfrwt>
<pdfrwt beam="1">  1       -1 0.57315841E-02 0.88820994E+02</pdfrwt>
<totfact> 0.10171020E+05</totfact>
</mgrwt>
</event>
<event>
 5   1  0.1388354E+00  0.9763481E+02  0.7818608E-02  0.1285350E+00
         -1   -1    0    0    0  501 -0.00000000000E+00  0.00000000000E+00  0.19466590741E+02  0.19466591302E+02  0.46700000000E-02 0.  1.
          1   -1    0    0  501    0  0.00000000000E+00 -0.00000000000E+00 -0.12242199438E+03  0.12242199447E+03  0.46700000000E-02 0. -1.
         23    2    1    2    0    0  0.00000000000E+00  0.00000000000E+00 -0.10295540364E+03  0.14188858577E+03  0.97634807490E+02 0.  0.
        -13    1    3    3    0    0  0.20787921571E+02  0.76456255286E+01 -0.11469918557E+03  0.11681826748E+03  0.10570000000E+00 0. -1.
         13    1    3    3    0    0 -0.20787921571E+02 -0.76456255286E+01  0.11743781931E+02  0.25070318296E+02  0.10570000000E+00 0.  1.
<mgrwt>
<rscale>  0 0.97634807E+02</rscale>
<asrwt>0</asrwt>
<pdfrwt beam="2">  1        1 0.18834153E-01 0.97634807E+02</pdfrwt>
<pdfrwt beam="1">  1       -1 0.29948602E-02 0.97634807E+02</pdfrwt>
<totfact> 0.89726121E+04</totfact>
</mgrwt>
</event>
<event>
 5   1  0.1388354E+00  0.9188876E+02  0.7818608E-02  0.1298341E+00
          1   -1    0    0  501    0  0.00000000000E+00  0.00000000000E+00  0.85104125617E+02  0.85104125745E+02  0.46700000000E-02 0. -1.
         -1   -1    0    0    0  501 -0.00000000000E+00 -0.00000000000E+00 -0.24803570795E+02  0.24803571235E+02  0.46700000000E-02 0.  1.
         23    2    1    2    0    0  0.00000000000E+00  0.00000000000E+00  0.60300554822E+02  0.10990769698E+03  0.91888763968E+02 0.  0.
        -13    1    3    3    0    0  0.33559233412E+02 -0.17026225813E+02 -0.13767680776E+01  0.37656621934E+02  0.10570000000E+00 0.  1.
         13    1    3    3    0    0 -0.33559233412E+02  0.17026225813E+02  0.61677322899E+02  0.72251075045E+02  0.10570000000E+00 0. -1.
<mgrwt>
<rscale>  0 0.91888764E+02</rscale>
<asrwt>0</asrwt>
<pdfrwt beam="1">  1        1 0.13092942E-01 0.91888764E+02</pdfrwt>
<pdfrwt beam="2">  1       -1 0.38159341E-02 0.91888764E+02</pdfrwt>
<totfact> 0.99591316E+04</totfact>
</mgrwt>
</event>
<event>
 5   1  0.1388354E+00  0.9988464E+02  0.7818608E-02  0.1280539E+00
         -1   -1    0    0    0  501 -0.00000000000E+00  0.00000000000E+00  0.23490402092E+02  0.23490402556E+02  0.46700000000E-02 0.  1.
          1   -1    0    0  501    0  0.00000000000E+00 -0.00000000000E+00 -0.10618103934E+03  0.10618103944E+03  0.46700000000E-02 0. -1.
         23    2    1    2    0    0  0.00000000000E+00  0.00000000000E+00 -0.82690637245E+02  0.12967144200E+03  0.99884640367E+02 0.  0.
        -13    1    3    3    0    0  0.15422498989E+01 -0.35081430306E+02  0.47574586579E+01  0.35436279044E+02  0.10570000000E+00 0.  1.
         13    1    3    3    0    0 -0.15422498989E+01  0.35081430306E+02 -0.87448095903E+02  0.94235162952E+02  0.10570000000E+00 0. -1.
<mgrwt>
<rscale>  0 0.99884640E+02</rscale>
<asrwt>0</asrwt>
<pdfrwt beam="2">  1        1 0.16335544E-01 0.99884640E+02</pdfrwt>
<pdfrwt beam="1">  1       -1 0.36139081E-02 0.99884640E+02</pdfrwt>
<totfact> 0.82179453E+04</totfact>
</mgrwt>
</event>
<event>
 5   1  0.1388354E+00  0.9151962E+02  0.7818608E-02  0.1299213E+00
          1   -1    0    0  501    0  0.00000000000E+00  0.00000000000E+00  0.53770392639E+02  0.53770392842E+02  0.46700000000E-02 0. -1.
         -1   -1    0    0    0  501 -0.00000000000E+00 -0.00000000000E+00 -0.38942620283E+02  0.38942620563E+02  0.46700000000E-02 0.  1.
         23    2    1    2    0    0  0.00000000000E+00  0.00000000000E+00  0.14827772356E+02  0.92713013405E+02  0.91519615501E+02 0.  0.
        -13    1    3    3    0    0 -0.44128284462E+02  0.16042119237E+01 -0.47455393786E+01  0.44411826150E+02  0.10570000000E+00 0.  1.
         13    1    3    3    0    0  0.44128284462E+02 -0.16042119237E+01  0.19573311735E+02  0.48301187255E+02  0.10570000000E+00 0. -1.
<mgrwt>
<rscale>  0 0.91519616E+02</rscale>
<asrwt>0</asrwt>
<pdfrwt beam="1">  1        1 0.82723681E-02 0.91519616E+02</pdfrwt>
<pdfrwt beam="2">  1       -1 0.59911724E-02 0.91519616E+02</pdfrwt>
<totfact> 0.93805507E+04</totfact>
</mgrwt>
</event>
<event>
 5   1  0.1388354E+00  0.9070712E+02  0.7818608E-02  0.1301148E+00
         -1   -1    0    0    0  501 -0.00000000000E+00  0.00000000000E+00  0.86493375772E+02  0.86493375898E+02  0.46700000000E-02 0.  1.
          1   -1    0    0  501    0  0.00000000000E+00 -0.00000000000E+00 -0.23781537797E+02  0.23781538256E+02  0.46700000000E-02 0. -1.
         23    2    1    2    0    0  0.00000000000E+00  0.00000000000E+00  0.62711837975E+02  0.11027491415E+03  0.90707122485E+02 0.  0.
        -13    1    3    3    0    0 -0.25488665495E+02 -0.21784399705E+02  0.68484370797E+02  0.76251900665E+02  0.10570000000E+00 0.  1.
         13    1    3    3    0    0  0.25488665495E+02  0.21784399705E+02 -0.57725328221E+01  0.34023013489E+02  0.10570000000E+00 0. -1.
<mgrwt>
<rscale>  0 0.90707122E+02</rscale>
<asrwt>0</asrwt>
<pdfrwt beam="2">  1        1 0.36586982E-02 0.90707122E+02</pdfrwt>
<pdfrwt beam="1">  1       -1 0.13306673E-01 0.90707122E+02</pdfrwt>
<totfact> 0.84637564E+04</totfact>
</mgrwt>
</event>
<event>
 5   1  0.1388354E+00  0.9631689E+02  0.7818608E-02  0.1288237E+00
         -1   -1    0    0    0  501 -0.00000000000E+00  0.00000000000E+00  0.10506386224E+03  0.10506386235E+03  0.46700000000E-02 0.  1.
          1   -1    0    0  501    0  0.00000000000E+00 -0.00000000000E+00 -0.22074532783E+02  0.22074533277E+02  0.46700000000E-02 0. -1.
         23    2    1    2    0    0  0.00000000000E+00  0.00000000000E+00  0.82989329461E+02  0.12713839563E+03  0.96316887605E+02 0.  0.
        -13    1    3    3    0    0 -0.37583164228E+02 -0.28363399434E+02  0.28147118487E+02  0.54856614118E+02  0.10570000000E+00 0. -1.
         13    1    3    3    0    0  0.37583164228E+02  0.28363399434E+02  0.54842210975E+02  0.72281781508E+02  0.10570000000E+00 0.  1.
<mgrwt>
<rscale>  0 0.96316888E+02</rscale>
<asrwt>0</asrwt>
<pdfrwt beam="2">  1        1 0.33960819E-02 0.96316888E+02</pdfrwt>
<pdfrwt beam="1">  1       -1 0.16163672E-01 0.96316888E+02</pdfrwt>
<totfact> 0.69971055E+04</totfact>
</mgrwt>
</event>
<event>
 5   1  0.1388354E+00  0.9377282E+02  0.7818608E-02  0.1293964E+00
          1   -1    0    0  501    0  0.00000000000E+00  0.00000000000E+00  0.53971349300E+02  0.53971349502E+02  0.46700000000E-02 0. -1.
         -1   -1    0    0    0  501 -0.00000000000E+00 -0.00000000000E+00 -0.40731523096E+02  0.40731523364E+02  0.46700000000E-02 0.  1.
         23    2    1    2    0    0  0.00000000000E+00  0.00000000000E+00  0.13239826204E+02  0.94702872865E+02  0.93772816589E+02 0.  0.
        -13    1    3    3    0    0  0.25114863336E+02  0.76597839043E+01 -0.32609857533E+02  0.41866963475E+02  0.10570000000E+00 0. -1.
         13    1    3    3    0    0 -0.25114863336E+02 -0.76597839043E+01  0.45849683737E+02  0.52835909390E+02  0.10570000000E+00 0.  1.
<mgrwt>
<rscale>  0 0.93772817E+02</rscale>
<asrwt>0</asrwt>
<pdfrwt beam="1">  1        1 0.83032845E-02 0.93772817E+02</pdfrwt>
<pdfrwt beam="2">  1       -1 0.62663882E-02 0.93772817E+02</pdfrwt>
<totfact> 0.87689216E+04</totfact>
</mgrwt>
</event>
<event>
 5   1  0.1388354E+00  0.9014928E+02  0.7818608E-02  0.1302491E+00
         -1   -1    0    0    0  501 -0.00000000000E+00  0.00000000000E+00  0.85088994937E+02  0.85088995065E+02  0.46700000000E-02 0.  1.
          1   -1    0    0  501    0  0.00000000000E+00 -0.00000000000E+00 -0.23877622720E+02  0.23877623177E+02  0.46700000000E-02 0. -1.
         23    2    1    2    0    0  0.00000000000E+00  0.00000000000E+00  0.61211372217E+02  0.10896661824E+03  0.90149275108E+02 0.  0.
        -13    1    3    3    0    0  0.22739055366E+02 -0.18805967524E+02 -0.10579792075E+02  0.31347603199E+02  0.10570000000E+00 0. -1.
         13    1    3    3    0    0 -0.22739055366E+02  0.18805967524E+02  0.71791164292E+02  0.77619015043E+02  0.10570000000E+00 0.  1.
<mgrwt>
<rscale>  0 0.90149275E+02</rscale>
<asrwt>0</asrwt>
<pdfrwt beam="2">  1        1 0.36734805E-02 0.90149275E+02</pdfrwt>
<pdfrwt beam="1">  1       -1 0.13090615E-01 0.90149275E+02</pdfrwt>
<totfact> 0.86230014E+04</totfact>
</mgrwt>
</event>
<event>
 5   1  0.1388354E+00  0.9170202E+02  0.7818608E-02  0.1298782E+00
          1   -1    0    0  501    0  0.00000000000E+00  0.00000000000E+00  0.33676831019E+02  0.33676831343E+02  0.46700000000E-02 0.  1.
         -1   -1    0    0    0  501 -0.00000000000E+00 -0.00000000000E+00 -0.62426149453E+02  0.62426149627E+02  0.46700000000E-02 0. -1.
         23    2    1    2    0    0  0.00000000000E+00  0.00000000000E+00 -0.28749318433E+02  0.96102980970E+02  0.91702015469E+02 0.  0.
        -13    1    3    3    0    0 -0.21036345911E+02 -0.75171870059E+01  0.27587807682E+02  0.35498369750E+02  0.10570000000E+00 0.  1.
         13    1    3    3    0    0  0.21036345911E+02  0.75171870059E+01 -0.56337126115E+02  0.60604611220E+02  0.10570000000E+00 0. -1.
<mgrwt>
<rscale>  0 0.91702015E+02</rscale>
<asrwt>0</asrwt>
<pdfrwt beam="1">  1        1 0.51810510E-02 0.91702015E+02</pdfrwt>
<pdfrwt beam="2">  1       -1 0.96040230E-02 0.91702015E+02</pdfrwt>
<totfact> 0.86855105E+04</totfact>
</mgrwt>
</event>
<event>
 5   1  0.1388354E+00  0.9198611E+02  0.7818608E-02  0.1298112E+00
          1   -1    0    0  501    0  0.00000000000E+00  0.00000000000E+00  0.11956993154E+02  0.11956994065E+02  0.46700000000E-02 0. -1.
         -1   -1    0    0    0  501 -0.00000000000E+00 -0.00000000000E+00 -0.17691412011E+03  0.17691412018E+03  0.46700000000E-02 0.  1.
         23    2    1    2    0    0  0.00000000000E+00  0.00000000000E+00 -0.16495712696E+03  0.18887111424E+03  0.91986107971E+02 0.  0.
        -13    1    3    3    0    0 -0.27974257738E+02  0.35260927094E+02 -0.63058424885E+02  0.77474306689E+02  0.10570000000E+00 0.  1.
         13    1    3    3    0    0  0.27974257738E+02 -0.35260927094E+02 -0.10189870208E+03  0.11139680755E+03  0.10570000000E+00 0. -1.
<mgrwt>
<rscale>  0 0.91986108E+02</rscale>
<asrwt>0</asrwt>
<pdfrwt beam="1">  1        1 0.18395376E-02 0.91986108E+02</pdfrwt>
<pdfrwt beam="2">  1       -1 0.27217555E-01 0.91986108E+02</pdfrwt>
<totfact> 0.70162608E+04</totfact>
</mgrwt>
</event>
<event>
 5   1  0.1388354E+00  0.9117206E+02  0.7818608E-02  0.1300038E+00
          1   -1    0    0  501    0  0.00000000000E+00  0.00000000000E+00  0.87980502768E+01  0.87980515162E+01  0.46700000000E-02 0. -1.
         -1   -1    0    0    0  501 -0.00000000000E+00 -0.00000000000E+00 -0.23619845491E+03  0.23619845496E+03  0.46700000000E-02 0.  1.
         23    2    1    2    0    0  0.00000000000E+00  0.00000000000E+00 -0.22740040464E+03  0.24499650648E+03  0.91172057981E+02 0.  0.
        -13    1    3    3    0    0 -0.33057159574E+02 -0.77393619457E+01 -0.19544557847E+03  0.19837252541E+03  0.10570000000E+00 0.  1.
         13    1    3    3    0    0  0.33057159574E+02  0.77393619457E+01 -0.31954826166E+02  0.46623981063E+02  0.10570000000E+00 0. -1.
<mgrwt>
<rscale>  0 0.91172058E+02</rscale>
<asrwt>0</asrwt>
<pdfrwt beam="1">  1        1 0.13535465E-02 0.91172058E+02</pdfrwt>
<pdfrwt beam="2">  1       -1 0.36338219E-01 0.91172058E+02</pdfrwt>
<totfact> 0.66004575E+04</totfact>
</mgrwt>
</event>
<event>
 5   1  0.1388354E+00  0.9253160E+02  0.7818608E-02  0.1296834E+00
          1   -1    0    0  501    0  0.00000000000E+00  0.00000000000E+00  0.20543375386E+03  0.20543375391E+03  0.46700000000E-02 0. -1.
         -1   -1    0    0    0  501 -0.00000000000E+00 -0.00000000000E+00 -0.10419533963E+02  0.10419535009E+02  0.46700000000E-02 0.  1.
         23    2    1    2    0    0  0.00000000000E+00  0.00000000000E+00  0.19501421990E+03  0.21585328892E+03  0.92531596639E+02 0.  0.
        -13    1    3    3    0    0 -0.30992694399E+02  0.31642098205E+02  0.12869483280E+03  0.13610341894E+03  0.10570000000E+00 0.  1.
         13    1    3    3    0    0  0.30992694399E+02 -0.31642098205E+02  0.66319387094E+02  0.79749869980E+02  0.10570000000E+00 0. -1.
<mgrwt>
<rscale>  0 0.92531597E+02</rscale>
<asrwt>0</asrwt>
<pdfrwt beam="1">  1        1 0.31605190E-01 0.92531597E+02</pdfrwt>
<pdfrwt beam="2">  1       -1 0.16030055E-02 0.92531597E+02</pdfrwt>
<totfact> 0.11440292E+05</totfact>
</mgrwt>
</event>
<event>
 5   1  0.1388354E+00  0.9062381E+02  0.7818608E-02  0.1301348E+00
         -1   -1    0    0    0  501 -0.00000000000E+00  0.00000000000E+00  0.13369849580E+02  0.13369850396E+02  0.46700000000E-02 0.  1.
          1   -1    0    0  501    0  0.00000000000E+00 -0.00000000000E+00 -0.15356708208E+03  0.15356708215E+03  0.46700000000E-02 0. -1.
         23    2    1    2    0    0  0.00000000000E+00  0.00000000000E+00 -0.14019723250E+03  0.16693693254E+03  0.90623812805E+02 0.  0.
        -13    1    3    3    0    0  0.23195541990E+02  0.33170792247E+02 -0.10761677751E+03  0.11497702640E+03  0.10570000000E+00 0. -1.
         13    1    3    3    0    0 -0.23195541990E+02 -0.33170792247E+02 -0.32580454989E+02  0.51959906142E+02  0.10570000000E+00 0.  1.
<mgrwt>
<rscale>  0 0.90623813E+02</rscale>
<asrwt>0</asrwt>
<pdfrwt beam="2">  1        1 0.23625704E-01 0.90623813E+02</pdfrwt>
<pdfrwt beam="1">  1       -1 0.20569001E-02 0.90623813E+02</pdfrwt>
<totfact> 0.11448072E+05</totfact>
</mgrwt>
</event>
<event>
 5   1  0.1388354E+00  0.9245347E+02  0.7818608E-02  0.1297017E+00
          1   -1    0    0  501    0  0.00000000000E+00  0.00000000000E+00  0.22499470418E+03  0.22499470422E+03  0.46700000000E-02 0. -1.
         -1   -1    0    0    0  501 -0.00000000000E+00 -0.00000000000E+00 -0.94976042770E+01  0.94976054251E+01  0.46700000000E-02 0.  1.
         23    2    1    2    0    0  0.00000000000E+00  0.00000000000E+00  0.21549709990E+03  0.23449230965E+03  0.92453465159E+02 0.  0.
        -13    1    3    3    0    0 -0.78189895468E+01  0.31889706219E+02  0.25218071837E+02  0.41401114477E+02  0.10570000000E+00 0.  1.
         13    1    3    3    0    0  0.78189895468E+01 -0.31889706219E+02  0.19027902806E+03  0.19309119517E+03  0.10570000000E+00 0. -1.
<mgrwt>
<rscale>  0 0.92453465E+02</rscale>
<asrwt>0</asrwt>
<pdfrwt beam="1">  1        1 0.34614571E-01 0.92453465E+02</pdfrwt>
<pdfrwt beam="2">  1       -1 0.14611699E-02 0.92453465E+02</pdfrwt>
<totfact> 0.11672109E+05</totfact>
</mgrwt>
</event>
<event>
 5   1  0.1388354E+00  0.8832942E+02  0.7818608E-02  0.1306948E+00
         -1   -1    0    0    0  501 -0.00000000000E+00  0.00000000000E+00  0.46455198617E+02  0.46455198852E+02  0.46700000000E-02 0.  1.
          1   -1    0    0  501    0  0.00000000000E+00 -0.00000000000E+00 -0.41987153108E+02  0.41987153367E+02  0.46700000000E-02 0. -1.
         23    2    1    2    0    0  0.00000000000E+00  0.00000000000E+00  0.44680455092E+01  0.88442352219E+02  0.88329418855E+02 0.  0.
        -13    1    3    3    0    0 -0.27459625655E+02  0.27383039318E+02 -0.18927058404E+02  0.43152133154E+02  0.10570000000E+00 0. -1.
         13    1    3    3    0    0  0.27459625655E+02 -0.27383039318E+02  0.23395103913E+02  0.45290219065E+02  0.10570000000E+00 0.  1.
<mgrwt>
<rscale>  0 0.88329419E+02</rscale>
<asrwt>0</asrwt>
<pdfrwt beam="2">  1        1 0.64595621E-02 0.88329419E+02</pdfrwt>
<pdfrwt beam="1">  1       -1 0.71469537E-02 0.88329419E+02</pdfrwt>
<totfact> 0.99842965E+04</totfact>
</mgrwt>
</event>
<event>
 5   1  0.1388354E+00  0.8817062E+02  0.7818608E-02  0.1307343E+00
          1   -1    0    0  501    0  0.00000000000E+00  0.00000000000E+00  0.32602119312E+03  0.32602119315E+03  0.46700000000E-02 0. -1.
         -1   -1    0    0    0  501 -0.00000000000E+00 -0.00000000000E+00 -0.59613128459E+01  0.59613146751E+01  0.46700000000E-02 0.  1.
         23    2    1    2    0    0  0.00000000000E+00  0.00000000000E+00  0.32005988027E+03  0.33198250783E+03  0.88170621768E+02 0.  0.
        -13    1    3    3    0    0 -0.42459739422E+02  0.33916543081E+01  0.20282299182E+03  0.20724746072E+03  0.10570000000E+00 0.  1.
         13    1    3    3    0    0  0.42459739422E+02 -0.33916543081E+01  0.11723688845E+03  0.12473504710E+03  0.10570000000E+00 0. -1.
<mgrwt>
<rscale>  0 0.88170622E+02</rscale>
<asrwt>0</asrwt>
<pdfrwt beam="1">  1        1 0.50157101E-01 0.88170622E+02</pdfrwt>
<pdfrwt beam="2">  1       -1 0.91712531E-03 0.88170622E+02</pdfrwt>
<totfact> 0.14226008E+05</totfact>
</mgrwt>
</event>
<event>
 5   1  0.1388354E+00  0.9075572E+02  0.7818608E-02  0.1301032E+00
         -1   -1    0    0    0  501 -0.00000000000E+00  0.00000000000E+00  0.21429115957E+02  0.21429116465E+02  0.46700000000E-02 0.  1.
          1   -1    0    0  501    0  0.00000000000E+00 -0.00000000000E+00 -0.96091238608E+02  0.96091238722E+02  0.46700000000E-02 0. -1.
         23    2    1    2    0    0  0.00000000000E+00  0.00000000000E+00 -0.74662122652E+02  0.11752035519E+03  0.90755723370E+02 0.  0.
        -13    1    3    3    0    0  0.15415268616E+02  0.42553910203E+02 -0.33100577591E+02  0.56072499404E+02  0.10570000000E+00 0.  1.
         13    1    3    3    0    0 -0.15415268616E+02 -0.42553910203E+02 -0.41561545060E+02  0.61447855783E+02  0.10570000000E+00 0. -1.
<mgrwt>
<rscale>  0 0.90755723E+02</rscale>
<asrwt>0</asrwt>
<pdfrwt beam="2">  1        1 0.14783267E-01 0.90755723E+02</pdfrwt>
<pdfrwt beam="1">  1       -1 0.32967872E-02 0.90755723E+02</pdfrwt>
<totfact> 0.10508343E+05</totfact>
</mgrwt>
</event>
<event>
 5   1  0.1388354E+00  0.9299915E+02  0.7818608E-02  0.1295747E+00
          1   -1    0    0  501    0  0.00000000000E+00  0.00000000000E+00  0.49353719711E+02  0.49353719932E+02  0.46700000000E-02 0. -1.
         -1   -1    0    0    0  501 -0.00000000000E+00 -0.00000000000E+00 -0.43810483453E+02  0.43810483702E+02  0.46700000000E-02 0.  1.
         23    2    1    2    0    0  0.00000000000E+00  0.00000000000E+00  0.55432362575E+01  0.93164203634E+02  0.92999147150E+02 0.  0.
        -13    1    3    3    0    0  0.41811280972E+02  0.20416146727E+01 -0.17509009670E+02  0.45375411834E+02  0.10570000000E+00 0.  1.
         13    1    3    3    0    0 -0.41811280972E+02 -0.20416146727E+01  0.23052245927E+02  0.47788791801E+02  0.10570000000E+00 0. -1.
<mgrwt>
<rscale>  0 0.92999147E+02</rscale>
<asrwt>0</asrwt>
<pdfrwt beam="1">  1        1 0.75928799E-02 0.92999147E+02</pdfrwt>
<pdfrwt beam="2">  1       -1 0.67400745E-02 0.92999147E+02</pdfrwt>
<totfact> 0.88529786E+04</totfact>
</mgrwt>
</event>
<event>
 5   1  0.1388354E+00  0.9318755E+02  0.7818608E-02  0.1295311E+00
         -1   -1    0    0    0  501 -0.00000000000E+00  0.00000000000E+00  0.13005267062E+02  0.13005267900E+02  0.46700000000E-02 0.  1.
          1   -1    0    0  501    0  0.00000000000E+00 -0.00000000000E+00 -0.16693081816E+03  0.16693081822E+03  0.46700000000E-02 0. -1.
         23    2    1    2    0    0  0.00000000000E+00  0.00000000000E+00 -0.15392555110E+03  0.17993608612E+03  0.93187551793E+02 0.  0.
        -13    1    3    3    0    0  0.11539162986E+02  0.43308121223E+02 -0.52369478210E+02  0.68929812612E+02  0.10570000000E+00 0.  1.
         13    1    3    3    0    0 -0.11539162986E+02 -0.43308121223E+02 -0.10155607289E+03  0.11100627351E+03  0.10570000000E+00 0. -1.
<mgrwt>
<rscale>  0 0.93187552E+02</rscale>
<asrwt>0</asrwt>
<pdfrwt beam="2">  1        1 0.25681663E-01 0.93187552E+02</pdfrwt>
<pdfrwt beam="1">  1       -1 0.20008105E-02 0.93187552E+02</pdfrwt>
<totfact> 0.10784867E+05</totfact>
</mgrwt>
</event>
<event>
 5   1  0.1388354E+00  0.9257474E+02  0.7818608E-02  0.1296734E+00
          1   -1    0    0  501    0  0.00000000000E+00  0.00000000000E+00  0.31215413271E+02  0.31215413620E+02  0.46700000000E-02 0. -1.
         -1   -1    0    0    0  501 -0.00000000000E+00 -0.00000000000E+00 -0.68636625035E+02  0.68636625194E+02  0.46700000000E-02 0.  1.
         23    2    1    2    0    0  0.00000000000E+00  0.00000000000E+00 -0.37421211764E+02  0.99852038814E+02  0.92574740429E+02 0.  0.
        -13    1    3    3    0    0  0.70418402914E+01 -0.13379532761E+02 -0.65897913262E+02  0.67610247421E+02  0.10570000000E+00 0.  1.
         13    1    3    3    0    0 -0.70418402914E+01  0.13379532761E+02  0.28476701497E+02  0.32241791393E+02  0.10570000000E+00 0. -1.
<mgrwt>
<rscale>  0 0.92574740E+02</rscale>
<asrwt>0</asrwt>
<pdfrwt beam="1">  1        1 0.48023713E-02 0.92574740E+02</pdfrwt>
<pdfrwt beam="2">  1       -1 0.10559481E-01 0.92574740E+02</pdfrwt>
<totfact> 0.83509761E+04</totfact>
</mgrwt>
</event>
<event>
 5   1  0.1388354E+00  0.9400098E+02  0.7818608E-02  0.1293442E+00
          1   -1    0    0  501    0  0.00000000000E+00  0.00000000000E+00  0.15455400102E+03  0.15455400109E+03  0.46700000000E-02 0. -1.
         -1   -1    0    0    0  501 -0.00000000000E+00 -0.00000000000E+00 -0.14293037784E+02  0.14293038547E+02  0.46700000000E-02 0.  1.
         23    2    1    2    0    0  0.00000000000E+00  0.00000000000E+00  0.14026096324E+03  0.16884703964E+03  0.94000983966E+02 0.  0.
        -13    1    3    3    0    0 -0.97024546135E+01 -0.33079552755E+02  0.12745601440E+02  0.36753992499E+02  0.10570000000E+00 0.  1.
         13    1    3    3    0    0  0.97024546135E+01  0.33079552755E+02  0.12751536180E+03  0.13209304714E+03  0.10570000000E+00 0. -1.
<mgrwt>
<rscale>  0 0.94000984E+02</rscale>
<asrwt>0</asrwt>
<pdfrwt beam="1">  1        1 0.23777538E-01 0.94000984E+02</pdfrwt>
<pdfrwt beam="2">  1       -1 0.21989290E-02 0.94000984E+02</pdfrwt>
<totfact> 0.10382926E+05</totfact>
</mgrwt>
</event>
<event>
 5   1  0.1388354E+00  0.9039461E+02  0.7818608E-02  0.1301899E+00
          1   -1    0    0  501    0  0.00000000000E+00  0.00000000000E+00  0.12662132385E+03  0.12662132393E+03  0.46700000000E-02 0. -1.
         -1   -1    0    0    0  501 -0.00000000000E+00 -0.00000000000E+00 -0.16133114202E+02  0.16133114878E+02  0.46700000000E-02 0.  1.
         23    2    1    2    0    0  0.00000000000E+00  0.00000000000E+00  0.11048820964E+03  0.14275443881E+03  0.90394608963E+02 0.  0.
        -13    1    3    3    0    0 -0.20565465237E+02 -0.37751301604E+02  0.33209032434E+02  0.54322648508E+02  0.10570000000E+00 0.  1.
         13    1    3    3    0    0  0.20565465237E+02  0.37751301604E+02  0.77279177211E+02  0.88431790303E+02  0.10570000000E+00 0. -1.
<mgrwt>
<rscale>  0 0.90394609E+02</rscale>
<asrwt>0</asrwt>
<pdfrwt beam="1">  1        1 0.19480203E-01 0.90394609E+02</pdfrwt>
<pdfrwt beam="2">  1       -1 0.24820177E-02 0.90394609E+02</pdfrwt>
<totfact> 0.11132330E+05</totfact>
</mgrwt>
</event>
<event>
 5   1  0.1388354E+00  0.7956479E+02  0.7818608E-02  0.1330291E+00
         -1   -1    0    0    0  501 -0.00000000000E+00  0.00000000000E+00  0.13902067410E+03  0.13902067418E+03  0.46700000000E-02 0. -1.
          1   -1    0    0  501    0  0.00000000000E+00 -0.00000000000E+00 -0.11384197442E+02  0.11384198400E+02  0.46700000000E-02 0.  1.
         23    2    1    2    0    0  0.00000000000E+00  0.00000000000E+00  0.12763647666E+03  0.15040487258E+03  0.79564788200E+02 0.  0.
        -13    1    3    3    0    0  0.26881936017E+02  0.94819587414E+01  0.11360520637E+02  0.30685804979E+02  0.10570000000E+00 0.  1.
         13    1    3    3    0    0 -0.26881936017E+02 -0.94819587414E+01  0.11627595602E+03  0.11971906760E+03  0.10570000000E+00 0. -1.
<mgrwt>
<rscale>  0 0.79564788E+02</rscale>
<asrwt>0</asrwt>
<pdfrwt beam="2">  1        1 0.17514152E-02 0.79564788E+02</pdfrwt>
<pdfrwt beam="1">  1       -1 0.21387795E-01 0.79564788E+02</pdfrwt>
<totfact> 0.10817746E+05</totfact>
</mgrwt>
</event>
<event>
 5   1  0.1388354E+00  0.9372695E+02  0.7818608E-02  0.1294069E+00
          1   -1    0    0  501    0  0.00000000000E+00  0.00000000000E+00  0.16796703042E+03  0.16796703048E+03  0.46700000000E-02 0. -1.
         -1   -1    0    0    0  501 -0.00000000000E+00 -0.00000000000E+00 -0.13075095777E+02  0.13075096611E+02  0.46700000000E-02 0.  1.
         23    2    1    2    0    0  0.00000000000E+00  0.00000000000E+00  0.15489193464E+03  0.18104212709E+03  0.93726945781E+02 0.  0.
        -13    1    3    3    0    0 -0.78859412765E+01 -0.27563392562E+02  0.58403160680E+01  0.29258317511E+02  0.10570000000E+00 0.  1.
         13    1    3    3    0    0  0.78859412765E+01  0.27563392562E+02  0.14905161857E+03  0.15178380958E+03  0.10570000000E+00 0. -1.
<mgrwt>
<rscale>  0 0.93726946E+02</rscale>
<asrwt>0</asrwt>
<pdfrwt beam="1">  1        1 0.25841082E-01 0.93726946E+02</pdfrwt>
<pdfrwt beam="2">  1       -1 0.20115532E-02 0.93726946E+02</pdfrwt>
<totfact> 0.10630505E+05</totfact>
</mgrwt>
</event>
<event>
 5   1  0.1388354E+00  0.9072228E+02  0.7818608E-02  0.1301112E+00
          1   -1    0    0  501    0  0.00000000000E+00  0.00000000000E+00  0.37594473936E+02  0.37594474226E+02  0.46700000000E-02 0.  1.
         -1   -1    0    0    0  501 -0.00000000000E+00 -0.00000000000E+00 -0.54732329390E+02  0.54732329589E+02  0.46700000000E-02 0. -1.
         23    2    1    2    0    0  0.00000000000E+00  0.00000000000E+00 -0.17137855454E+02  0.92326803814E+02  0.90722282891E+02 0.  0.
        -13    1    3    3    0    0  0.44637117344E+02  0.59036745418E+01 -0.14170488840E+02  0.47203173032E+02  0.10570000000E+00 0. -1.
         13    1    3    3    0    0 -0.44637117344E+02 -0.59036745418E+01 -0.29673666138E+01  0.45123630782E+02  0.10570000000E+00 0.  1.
<mgrwt>
<rscale>  0 0.90722283E+02</rscale>
<asrwt>0</asrwt>
<pdfrwt beam="1">  1        1 0.57837653E-02 0.90722283E+02</pdfrwt>
<pdfrwt beam="2">  1       -1 0.84203584E-02 0.90722283E+02</pdfrwt>
<totfact> 0.91089482E+04</totfact>
</mgrwt>
</event>
<event>
 5   1  0.1388354E+00  0.7715474E+02  0.7818608E-02  0.1337325E+00
          1   -1    0    0  501    0  0.00000000000E+00  0.00000000000E+00  0.37611843245E+02  0.37611843535E+02  0.46700000000E-02 0. -1.
         -1   -1    0    0    0  501 -0.00000000000E+00 -0.00000000000E+00 -0.39567682399E+02  0.39567682674E+02  0.46700000000E-02 0.  1.
         23    2    1    2    0    0  0.00000000000E+00  0.00000000000E+00 -0.19558391541E+01  0.77179526209E+02  0.77154740354E+02 0.  0.
        -13    1    3    3    0    0  0.38184102056E+02  0.39904604655E+01 -0.47544327313E+01  0.38685465328E+02  0.10570000000E+00 0. -1.
         13    1    3    3    0    0 -0.38184102056E+02 -0.39904604655E+01  0.27985935772E+01  0.38494060881E+02  0.10570000000E+00 0.  1.
<mgrwt>
<rscale>  0 0.77154740E+02</rscale>
<asrwt>0</asrwt>
<pdfrwt beam="1">  1        1 0.57864374E-02 0.77154740E+02</pdfrwt>
<pdfrwt beam="2">  1       -1 0.60873358E-02 0.77154740E+02</pdfrwt>
<totfact> 0.14317259E+05</totfact>
</mgrwt>
</event>
<event>
 5   1  0.1388354E+00  0.9081029E+02  0.7818608E-02  0.1300901E+00
         -1   -1    0    0    0  501 -0.00000000000E+00  0.00000000000E+00  0.44830050788E+03  0.44830050791E+03  0.46700000000E-02 0.  1.
          1   -1    0    0  501    0  0.00000000000E+00 -0.00000000000E+00 -0.45987609122E+01  0.45987632833E+01  0.46700000000E-02 0. -1.
         23    2    1    2    0    0  0.00000000000E+00  0.00000000000E+00  0.44370174697E+03  0.45289927119E+03  0.90810294461E+02 0.  0.
        -13    1    3    3    0    0 -0.38764061567E+02  0.23494655355E+02  0.20868878819E+03  0.21355484726E+03  0.10570000000E+00 0.  1.
         13    1    3    3    0    0  0.38764061567E+02 -0.23494655355E+02  0.23501295878E+03  0.23934442393E+03  0.10570000000E+00 0. -1.
<mgrwt>
<rscale>  0 0.90810294E+02</rscale>
<asrwt>0</asrwt>
<pdfrwt beam="2">  1        1 0.70750171E-03 0.90810294E+02</pdfrwt>
<pdfrwt beam="1">  1       -1 0.68969324E-01 0.90810294E+02</pdfrwt>
<totfact> 0.50689169E+04</totfact>
</mgrwt>
</event>
<event>
 5   1  0.1388354E+00  0.9252841E+02  0.7818608E-02  0.1296842E+00
          1   -1    0    0  501    0  0.00000000000E+00  0.00000000000E+00  0.23272388974E+02  0.23272389443E+02  0.46700000000E-02 0. -1.
         -1   -1    0    0    0  501 -0.00000000000E+00 -0.00000000000E+00 -0.91970652109E+02  0.91970652228E+02  0.46700000000E-02 0.  1.
         23    2    1    2    0    0  0.00000000000E+00  0.00000000000E+00 -0.68698263136E+02  0.11524304167E+03  0.92528413450E+02 0.  0.
        -13    1    3    3    0    0  0.11418714632E+01  0.44776648494E+02 -0.19925457680E+02  0.49023332782E+02  0.10570000000E+00 0.  1.
         13    1    3    3    0    0 -0.11418714632E+01 -0.44776648494E+02 -0.48772805455E+02  0.66219708889E+02  0.10570000000E+00 0. -1.
<mgrwt>
<rscale>  0 0.92528413E+02</rscale>
<asrwt>0</asrwt>
<pdfrwt beam="1">  1        1 0.35803676E-02 0.92528413E+02</pdfrwt>
<pdfrwt beam="2">  1       -1 0.14149331E-01 0.92528413E+02</pdfrwt>
<totfact> 0.79552982E+04</totfact>
</mgrwt>
</event>
<event>
 5   1  0.1388354E+00  0.8843450E+02  0.7818608E-02  0.1306688E+00
          1   -1    0    0  501    0  0.00000000000E+00  0.00000000000E+00  0.41440412284E+02  0.41440412547E+02  0.46700000000E-02 0. -1.
         -1   -1    0    0    0  501 -0.00000000000E+00 -0.00000000000E+00 -0.47180160490E+02  0.47180160721E+02  0.46700000000E-02 0.  1.
         23    2    1    2    0    0  0.00000000000E+00  0.00000000000E+00 -0.57397482059E+01  0.88620573268E+02  0.88434502865E+02 0.  0.
        -13    1    3    3    0    0  0.23334302754E+02  0.64505787444E+01  0.34208713695E+02  0.41908792828E+02  0.10570000000E+00 0.  1.
         13    1    3    3    0    0 -0.23334302754E+02 -0.64505787444E+01 -0.39948461901E+02  0.46711780440E+02  0.10570000000E+00 0. -1.
<mgrwt>
<rscale>  0 0.88434503E+02</rscale>
<asrwt>0</asrwt>
<pdfrwt beam="1">  1        1 0.63754481E-02 0.88434503E+02</pdfrwt>
<pdfrwt beam="2">  1       -1 0.72584863E-02 0.88434503E+02</pdfrwt>
<totfact> 0.99319290E+04</totfact>
</mgrwt>
</event>
<event>
 5   1  0.1388354E+00  0.8820474E+02  0.7818608E-02  0.1307258E+00
          1   -1    0    0  501    0  0.00000000000E+00  0.00000000000E+00  0.28918211720E+03  0.28918211724E+03  0.46700000000E-02 0. -1.
         -1   -1    0    0    0  501 -0.00000000000E+00 -0.00000000000E+00 -0.67259298342E+01  0.67259314554E+01  0.46700000000E-02 0.  1.
         23    2    1    2    0    0  0.00000000000E+00  0.00000000000E+00  0.28245618737E+03  0.29590804869E+03  0.88204736268E+02 0.  0.
        -13    1    3    3    0    0 -0.65510775707E+00  0.42258198704E+02  0.98949375266E+02  0.10759727953E+03  0.10570000000E+00 0.  1.
         13    1    3    3    0    0  0.65510775707E+00 -0.42258198704E+02  0.18350681210E+03  0.18831076917E+03  0.10570000000E+00 0. -1.
<mgrwt>
<rscale>  0 0.88204736E+02</rscale>
<asrwt>0</asrwt>
<pdfrwt beam="1">  1        1 0.44489552E-01 0.88204736E+02</pdfrwt>
<pdfrwt beam="2">  1       -1 0.10347587E-02 0.88204736E+02</pdfrwt>
<totfact> 0.13894716E+05</totfact>
</mgrwt>
</event>
<event>
 5   1  0.1388354E+00  0.8946711E+02  0.7818608E-02  0.1304147E+00
         -1   -1    0    0    0  501 -0.00000000000E+00  0.00000000000E+00  0.34811045855E+02  0.34811046168E+02  0.46700000000E-02 0.  1.
          1   -1    0    0  501    0  0.00000000000E+00 -0.00000000000E+00 -0.57484371256E+02  0.57484371445E+02  0.46700000000E-02 0. -1.
         23    2    1    2    0    0  0.00000000000E+00  0.00000000000E+00 -0.22673325401E+02  0.92295417614E+02  0.89467113666E+02 0.  0.
        -13    1    3    3    0    0 -0.17982767374E+02  0.73360144611E+01  0.30234681486E+02  0.35935277481E+02  0.10570000000E+00 0.  1.
         13    1    3    3    0    0  0.17982767374E+02 -0.73360144611E+01 -0.52908006886E+02  0.56360140133E+02  0.10570000000E+00 0. -1.
<mgrwt>
<rscale>  0 0.89467114E+02</rscale>
<asrwt>0</asrwt>
<pdfrwt beam="2">  1        1 0.88437494E-02 0.89467114E+02</pdfrwt>
<pdfrwt beam="1">  1       -1 0.53555456E-02 0.89467114E+02</pdfrwt>
<totfact> 0.10090870E+05</totfact>
</mgrwt>
</event>
<event>
 5   1  0.1388354E+00  0.9097565E+02  0.7818608E-02  0.1300506E+00
          1   -1    0    0  501    0  0.00000000000E+00  0.00000000000E+00  0.51532613300E+02  0.51532613512E+02  0.46700000000E-02 0. -1.
         -1   -1    0    0    0  501 -0.00000000000E+00 -0.00000000000E+00 -0.40152093716E+02  0.40152093987E+02  0.46700000000E-02 0.  1.
         23    2    1    2    0    0  0.00000000000E+00  0.00000000000E+00  0.11380519585E+02  0.91684707499E+02  0.90975652585E+02 0.  0.
        -13    1    3    3    0    0 -0.43743342967E+02  0.11815521698E+02  0.16534745221E+01  0.45341280942E+02  0.10570000000E+00 0. -1.
         13    1    3    3    0    0  0.43743342967E+02 -0.11815521698E+02  0.97270450625E+01  0.46343426558E+02  0.10570000000E+00 0.  1.
<mgrwt>
<rscale>  0 0.90975653E+02</rscale>
<asrwt>0</asrwt>
<pdfrwt beam="1">  1        1 0.79280944E-02 0.90975653E+02</pdfrwt>
<pdfrwt beam="2">  1       -1 0.61772452E-02 0.90975653E+02</pdfrwt>
<totfact> 0.94772592E+04</totfact>
</mgrwt>
</event>
<event>
 5   1  0.1388354E+00  0.9020547E+02  0.7818608E-02  0.1302355E+00
         -1   -1    0    0    0  501 -0.00000000000E+00  0.00000000000E+00  0.61567915092E+02  0.61567915269E+02  0.46700000000E-02 0.  1.
          1   -1    0    0  501    0  0.00000000000E+00 -0.00000000000E+00 -0.33040859510E+02  0.33040859840E+02  0.46700000000E-02 0. -1.
         23    2    1    2    0    0  0.00000000000E+00  0.00000000000E+00  0.28527055582E+02  0.94608775109E+02  0.90205473379E+02 0.  0.
        -13    1    3    3    0    0  0.47357751226E+00 -0.27925704925E+02 -0.22879546268E+02  0.36104765353E+02  0.10570000000E+00 0. -1.
         13    1    3    3    0    0 -0.47357751226E+00  0.27925704925E+02  0.51406601851E+02  0.58504009757E+02  0.10570000000E+00 0.  1.
<mgrwt>
<rscale>  0 0.90205473E+02</rscale>
<asrwt>0</asrwt>
<pdfrwt beam="2">  1        1 0.50832093E-02 0.90205473E+02</pdfrwt>
<pdfrwt beam="1">  1       -1 0.94719868E-02 0.90205473E+02</pdfrwt>
<totfact> 0.90755747E+04</totfact>
</mgrwt>
</event>
<event>
 5   1  0.1388354E+00  0.9192454E+02  0.7818608E-02  0.1298257E+00
         -1   -1    0    0    0  501 -0.00000000000E+00  0.00000000000E+00  0.14777296906E+02  0.14777297643E+02  0.46700000000E-02 0.  1.
          1   -1    0    0  501    0  0.00000000000E+00 -0.00000000000E+00 -0.14295781514E+03  0.14295781522E+03  0.46700000000E-02 0. -1.
         23    2    1    2    0    0  0.00000000000E+00  0.00000000000E+00 -0.12818051824E+03  0.15773511286E+03  0.91924537389E+02 0.  0.
        -13    1    3    3    0    0 -0.34810380977E+02  0.17073227963E+02 -0.10644467541E+03  0.11328608843E+03  0.10570000000E+00 0. -1.
         13    1    3    3    0    0  0.34810380977E+02 -0.17073227963E+02 -0.21735842828E+02  0.44449024430E+02  0.10570000000E+00 0.  1.
<mgrwt>
<rscale>  0 0.91924537E+02</rscale>
<asrwt>0</asrwt>
<pdfrwt beam="2">  1        1 0.21993509E-01 0.91924537E+02</pdfrwt>
<pdfrwt beam="1">  1       -1 0.22734305E-02 0.91924537E+02</pdfrwt>
<totfact> 0.10872288E+05</totfact>
</mgrwt>
</event>
<event>
 5   1  0.1388354E+00  0.9365883E+02  0.7818608E-02  0.1294226E+00
         -1   -1    0    0    0  501 -0.00000000000E+00  0.00000000000E+00  0.16796108079E+03  0.16796108086E+03  0.46700000000E-02 0.  1.
          1   -1    0    0  501    0  0.00000000000E+00 -0.00000000000E+00 -0.13056561263E+02  0.13056562098E+02  0.46700000000E-02 0. -1.
         23    2    1    2    0    0  0.00000000000E+00  0.00000000000E+00  0.15490451953E+03  0.18101764295E+03  0.93658832421E+02 0.  0.
        -13    1    3    3    0    0 -0.28577061695E+02  0.39442065941E+01  0.61561590013E+01  0.29497706468E+02  0.10570000000E+00 0. -1.
         13    1    3    3    0    0  0.28577061695E+02 -0.39442065941E+01  0.14874836053E+03  0.15151993649E+03  0.10570000000E+00 0.  1.
<mgrwt>
<rscale>  0 0.93658832E+02</rscale>
<asrwt>0</asrwt>
<pdfrwt beam="2">  1        1 0.20087019E-02 0.93658832E+02</pdfrwt>
<pdfrwt beam="1">  1       -1 0.25840165E-01 0.93658832E+02</pdfrwt>
<totfact> 0.67846476E+04</totfact>
</mgrwt>
</event>
<event>
 5   1  0.1388354E+00  0.9152720E+02  0.7818608E-02  0.1299195E+00
         -1   -1    0    0    0  501 -0.00000000000E+00  0.00000000000E+00  0.18647947602E+03  0.18647947608E+03  0.46700000000E-02 0.  1.
          1   -1    0    0  501    0  0.00000000000E+00 -0.00000000000E+00 -0.11230764578E+02  0.11230765548E+02  0.46700000000E-02 0. -1.
         23    2    1    2    0    0  0.00000000000E+00  0.00000000000E+00  0.17524871144E+03  0.19771024162E+03  0.91527202415E+02 0.  0.
        -13    1    3    3    0    0 -0.25222247882E+02 -0.37910223143E+02  0.97511317736E+02  0.10761884159E+03  0.10570000000E+00 0. -1.
         13    1    3    3    0    0  0.25222247882E+02  0.37910223143E+02  0.77737393704E+02  0.90091400030E+02  0.10570000000E+00 0.  1.
<mgrwt>
<rscale>  0 0.91527202E+02</rscale>
<asrwt>0</asrwt>
<pdfrwt beam="2">  1        1 0.17278102E-02 0.91527202E+02</pdfrwt>
<pdfrwt beam="1">  1       -1 0.28689148E-01 0.91527202E+02</pdfrwt>
<totfact> 0.70089527E+04</totfact>
</mgrwt>
</event>
<event>
 5   1  0.1388354E+00  0.8475568E+02  0.7818608E-02  0.1316073E+00
          1   -1    0    0  501    0  0.00000000000E+00  0.00000000000E+00  0.24207719714E+03  0.24207719718E+03  0.46700000000E-02 0. -1.
         -1   -1    0    0    0  501 -0.00000000000E+00 -0.00000000000E+00 -0.74186297301E+01  0.74186312000E+01  0.46700000000E-02 0.  1.
         23    2    1    2    0    0  0.00000000000E+00  0.00000000000E+00  0.23465856741E+03  0.24949582838E+03  0.84755678999E+02 0.  0.
        -13    1    3    3    0    0 -0.29181439326E+02 -0.30355013075E+02  0.10324652118E+03  0.11150263911E+03  0.10570000000E+00 0.  1.
         13    1    3    3    0    0  0.29181439326E+02  0.30355013075E+02  0.13141204622E+03  0.13799318927E+03  0.10570000000E+00 0. -1.
<mgrwt>
<rscale>  0 0.84755679E+02</rscale>
<asrwt>0</asrwt>
<pdfrwt beam="1">  1        1 0.37242645E-01 0.84755679E+02</pdfrwt>
<pdfrwt beam="2">  1       -1 0.11413278E-02 0.84755679E+02</pdfrwt>
<totfact> 0.14925766E+05</totfact>
</mgrwt>
</event>
<event>
 5   1  0.1388354E+00  0.9103747E+02  0.7818608E-02  0.1300359E+00
         -1   -1    0    0    0  501 -0.00000000000E+00  0.00000000000E+00  0.30834945227E+02  0.30834945580E+02  0.46700000000E-02 0.  1.
          1   -1    0    0  501    0  0.00000000000E+00 -0.00000000000E+00 -0.67195040924E+02  0.67195041087E+02  0.46700000000E-02 0. -1.
         23    2    1    2    0    0  0.00000000000E+00  0.00000000000E+00 -0.36360095698E+02  0.98029986667E+02  0.91037474299E+02 0.  0.
        -13    1    3    3    0    0 -0.23980896654E+02  0.11742936296E+02 -0.57875684119E+02  0.63738418100E+02  0.10570000000E+00 0. -1.
         13    1    3    3    0    0  0.23980896654E+02 -0.11742936296E+02  0.21515588422E+02  0.34291568567E+02  0.10570000000E+00 0.  1.
<mgrwt>
<rscale>  0 0.91037474E+02</rscale>
<asrwt>0</asrwt>
<pdfrwt beam="2">  1        1 0.10337699E-01 0.91037474E+02</pdfrwt>
<pdfrwt beam="1">  1       -1 0.47438378E-02 0.91037474E+02</pdfrwt>
<totfact> 0.98463548E+04</totfact>
</mgrwt>
</event>
<event>
 5   1  0.1388354E+00  0.8956135E+02  0.7818608E-02  0.1303917E+00
          1   -1    0    0  501    0  0.00000000000E+00  0.00000000000E+00  0.15361308772E+03  0.15361308779E+03  0.46700000000E-02 0. -1.
         -1   -1    0    0    0  501 -0.00000000000E+00 -0.00000000000E+00 -0.13054283469E+02  0.13054284304E+02  0.46700000000E-02 0.  1.
         23    2    1    2    0    0  0.00000000000E+00  0.00000000000E+00  0.14055880425E+03  0.16666737209E+03  0.89561350304E+02 0.  0.
        -13    1    3    3    0    0 -0.41449526828E+02  0.16604755094E+02  0.63964149174E+02  0.78007722169E+02  0.10570000000E+00 0.  1.
         13    1    3    3    0    0  0.41449526828E+02 -0.16604755094E+02  0.76594655073E+02  0.88659649921E+02  0.10570000000E+00 0. -1.
<mgrwt>
<rscale>  0 0.89561350E+02</rscale>
<asrwt>0</asrwt>
<pdfrwt beam="1">  1        1 0.23632783E-01 0.89561350E+02</pdfrwt>
<pdfrwt beam="2">  1       -1 0.20083513E-02 0.89561350E+02</pdfrwt>
<totfact> 0.11817767E+05</totfact>
</mgrwt>
</event>
<event>
 5   1  0.1388354E+00  0.9370447E+02  0.7818608E-02  0.1294121E+00
          1   -1    0    0  501    0  0.00000000000E+00  0.00000000000E+00  0.16720845091E+02  0.16720845744E+02  0.46700000000E-02 0. -1.
         -1   -1    0    0    0  501 -0.00000000000E+00 -0.00000000000E+00 -0.13128115491E+03  0.13128115499E+03  0.46700000000E-02 0.  1.
         23    2    1    2    0    0  0.00000000000E+00  0.00000000000E+00 -0.11456030982E+03  0.14800200074E+03  0.93704469671E+02 0.  0.
        -13    1    3    3    0    0  0.25770232281E+02  0.38850396413E+02 -0.49928887819E+02  0.68310783809E+02  0.10570000000E+00 0.  1.
         13    1    3    3    0    0 -0.25770232281E+02 -0.38850396413E+02 -0.64631422001E+02  0.79691216929E+02  0.10570000000E+00 0. -1.
<mgrwt>
<rscale>  0 0.93704470E+02</rscale>
<asrwt>0</asrwt>
<pdfrwt beam="1">  1        1 0.25724379E-02 0.93704470E+02</pdfrwt>
<pdfrwt beam="2">  1       -1 0.20197100E-01 0.93704470E+02</pdfrwt>
<totfact> 0.71786279E+04</totfact>
</mgrwt>
</event>
<event>
 5   1  0.1388354E+00  0.8908182E+02  0.7818608E-02  0.1305091E+00
          1   -1    0    0  501    0  0.00000000000E+00  0.00000000000E+00  0.57080870607E+02  0.57080870798E+02  0.46700000000E-02 0. -1.
         -1   -1    0    0    0  501 -0.00000000000E+00 -0.00000000000E+00 -0.34755820492E+02  0.34755820805E+02  0.46700000000E-02 0.  1.
         23    2    1    2    0    0  0.00000000000E+00  0.00000000000E+00  0.22325050115E+02  0.91836691603E+02  0.89081816674E+02 0.  0.
        -13    1    3    3    0    0 -0.18232767682E+02 -0.40618077215E+02  0.98506432358E+01  0.45599433753E+02  0.10570000000E+00 0. -1.
         13    1    3    3    0    0  0.18232767682E+02  0.40618077215E+02  0.12474406879E+02  0.46237257850E+02  0.10570000000E+00 0.  1.
<mgrwt>
<rscale>  0 0.89081817E+02</rscale>
<asrwt>0</asrwt>
<pdfrwt beam="1">  1        1 0.87816723E-02 0.89081817E+02</pdfrwt>
<pdfrwt beam="2">  1       -1 0.53470494E-02 0.89081817E+02</pdfrwt>
<totfact> 0.10201450E+05</totfact>
</mgrwt>
</event>
<event>
 5   1  0.1388354E+00  0.9433309E+02  0.7818608E-02  0.1292685E+00
         -1   -1    0    0    0  501 -0.00000000000E+00  0.00000000000E+00  0.30372584640E+03  0.30372584644E+03  0.46700000000E-02 0.  1.
          1   -1    0    0  501    0  0.00000000000E+00 -0.00000000000E+00 -0.73246408756E+01  0.73246423644E+01  0.46700000000E-02 0. -1.
         23    2    1    2    0    0  0.00000000000E+00  0.00000000000E+00  0.29640120552E+03  0.31105048880E+03  0.94333090411E+02 0.  0.
        -13    1    3    3    0    0  0.43927932247E+02  0.16113002700E+02  0.16781360428E+03  0.17421454888E+03  0.10570000000E+00 0. -1.
         13    1    3    3    0    0 -0.43927932247E+02 -0.16113002700E+02  0.12858760124E+03  0.13683593992E+03  0.10570000000E+00 0.  1.
<mgrwt>
<rscale>  0 0.94333090E+02</rscale>
<asrwt>0</asrwt>
<pdfrwt beam="2">  1        1 0.11268679E-02 0.94333090E+02</pdfrwt>
<pdfrwt beam="1">  1       -1 0.46727054E-01 0.94333090E+02</pdfrwt>
<totfact> 0.55148044E+04</totfact>
</mgrwt>
</event>
<event>
 5   1  0.1388354E+00  0.9188593E+02  0.7818608E-02  0.1298348E+00
         -1   -1    0    0    0  501 -0.00000000000E+00  0.00000000000E+00  0.92475104640E+01  0.92475116432E+01  0.46700000000E-02 0.  1.
          1   -1    0    0  501    0  0.00000000000E+00 -0.00000000000E+00 -0.22825125653E+03  0.22825125658E+03  0.46700000000E-02 0. -1.
         23    2    1    2    0    0  0.00000000000E+00  0.00000000000E+00 -0.21900374607E+03  0.23749876822E+03  0.91885929911E+02 0.  0.
        -13    1    3    3    0    0 -0.44833861173E+02  0.37213571317E+01 -0.13358569252E+03  0.14095769587E+03  0.10570000000E+00 0. -1.
         13    1    3    3    0    0  0.44833861173E+02 -0.37213571317E+01 -0.85418053545E+02  0.96541072349E+02  0.10570000000E+00 0.  1.
<mgrwt>
<rscale>  0 0.91885930E+02</rscale>
<asrwt>0</asrwt>
<pdfrwt beam="2">  1        1 0.35115574E-01 0.91885930E+02</pdfrwt>
<pdfrwt beam="1">  1       -1 0.14226942E-02 0.91885930E+02</pdfrwt>
<totfact> 0.11899835E+05</totfact>
</mgrwt>
</event>
<event>
 5   1  0.1388354E+00  0.9176140E+02  0.7818608E-02  0.1298641E+00
         -1   -1    0    0    0  501 -0.00000000000E+00  0.00000000000E+00  0.69581237298E+01  0.69581252969E+01  0.46700000000E-02 0.  1.
          1   -1    0    0  501    0  0.00000000000E+00 -0.00000000000E+00 -0.30252958114E+03  0.30252958118E+03  0.46700000000E-02 0. -1.
         23    2    1    2    0    0  0.00000000000E+00  0.00000000000E+00 -0.29557145741E+03  0.30948770648E+03  0.91761397234E+02 0.  0.
        -13    1    3    3    0    0 -0.43912703837E+02  0.85834857404E+01 -0.18201958711E+03  0.18743837134E+03  0.10570000000E+00 0. -1.
         13    1    3    3    0    0  0.43912703837E+02 -0.85834857404E+01 -0.11355187030E+03  0.12204933513E+03  0.10570000000E+00 0.  1.
<mgrwt>
<rscale>  0 0.91761397E+02</rscale>
<asrwt>0</asrwt>
<pdfrwt beam="2">  1        1 0.46543002E-01 0.91761397E+02</pdfrwt>
<pdfrwt beam="1">  1       -1 0.10704809E-02 0.91761397E+02</pdfrwt>
<totfact> 0.12615834E+05</totfact>
</mgrwt>
</event>
<event>
 5   1  0.1388354E+00  0.9126240E+02  0.7818608E-02  0.1299823E+00
          1   -1    0    0  501    0  0.00000000000E+00  0.00000000000E+00  0.80328793172E+02  0.80328793307E+02  0.46700000000E-02 0. -1.
         -1   -1    0    0    0  501 -0.00000000000E+00 -0.00000000000E+00 -0.25921045481E+02  0.25921045902E+02  0.46700000000E-02 0.  1.
         23    2    1    2    0    0  0.00000000000E+00  0.00000000000E+00  0.54407747690E+02  0.10624983921E+03  0.91262398189E+02 0.  0.
        -13    1    3    3    0    0  0.31245243610E+02 -0.18773198654E+02  0.59161693819E+02  0.69489678543E+02  0.10570000000E+00 0.  1.
         13    1    3    3    0    0 -0.31245243610E+02  0.18773198654E+02 -0.47539461285E+01  0.36760160667E+02  0.10570000000E+00 0. -1.
<mgrwt>
<rscale>  0 0.91262398E+02</rscale>
<asrwt>0</asrwt>
<pdfrwt beam="1">  1        1 0.12358275E-01 0.91262398E+02</pdfrwt>
<pdfrwt beam="2">  1       -1 0.39878534E-02 0.91262398E+02</pdfrwt>
<totfact> 0.10055000E+05</totfact>
</mgrwt>
</event>
<event>
 5   1  0.1388354E+00  0.9211300E+02  0.7818608E-02  0.1297814E+00
         -1   -1    0    0    0  501 -0.00000000000E+00  0.00000000000E+00  0.75179917322E+02  0.75179917467E+02  0.46700000000E-02 0.  1.
          1   -1    0    0  501    0  0.00000000000E+00 -0.00000000000E+00 -0.28214995397E+02  0.28214995784E+02  0.46700000000E-02 0. -1.
         23    2    1    2    0    0  0.00000000000E+00  0.00000000000E+00  0.46964921925E+02  0.10339491325E+03  0.92112996883E+02 0.  0.
        -13    1    3    3    0    0 -0.14815057168E+02 -0.42400772039E+02  0.34922857300E+02  0.56894011310E+02  0.10570000000E+00 0.  1.
         13    1    3    3    0    0  0.14815057168E+02  0.42400772039E+02  0.12042064624E+02  0.46500901941E+02  0.10570000000E+00 0. -1.
<mgrwt>
<rscale>  0 0.92112997E+02</rscale>
<asrwt>0</asrwt>
<pdfrwt beam="2">  1        1 0.43407686E-02 0.92112997E+02</pdfrwt>
<pdfrwt beam="1">  1       -1 0.11566141E-01 0.92112997E+02</pdfrwt>
<totfact> 0.83328725E+04</totfact>
</mgrwt>
</event>
<event>
 5   1  0.1388354E+00  0.1116850E+03  0.7818608E-02  0.1257481E+00
         -1   -1    0    0    0  501 -0.00000000000E+00  0.00000000000E+00  0.84498163393E+02  0.84498163522E+02  0.46700000000E-02 0.  1.
          1   -1    0    0  501    0  0.00000000000E+00 -0.00000000000E+00 -0.36904738886E+02  0.36904739182E+02  0.46700000000E-02 0. -1.
         23    2    1    2    0    0  0.00000000000E+00  0.00000000000E+00  0.47593424507E+02  0.12140290270E+03  0.11168496196E+03 0.  0.
        -13    1    3    3    0    0  0.12155857515E+02  0.18839009697E+02  0.79390747668E+02  0.82495909875E+02  0.10570000000E+00 0.  1.
         13    1    3    3    0    0 -0.12155857515E+02 -0.18839009697E+02 -0.31797323161E+02  0.38906992829E+02  0.10570000000E+00 0. -1.
<mgrwt>
<rscale>  0 0.11168496E+03</rscale>
<asrwt>0</asrwt>
<pdfrwt beam="2">  1        1 0.56776521E-02 0.11168496E+03</pdfrwt>
<pdfrwt beam="1">  1       -1 0.12999718E-01 0.11168496E+03</pdfrwt>
<totfact> 0.49798846E+04</totfact>
</mgrwt>
</event>
<event>
 5   1  0.1388354E+00  0.9055011E+02  0.7818608E-02  0.1301525E+00
         -1   -1    0    0    0  501 -0.00000000000E+00  0.00000000000E+00  0.81517627875E+01  0.81517641252E+01  0.46700000000E-02 0.  1.
          1   -1    0    0  501    0  0.00000000000E+00 -0.00000000000E+00 -0.25145855097E+03  0.25145855102E+03  0.46700000000E-02 0. -1.
         23    2    1    2    0    0  0.00000000000E+00  0.00000000000E+00 -0.24330678818E+03  0.25961031514E+03  0.90550110716E+02 0.  0.
        -13    1    3    3    0    0  0.14932255722E+02 -0.33768057698E+02 -0.19677657031E+03  0.20021059856E+03  0.10570000000E+00 0. -1.
         13    1    3    3    0    0 -0.14932255722E+02  0.33768057698E+02 -0.46530217880E+02  0.59399716582E+02  0.10570000000E+00 0.  1.
<mgrwt>
<rscale>  0 0.90550111E+02</rscale>
<asrwt>0</asrwt>
<pdfrwt beam="2">  1        1 0.38685925E-01 0.90550111E+02</pdfrwt>
<pdfrwt beam="1">  1       -1 0.12541177E-02 0.90550111E+02</pdfrwt>
<totfact> 0.12611072E+05</totfact>
</mgrwt>
</event>
<event>
 5   1  0.1388354E+00  0.9212791E+02  0.7818608E-02  0.1297779E+00
         -1   -1    0    0    0  501 -0.00000000000E+00  0.00000000000E+00  0.47007113444E+02  0.47007113676E+02  0.46700000000E-02 0.  1.
          1   -1    0    0  501    0  0.00000000000E+00 -0.00000000000E+00 -0.45139715716E+02  0.45139715957E+02  0.46700000000E-02 0. -1.
         23    2    1    2    0    0  0.00000000000E+00  0.00000000000E+00  0.18673977286E+01  0.92146829634E+02  0.92127905855E+02 0.  0.
        -13    1    3    3    0    0  0.24318728950E+01  0.22246982974E+02  0.41204039610E+02  0.46889511726E+02  0.10570000000E+00 0.  1.
         13    1    3    3    0    0 -0.24318728950E+01 -0.22246982974E+02 -0.39336641881E+02  0.45257317908E+02  0.10570000000E+00 0. -1.
<mgrwt>
<rscale>  0 0.92127906E+02</rscale>
<asrwt>0</asrwt>
<pdfrwt beam="2">  1        1 0.69445717E-02 0.92127906E+02</pdfrwt>
<pdfrwt beam="1">  1       -1 0.72318637E-02 0.92127906E+02</pdfrwt>
<totfact> 0.89678136E+04</totfact>
</mgrwt>
</event>
<event>
 5   1  0.1388354E+00  0.9188539E+02  0.7818608E-02  0.1298349E+00
         -1   -1    0    0    0  501 -0.00000000000E+00  0.00000000000E+00  0.48559034398E+02  0.48559034623E+02  0.46700000000E-02 0.  1.
          1   -1    0    0  501    0  0.00000000000E+00 -0.00000000000E+00 -0.43467325231E+02  0.43467325482E+02  0.46700000000E-02 0. -1.
         23    2    1    2    0    0  0.00000000000E+00  0.00000000000E+00  0.50917091672E+01  0.92026360104E+02  0.91885393027E+02 0.  0.
        -13    1    3    3    0    0  0.23107594447E+02 -0.38084732883E+02 -0.87102662037E+01  0.45390392262E+02  0.10570000000E+00 0. -1.
         13    1    3    3    0    0 -0.23107594447E+02  0.38084732883E+02  0.13801975371E+02  0.46635967842E+02  0.10570000000E+00 0.  1.
<mgrwt>
<rscale>  0 0.91885393E+02</rscale>
<asrwt>0</asrwt>
<pdfrwt beam="2">  1        1 0.66872808E-02 0.91885393E+02</pdfrwt>
<pdfrwt beam="1">  1       -1 0.74706207E-02 0.91885393E+02</pdfrwt>
<totfact> 0.89830338E+04</totfact>
</mgrwt>
</event>
<event>
 5   1  0.1388354E+00  0.8972484E+02  0.7818608E-02  0.1303519E+00
          1   -1    0    0  501    0  0.00000000000E+00  0.00000000000E+00  0.15165737846E+03  0.15165737853E+03  0.46700000000E-02 0. -1.
         -1   -1    0    0    0  501 -0.00000000000E+00 -0.00000000000E+00 -0.13270943398E+02  0.13270944219E+02  0.46700000000E-02 0.  1.
         23    2    1    2    0    0  0.00000000000E+00  0.00000000000E+00  0.13838643506E+03  0.16492832275E+03  0.89724836229E+02 0.  0.
        -13    1    3    3    0    0 -0.44641817277E+02 -0.24941515160E+01  0.62436210683E+02  0.76794558521E+02  0.10570000000E+00 0.  1.
         13    1    3    3    0    0  0.44641817277E+02  0.24941515160E+01  0.75950224378E+02  0.88133764229E+02  0.10570000000E+00 0. -1.
<mgrwt>
<rscale>  0 0.89724836E+02</rscale>
<asrwt>0</asrwt>
<pdfrwt beam="1">  1        1 0.23331904E-01 0.89724836E+02</pdfrwt>
<pdfrwt beam="2">  1       -1 0.20416837E-02 0.89724836E+02</pdfrwt>
<totfact> 0.11732326E+05</totfact>
</mgrwt>
</event>
<event>
 5   1  0.1388354E+00  0.9088523E+02  0.7818608E-02  0.1300722E+00
         -1   -1    0    0    0  501 -0.00000000000E+00  0.00000000000E+00  0.19906737118E+03  0.19906737124E+03  0.46700000000E-02 0.  1.
          1   -1    0    0  501    0  0.00000000000E+00 -0.00000000000E+00 -0.10373529301E+02  0.10373530352E+02  0.46700000000E-02 0. -1.
         23    2    1    2    0    0  0.00000000000E+00  0.00000000000E+00  0.18869384188E+03  0.20944090159E+03  0.90885231443E+02 0.  0.
        -13    1    3    3    0    0 -0.33188050116E+02 -0.93312790559E-01  0.22813558697E+02  0.40273130133E+02  0.10570000000E+00 0. -1.
         13    1    3    3    0    0  0.33188050116E+02  0.93312790559E-01  0.16588028319E+03  0.16916777146E+03  0.10570000000E+00 0.  1.
<mgrwt>
<rscale>  0 0.90885231E+02</rscale>
<asrwt>0</asrwt>
<pdfrwt beam="2">  1        1 0.15959278E-02 0.90885231E+02</pdfrwt>
<pdfrwt beam="1">  1       -1 0.30625748E-01 0.90885231E+02</pdfrwt>
<totfact> 0.70099868E+04</totfact>
</mgrwt>
</event>
<event>
 5   1  0.1388354E+00  0.9557083E+02  0.7818608E-02  0.1289896E+00
          1   -1    0    0  501    0  0.00000000000E+00  0.00000000000E+00  0.12885261672E+02  0.12885262518E+02  0.46700000000E-02 0. -1.
         -1   -1    0    0    0  501 -0.00000000000E+00 -0.00000000000E+00 -0.17721375518E+03  0.17721375524E+03  0.46700000000E-02 0.  1.
         23    2    1    2    0    0  0.00000000000E+00  0.00000000000E+00 -0.16432849351E+03  0.19009901776E+03  0.95570825959E+02 0.  0.
        -13    1    3    3    0    0  0.19774400006E+02 -0.43450806477E+02 -0.77975313832E+02  0.91428443160E+02  0.10570000000E+00 0. -1.
         13    1    3    3    0    0 -0.19774400006E+02  0.43450806477E+02 -0.86353179678E+02  0.98670574601E+02  0.10570000000E+00 0.  1.
<mgrwt>
<rscale>  0 0.95570826E+02</rscale>
<asrwt>0</asrwt>
<pdfrwt beam="1">  1        1 0.19823481E-02 0.95570826E+02</pdfrwt>
<pdfrwt beam="2">  1       -1 0.27263653E-01 0.95570826E+02</pdfrwt>
<totfact> 0.63478217E+04</totfact>
</mgrwt>
</event>
<event>
 5   1  0.1388354E+00  0.9185592E+02  0.7818608E-02  0.1298419E+00
          1   -1    0    0  501    0  0.00000000000E+00  0.00000000000E+00  0.30465065995E+02  0.30465066353E+02  0.46700000000E-02 0. -1.
         -1   -1    0    0    0  501 -0.00000000000E+00 -0.00000000000E+00 -0.69239222273E+02  0.69239222431E+02  0.46700000000E-02 0.  1.
         23    2    1    2    0    0  0.00000000000E+00  0.00000000000E+00 -0.38774156278E+02  0.99704288784E+02  0.91855919825E+02 0.  0.
        -13    1    3    3    0    0  0.36807859845E+02  0.20025591714E+02  0.10216438001E+01  0.41915364705E+02  0.10570000000E+00 0. -1.
         13    1    3    3    0    0 -0.36807859845E+02 -0.20025591714E+02 -0.39795800078E+02  0.57788924079E+02  0.10570000000E+00 0.  1.
<mgrwt>
<rscale>  0 0.91855920E+02</rscale>
<asrwt>0</asrwt>
<pdfrwt beam="1">  1        1 0.46869333E-02 0.91855920E+02</pdfrwt>
<pdfrwt beam="2">  1       -1 0.10652188E-01 0.91855920E+02</pdfrwt>
<totfact> 0.85066389E+04</totfact>
</mgrwt>
</event>
<event>
 5   1  0.1388354E+00  0.9306874E+02  0.7818608E-02  0.1295586E+00
          1   -1    0    0  501    0  0.00000000000E+00  0.00000000000E+00  0.11097719976E+02  0.11097720959E+02  0.46700000000E-02 0. -1.
         -1   -1    0    0    0  501 -0.00000000000E+00 -0.00000000000E+00 -0.19512543028E+03  0.19512543034E+03  0.46700000000E-02 0.  1.
         23    2    1    2    0    0  0.00000000000E+00  0.00000000000E+00 -0.18402771030E+03  0.20622315130E+03  0.93068737877E+02 0.  0.
        -13    1    3    3    0    0  0.35192474645E+02 -0.28821919163E+02 -0.70278181958E+02  0.83715275355E+02  0.10570000000E+00 0. -1.
         13    1    3    3    0    0 -0.35192474645E+02  0.28821919163E+02 -0.11374952835E+03  0.12250787594E+03  0.10570000000E+00 0.  1.
<mgrwt>
<rscale>  0 0.93068738E+02</rscale>
<asrwt>0</asrwt>
<pdfrwt beam="1">  1        1 0.17073418E-02 0.93068738E+02</pdfrwt>
<pdfrwt beam="2">  1       -1 0.30019295E-01 0.93068738E+02</pdfrwt>
<totfact> 0.66265459E+04</totfact>
</mgrwt>
</event>
<event>
 5   1  0.1388354E+00  0.9114759E+02  0.7818608E-02  0.1300096E+00
         -1   -1    0    0    0  501 -0.00000000000E+00  0.00000000000E+00  0.36808310372E+02  0.36808310668E+02  0.46700000000E-02 0.  1.
          1   -1    0    0  501    0  0.00000000000E+00 -0.00000000000E+00 -0.56426685258E+02  0.56426685452E+02  0.46700000000E-02 0. -1.
         23    2    1    2    0    0  0.00000000000E+00  0.00000000000E+00 -0.19618374886E+02  0.93234996120E+02  0.91147593870E+02 0.  0.
        -13    1    3    3    0    0 -0.12181563336E+02  0.11926457339E+02  0.33423722054E+02  0.37520490914E+02  0.10570000000E+00 0.  1.
         13    1    3    3    0    0  0.12181563336E+02 -0.11926457339E+02 -0.53042096941E+02  0.55714505206E+02  0.10570000000E+00 0. -1.
<mgrwt>
<rscale>  0 0.91147594E+02</rscale>
<asrwt>0</asrwt>
<pdfrwt beam="2">  1        1 0.86810286E-02 0.91147594E+02</pdfrwt>
<pdfrwt beam="1">  1       -1 0.56628170E-02 0.91147594E+02</pdfrwt>
<totfact> 0.95567586E+04</totfact>
</mgrwt>
</event>
<event>
 5   1  0.1388354E+00  0.9126502E+02  0.7818608E-02  0.1299817E+00
         -1   -1    0    0    0  501 -0.00000000000E+00  0.00000000000E+00  0.20024807954E+03  0.20024807960E+03  0.46700000000E-02 0.  1.
          1   -1    0    0  501    0  0.00000000000E+00 -0.00000000000E+00 -0.10398731244E+02  0.10398732293E+02  0.46700000000E-02 0. -1.
         23    2    1    2    0    0  0.00000000000E+00  0.00000000000E+00  0.18984934830E+03  0.21064681189E+03  0.91265022379E+02 0.  0.
        -13    1    3    3    0    0 -0.44387400352E+02 -0.27458662569E+00  0.11935088163E+03  0.12733797873E+03  0.10570000000E+00 0.  1.
         13    1    3    3    0    0  0.44387400352E+02  0.27458662569E+00  0.70498466670E+02  0.83308833164E+02  0.10570000000E+00 0. -1.
<mgrwt>
<rscale>  0 0.91265022E+02</rscale>
<asrwt>0</asrwt>
<pdfrwt beam="2">  1        1 0.15998049E-02 0.91265022E+02</pdfrwt>
<pdfrwt beam="1">  1       -1 0.30807397E-01 0.91265022E+02</pdfrwt>
<totfact> 0.69225224E+04</totfact>
</mgrwt>
</event>
<event>
 5   1  0.1388354E+00  0.8904708E+02  0.7818608E-02  0.1305176E+00
         -1   -1    0    0    0  501 -0.00000000000E+00  0.00000000000E+00  0.65213000415E+02  0.65213000582E+02  0.46700000000E-02 0.  1.
          1   -1    0    0  501    0  0.00000000000E+00 -0.00000000000E+00 -0.30398010173E+02  0.30398010532E+02  0.46700000000E-02 0. -1.
         23    2    1    2    0    0  0.00000000000E+00  0.00000000000E+00  0.34814990242E+02  0.95611011114E+02  0.89047076879E+02 0.  0.
        -13    1    3    3    0    0  0.25773021619E+00 -0.27856726422E+02  0.54699061675E+02  0.61384543270E+02  0.10570000000E+00 0.  1.
         13    1    3    3    0    0 -0.25773021619E+00  0.27856726422E+02 -0.19884071433E+02  0.34226467844E+02  0.10570000000E+00 0. -1.
<mgrwt>
<rscale>  0 0.89047077E+02</rscale>
<asrwt>0</asrwt>
<pdfrwt beam="2">  1        1 0.46766170E-02 0.89047077E+02</pdfrwt>
<pdfrwt beam="1">  1       -1 0.10032769E-01 0.89047077E+02</pdfrwt>
<totfact> 0.92943515E+04</totfact>
</mgrwt>
</event>
<event>
 5   1  0.1388354E+00  0.9130428E+02  0.7818608E-02  0.1299724E+00
         -1   -1    0    0    0  501 -0.00000000000E+00  0.00000000000E+00  0.11691020998E+02  0.11691021931E+02  0.46700000000E-02 0.  1.
          1   -1    0    0  501    0  0.00000000000E+00 -0.00000000000E+00 -0.17826652381E+03  0.17826652387E+03  0.46700000000E-02 0. -1.
         23    2    1    2    0    0  0.00000000000E+00  0.00000000000E+00 -0.16657550281E+03  0.18995754580E+03  0.91304277392E+02 0.  0.
        -13    1    3    3    0    0 -0.22859216874E+02 -0.22944434860E+02 -0.16351732935E+02  0.36281968381E+02  0.10570000000E+00 0.  1.
         13    1    3    3    0    0  0.22859216874E+02  0.22944434860E+02 -0.15022376987E+03  0.15367557742E+03  0.10570000000E+00 0. -1.
<mgrwt>
<rscale>  0 0.91304277E+02</rscale>
<asrwt>0</asrwt>
<pdfrwt beam="2">  1        1 0.27425617E-01 0.91304277E+02</pdfrwt>
<pdfrwt beam="1">  1       -1 0.17986188E-02 0.91304277E+02</pdfrwt>
<totfact> 0.11537743E+05</totfact>
</mgrwt>
</event>
<event>
 5   1  0.1388354E+00  0.9040441E+02  0.7818608E-02  0.1301875E+00
         -1   -1    0    0    0  501 -0.00000000000E+00  0.00000000000E+00  0.35546968930E+02  0.35546969237E+02  0.46700000000E-02 0.  1.
          1   -1    0    0  501    0  0.00000000000E+00 -0.00000000000E+00 -0.57479988186E+02  0.57479988376E+02  0.46700000000E-02 0. -1.
         23    2    1    2    0    0  0.00000000000E+00  0.00000000000E+00 -0.21933019256E+02  0.93026957613E+02  0.90404410893E+02 0.  0.
        -13    1    3    3    0    0  0.96982523696E+01 -0.21225789258E+02  0.28868741938E+02  0.37121498653E+02  0.10570000000E+00 0.  1.
         13    1    3    3    0    0 -0.96982523696E+01  0.21225789258E+02 -0.50801761194E+02  0.55905458960E+02  0.10570000000E+00 0. -1.
<mgrwt>
<rscale>  0 0.90404411E+02</rscale>
<asrwt>0</asrwt>
<pdfrwt beam="2">  1        1 0.88430752E-02 0.90404411E+02</pdfrwt>
<pdfrwt beam="1">  1       -1 0.54687645E-02 0.90404411E+02</pdfrwt>
<totfact> 0.98036083E+04</totfact>
</mgrwt>
</event>
<event>
 5   1  0.1388354E+00  0.8335816E+02  0.7818608E-02  0.1319783E+00
          1   -1    0    0  501    0  0.00000000000E+00  0.00000000000E+00  0.29103055492E+02  0.29103055866E+02  0.46700000000E-02 0. -1.
         -1   -1    0    0    0  501 -0.00000000000E+00 -0.00000000000E+00 -0.59689457968E+02  0.59689458151E+02  0.46700000000E-02 0.  1.
         23    2    1    2    0    0  0.00000000000E+00  0.00000000000E+00 -0.30586402476E+02  0.88792514017E+02  0.83358158143E+02 0.  0.
        -13    1    3    3    0    0  0.17497259227E+02  0.36646300944E+02 -0.25287242601E+02  0.47838909521E+02  0.10570000000E+00 0. -1.
         13    1    3    3    0    0 -0.17497259227E+02 -0.36646300944E+02 -0.52991598754E+01  0.40953604496E+02  0.10570000000E+00 0.  1.
<mgrwt>
<rscale>  0 0.83358158E+02</rscale>
<asrwt>0</asrwt>
<pdfrwt beam="1">  1        1 0.44773932E-02 0.83358158E+02</pdfrwt>
<pdfrwt beam="2">  1       -1 0.91829935E-02 0.83358158E+02</pdfrwt>
<totfact> 0.11136929E+05</totfact>
</mgrwt>
</event>
<event>
 5   1  0.1388354E+00  0.9203300E+02  0.7818608E-02  0.1298002E+00
          1   -1    0    0  501    0  0.00000000000E+00  0.00000000000E+00  0.16068180561E+03  0.16068180567E+03  0.46700000000E-02 0. -1.
         -1   -1    0    0    0  501 -0.00000000000E+00 -0.00000000000E+00 -0.13178333363E+02  0.13178334190E+02  0.46700000000E-02 0.  1.
         23    2    1    2    0    0  0.00000000000E+00  0.00000000000E+00  0.14750347224E+03  0.17386013986E+03  0.92033004460E+02 0.  0.
        -13    1    3    3    0    0  0.73579530144E+01 -0.32889289188E+02  0.13294026187E+03  0.13714579546E+03  0.10570000000E+00 0. -1.
         13    1    3    3    0    0 -0.73579530144E+01  0.32889289188E+02  0.14563210378E+02  0.36714344402E+02  0.10570000000E+00 0.  1.
<mgrwt>
<rscale>  0 0.92033004E+02</rscale>
<asrwt>0</asrwt>
<pdfrwt beam="1">  1        1 0.24720278E-01 0.92033004E+02</pdfrwt>
<pdfrwt beam="2">  1       -1 0.20274360E-02 0.92033004E+02</pdfrwt>
<totfact> 0.11074274E+05</totfact>
</mgrwt>
</event>
<event>
 5   1  0.1388354E+00  0.9042486E+02  0.7818608E-02  0.1301826E+00
         -1   -1    0    0    0  501 -0.00000000000E+00  0.00000000000E+00  0.69554735035E+02  0.69554735192E+02  0.46700000000E-02 0.  1.
          1   -1    0    0  501    0  0.00000000000E+00 -0.00000000000E+00 -0.29389282741E+02  0.29389283112E+02  0.46700000000E-02 0. -1.
         23    2    1    2    0    0  0.00000000000E+00  0.00000000000E+00  0.40165452295E+02  0.98944018304E+02  0.90424859414E+02 0.  0.
        -13    1    3    3    0    0 -0.36843443421E+02  0.75630239802E+00  0.48744857748E+02  0.61107148893E+02  0.10570000000E+00 0.  1.
         13    1    3    3    0    0  0.36843443421E+02 -0.75630239802E+00 -0.85794054535E+01  0.37836869411E+02  0.10570000000E+00 0. -1.
<mgrwt>
<rscale>  0 0.90424859E+02</rscale>
<asrwt>0</asrwt>
<pdfrwt beam="2">  1        1 0.45214282E-02 0.90424859E+02</pdfrwt>
<pdfrwt beam="1">  1       -1 0.10700728E-01 0.90424859E+02</pdfrwt>
<totfact> 0.88475212E+04</totfact>
</mgrwt>
</event>
<event>
 5   1  0.1388354E+00  0.9510372E+02  0.7818608E-02  0.1290943E+00
         -1   -1    0    0    0  501 -0.00000000000E+00  0.00000000000E+00  0.80531191139E+02  0.80531191274E+02  0.46700000000E-02 0.  1.
          1   -1    0    0  501    0  0.00000000000E+00 -0.00000000000E+00 -0.28078305245E+02  0.28078305634E+02  0.46700000000E-02 0. -1.
         23    2    1    2    0    0  0.00000000000E+00  0.00000000000E+00  0.52452885893E+02  0.10860949691E+03  0.95103720117E+02 0.  0.
        -13    1    3    3    0    0 -0.26495474572E+02  0.11508268859E+02  0.69362389868E+02  0.75137225964E+02  0.10570000000E+00 0.  1.
         13    1    3    3    0    0  0.26495474572E+02 -0.11508268859E+02 -0.16909503975E+02  0.33472270943E+02  0.10570000000E+00 0. -1.
<mgrwt>
<rscale>  0 0.95103720E+02</rscale>
<asrwt>0</asrwt>
<pdfrwt beam="2">  1        1 0.43197394E-02 0.95103720E+02</pdfrwt>
<pdfrwt beam="1">  1       -1 0.12389414E-01 0.95103720E+02</pdfrwt>
<totfact> 0.75891544E+04</totfact>
</mgrwt>
</event>
<event>
 5   1  0.1388354E+00  0.8963451E+02  0.7818608E-02  0.1303739E+00
          1   -1    0    0  501    0  0.00000000000E+00  0.00000000000E+00  0.26156172496E+02  0.26156172913E+02  0.46700000000E-02 0. -1.
         -1   -1    0    0    0  501 -0.00000000000E+00 -0.00000000000E+00 -0.76792052122E+02  0.76792052264E+02  0.46700000000E-02 0.  1.
         23    2    1    2    0    0  0.00000000000E+00  0.00000000000E+00 -0.50635879625E+02  0.10294822518E+03  0.89634506534E+02 0.  0.
        -13    1    3    3    0    0  0.44762449011E+02 -0.64666428868E+00 -0.27748927295E+02  0.52669812556E+02  0.10570000000E+00 0.  1.
         13    1    3    3    0    0 -0.44762449011E+02  0.64666428868E+00 -0.22886952331E+02  0.50278412621E+02  0.10570000000E+00 0. -1.
<mgrwt>
<rscale>  0 0.89634507E+02</rscale>
<asrwt>0</asrwt>
<pdfrwt beam="1">  1        1 0.40240266E-02 0.89634507E+02</pdfrwt>
<pdfrwt beam="2">  1       -1 0.11814162E-01 0.89634507E+02</pdfrwt>
<totfact> 0.89030144E+04</totfact>
</mgrwt>
</event>
<event>
 5   1  0.1388354E+00  0.8951114E+02  0.7818608E-02  0.1304040E+00
         -1   -1    0    0    0  501 -0.00000000000E+00  0.00000000000E+00  0.14694449456E+02  0.14694450198E+02  0.46700000000E-02 0.  1.
          1   -1    0    0  501    0  0.00000000000E+00 -0.00000000000E+00 -0.13631413220E+03  0.13631413228E+03  0.46700000000E-02 0. -1.
         23    2    1    2    0    0  0.00000000000E+00  0.00000000000E+00 -0.12161968274E+03  0.15100858248E+03  0.89511143167E+02 0.  0.
        -13    1    3    3    0    0  0.41932311872E+02  0.48772807694E+01 -0.35733451530E+02  0.55308203527E+02  0.10570000000E+00 0.  1.
         13    1    3    3    0    0 -0.41932311872E+02 -0.48772807694E+01 -0.85886231211E+02  0.95700378948E+02  0.10570000000E+00 0. -1.
<mgrwt>
<rscale>  0 0.89511143E+02</rscale>
<asrwt>0</asrwt>
<pdfrwt beam="2">  1        1 0.20971404E-01 0.89511143E+02</pdfrwt>
<pdfrwt beam="1">  1       -1 0.22606847E-02 0.89511143E+02</pdfrwt>
<totfact> 0.11582019E+05</totfact>
</mgrwt>
</event>
<event>
 5   1  0.1388354E+00  0.9194163E+02  0.7818608E-02  0.1298217E+00
         -1   -1    0    0    0  501 -0.00000000000E+00  0.00000000000E+00  0.37814646808E+02  0.37814647096E+02  0.46700000000E-02 0.  1.
          1   -1    0    0  501    0  0.00000000000E+00 -0.00000000000E+00 -0.55886173497E+02  0.55886173692E+02  0.46700000000E-02 0. -1.
         23    2    1    2    0    0  0.00000000000E+00  0.00000000000E+00 -0.18071526689E+02  0.93700820788E+02  0.91941632243E+02 0.  0.
        -13    1    3    3    0    0 -0.26967459114E+02 -0.28943173818E+02 -0.32900768660E+02  0.51453113731E+02  0.10570000000E+00 0. -1.
         13    1    3    3    0    0  0.26967459114E+02  0.28943173818E+02  0.14829241971E+02  0.42247707057E+02  0.10570000000E+00 0.  1.
<mgrwt>
<rscale>  0 0.91941632E+02</rscale>
<asrwt>0</asrwt>
<pdfrwt beam="2">  1        1 0.85978729E-02 0.91941632E+02</pdfrwt>
<pdfrwt beam="1">  1       -1 0.58176380E-02 0.91941632E+02</pdfrwt>
<totfact> 0.93150722E+04</totfact>
</mgrwt>
</event>
<event>
 5   1  0.1388354E+00  0.9170277E+02  0.7818608E-02  0.1298780E+00
         -1   -1    0    0    0  501 -0.00000000000E+00  0.00000000000E+00  0.60531319749E+02  0.60531319929E+02  0.46700000000E-02 0.  1.
          1   -1    0    0  501    0  0.00000000000E+00 -0.00000000000E+00 -0.34731599414E+02  0.34731599728E+02  0.46700000000E-02 0. -1.
         23    2    1    2    0    0  0.00000000000E+00  0.00000000000E+00  0.25799720336E+02  0.95262919657E+02  0.91702771453E+02 0.  0.
        -13    1    3    3    0    0  0.13338715008E+02 -0.15658711202E+02  0.55469057801E+02  0.59160325391E+02  0.10570000000E+00 0.  1.
         13    1    3    3    0    0 -0.13338715008E+02  0.15658711202E+02 -0.29669337466E+02  0.36102594265E+02  0.10570000000E+00 0. -1.
<mgrwt>
<rscale>  0 0.91702771E+02</rscale>
<asrwt>0</asrwt>
<pdfrwt beam="2">  1        1 0.53433230E-02 0.91702771E+02</pdfrwt>
<pdfrwt beam="1">  1       -1 0.93125108E-02 0.91702771E+02</pdfrwt>
<totfact> 0.87274862E+04</totfact>
</mgrwt>
</event>
<event>
 5   1  0.1388354E+00  0.9189836E+02  0.7818608E-02  0.1298319E+00
         -1   -1    0    0    0  501 -0.00000000000E+00  0.00000000000E+00  0.79302408748E+02  0.79302408885E+02  0.46700000000E-02 0.  1.
          1   -1    0    0  501    0  0.00000000000E+00 -0.00000000000E+00 -0.26623742835E+02  0.26623743245E+02  0.46700000000E-02 0. -1.
         23    2    1    2    0    0  0.00000000000E+00  0.00000000000E+00  0.52678665912E+02  0.10592615213E+03  0.91898356148E+02 0.  0.
        -13    1    3    3    0    0  0.41135803842E+02 -0.13895587956E+02  0.43670221559E+02  0.61581987187E+02  0.10570000000E+00 0.  1.
         13    1    3    3    0    0 -0.41135803842E+02  0.13895587956E+02  0.90084443537E+01  0.44344164944E+02  0.10570000000E+00 0. -1.
<mgrwt>
<rscale>  0 0.91898356E+02</rscale>
<asrwt>0</asrwt>
<pdfrwt beam="2">  1        1 0.40959604E-02 0.91898356E+02</pdfrwt>
<pdfrwt beam="1">  1       -1 0.12200371E-01 0.91898356E+02</pdfrwt>
<totfact> 0.83081008E+04</totfact>
</mgrwt>
</event>
<event>
 5   1  0.1388354E+00  0.9177174E+02  0.7818608E-02  0.1298617E+00
          1   -1    0    0  501    0  0.00000000000E+00  0.00000000000E+00  0.16755836951E+02  0.16755837602E+02  0.46700000000E-02 0. -1.
         -1   -1    0    0    0  501 -0.00000000000E+00 -0.00000000000E+00 -0.12565847193E+03  0.12565847201E+03  0.46700000000E-02 0.  1.
         23    2    1    2    0    0  0.00000000000E+00  0.00000000000E+00 -0.10890263498E+03  0.14241430962E+03  0.91771736818E+02 0.  0.
        -13    1    3    3    0    0 -0.22491276990E+02 -0.32890494393E+02 -0.19137010551E+02  0.44202697965E+02  0.10570000000E+00 0. -1.
         13    1    3    3    0    0  0.22491276990E+02  0.32890494393E+02 -0.89765624424E+02  0.98211611650E+02  0.10570000000E+00 0.  1.
<mgrwt>
<rscale>  0 0.91771737E+02</rscale>
<asrwt>0</asrwt>
<pdfrwt beam="1">  1        1 0.25778212E-02 0.91771737E+02</pdfrwt>
<pdfrwt beam="2">  1       -1 0.19332072E-01 0.91771737E+02</pdfrwt>
<totfact> 0.76484383E+04</totfact>
</mgrwt>
</event>
<event>
 5   1  0.1388354E+00  0.9200036E+02  0.7818608E-02  0.1298079E+00
          1   -1    0    0  501    0  0.00000000000E+00  0.00000000000E+00  0.76186711782E+02  0.76186711925E+02  0.46700000000E-02 0. -1.
         -1   -1    0    0    0  501 -0.00000000000E+00 -0.00000000000E+00 -0.27774087431E+02  0.27774087823E+02  0.46700000000E-02 0.  1.
         23    2    1    2    0    0  0.00000000000E+00  0.00000000000E+00  0.48412624351E+02  0.10396079975E+03  0.92000356998E+02 0.  0.
        -13    1    3    3    0    0  0.40427011211E+02  0.19675809181E+02  0.13219988204E+02  0.46864271711E+02  0.10570000000E+00 0.  1.
         13    1    3    3    0    0 -0.40427011211E+02 -0.19675809181E+02  0.35192636147E+02  0.57096528037E+02  0.10570000000E+00 0. -1.
<mgrwt>
<rscale>  0 0.92000357E+02</rscale>
<asrwt>0</asrwt>
<pdfrwt beam="1">  1        1 0.11721033E-01 0.92000357E+02</pdfrwt>
<pdfrwt beam="2">  1       -1 0.42729366E-02 0.92000357E+02</pdfrwt>
<totfact> 0.97529041E+04</totfact>
</mgrwt>
</event>
<event>
 5   1  0.1388354E+00  0.1023841E+03  0.7818608E-02  0.1275361E+00
         -1   -1    0    0    0  501 -0.00000000000E+00  0.00000000000E+00  0.26280630728E+03  0.26280630732E+03  0.46700000000E-02 0.  1.
          1   -1    0    0  501    0  0.00000000000E+00 -0.00000000000E+00 -0.99717090017E+01  0.99717100952E+01  0.46700000000E-02 0. -1.
         23    2    1    2    0    0  0.00000000000E+00  0.00000000000E+00  0.25283459828E+03  0.27277801742E+03  0.10238414281E+03 0.  0.
        -13    1    3    3    0    0  0.11284154257E+02  0.46439600167E+02  0.17530109797E+03  0.18169880220E+03  0.10570000000E+00 0.  1.
         13    1    3    3    0    0 -0.11284154257E+02 -0.46439600167E+02  0.77533500312E+02  0.91079215215E+02  0.10570000000E+00 0. -1.
<mgrwt>
<rscale>  0 0.10238414E+03</rscale>
<asrwt>0</asrwt>
<pdfrwt beam="2">  1        1 0.15341090E-02 0.10238414E+03</pdfrwt>
<pdfrwt beam="1">  1       -1 0.40431743E-01 0.10238414E+03</pdfrwt>
<totfact> 0.46963741E+04</totfact>
</mgrwt>
</event>
<event>
 5   1  0.1388354E+00  0.9101557E+02  0.7818608E-02  0.1300411E+00
         -1   -1    0    0    0  501 -0.00000000000E+00  0.00000000000E+00  0.16240309453E+03  0.16240309460E+03  0.46700000000E-02 0. -1.
          1   -1    0    0  501    0  0.00000000000E+00 -0.00000000000E+00 -0.12751965381E+02  0.12751966236E+02  0.46700000000E-02 0.  1.
         23    2    1    2    0    0  0.00000000000E+00  0.00000000000E+00  0.14965112915E+03  0.17515506084E+03  0.91015574930E+02 0.  0.
        -13    1    3    3    0    0 -0.50689348808E+01 -0.43210358871E+02  0.49141646015E+02  0.65633389065E+02  0.10570000000E+00 0.  1.
         13    1    3    3    0    0  0.50689348808E+01  0.43210358871E+02  0.10050948314E+03  0.10952167177E+03  0.10570000000E+00 0. -1.
<mgrwt>
<rscale>  0 0.91015575E+02</rscale>
<asrwt>0</asrwt>
<pdfrwt beam="2">  1        1 0.19618411E-02 0.91015575E+02</pdfrwt>
<pdfrwt beam="1">  1       -1 0.24985089E-01 0.91015575E+02</pdfrwt>
<totfact> 0.73712690E+04</totfact>
</mgrwt>
</event>
<event>
 5   1  0.1388354E+00  0.9176528E+02  0.7818608E-02  0.1298632E+00
         -1   -1    0    0    0  501 -0.00000000000E+00  0.00000000000E+00  0.29936182627E+03  0.29936182631E+03  0.46700000000E-02 0.  1.
          1   -1    0    0  501    0  0.00000000000E+00 -0.00000000000E+00 -0.70323470764E+01  0.70323486270E+01  0.46700000000E-02 0. -1.
         23    2    1    2    0    0  0.00000000000E+00  0.00000000000E+00  0.29232947919E+03  0.30639417493E+03  0.91765276807E+02 0.  0.
        -13    1    3    3    0    0  0.36387794807E+02 -0.26464201819E+02  0.11615561230E+03  0.12456549695E+03  0.10570000000E+00 0.  1.
         13    1    3    3    0    0 -0.36387794807E+02  0.26464201819E+02  0.17617386690E+03  0.18182867799E+03  0.10570000000E+00 0. -1.
<mgrwt>
<rscale>  0 0.91765277E+02</rscale>
<asrwt>0</asrwt>
<pdfrwt beam="2">  1        1 0.10818999E-02 0.91765277E+02</pdfrwt>
<pdfrwt beam="1">  1       -1 0.46055657E-01 0.91765277E+02</pdfrwt>
<totfact> 0.59624620E+04</totfact>
</mgrwt>
</event>
<event>
 5   1  0.1388354E+00  0.9418246E+02  0.7818608E-02  0.1293028E+00
         -1   -1    0    0    0  501 -0.00000000000E+00  0.00000000000E+00  0.19796826411E+03  0.19796826417E+03  0.46700000000E-02 0.  1.
          1   -1    0    0  501    0  0.00000000000E+00 -0.00000000000E+00 -0.11201714622E+02  0.11201715596E+02  0.46700000000E-02 0. -1.
         23    2    1    2    0    0  0.00000000000E+00  0.00000000000E+00  0.18676654949E+03  0.20916997976E+03  0.94182463472E+02 0.  0.
        -13    1    3    3    0    0 -0.87858196915E+00 -0.41354822840E+02  0.14336982674E+03  0.14921766541E+03  0.10570000000E+00 0.  1.
         13    1    3    3    0    0  0.87858196915E+00  0.41354822840E+02  0.43396722751E+02  0.59952314354E+02  0.10570000000E+00 0. -1.
<mgrwt>
<rscale>  0 0.94182463E+02</rscale>
<asrwt>0</asrwt>
<pdfrwt beam="2">  1        1 0.17233408E-02 0.94182463E+02</pdfrwt>
<pdfrwt beam="1">  1       -1 0.30456655E-01 0.94182463E+02</pdfrwt>
<totfact> 0.63976494E+04</totfact>
</mgrwt>
</event>
<event>
 5   1  0.1388354E+00  0.9290600E+02  0.7818608E-02  0.1295963E+00
         -1   -1    0    0    0  501 -0.00000000000E+00  0.00000000000E+00  0.87471220868E+02  0.87471220993E+02  0.46700000000E-02 0.  1.
          1   -1    0    0  501    0  0.00000000000E+00 -0.00000000000E+00 -0.24669611212E+02  0.24669611654E+02  0.46700000000E-02 0. -1.
         23    2    1    2    0    0  0.00000000000E+00  0.00000000000E+00  0.62801609657E+02  0.11214083265E+03  0.92905996422E+02 0.  0.
        -13    1    3    3    0    0  0.14220413740E+02 -0.24898490114E+02  0.75514853206E+02  0.80775362606E+02  0.10570000000E+00 0.  1.
         13    1    3    3    0    0 -0.14220413740E+02  0.24898490114E+02 -0.12713243549E+02  0.31365470041E+02  0.10570000000E+00 0. -1.
<mgrwt>
<rscale>  0 0.92905996E+02</rscale>
<asrwt>0</asrwt>
<pdfrwt beam="2">  1        1 0.37953249E-02 0.92905996E+02</pdfrwt>
<pdfrwt beam="1">  1       -1 0.13457111E-01 0.92905996E+02</pdfrwt>
<totfact> 0.79431391E+04</totfact>
</mgrwt>
</event>
<event>
 5   1  0.1388354E+00  0.9674115E+02  0.7818608E-02  0.1287302E+00
         -1   -1    0    0    0  501 -0.00000000000E+00  0.00000000000E+00  0.29634694976E+02  0.29634695344E+02  0.46700000000E-02 0.  1.
          1   -1    0    0  501    0  0.00000000000E+00 -0.00000000000E+00 -0.78951805222E+02  0.78951805360E+02  0.46700000000E-02 0. -1.
         23    2    1    2    0    0  0.00000000000E+00  0.00000000000E+00 -0.49317110246E+02  0.10858650070E+03  0.96741153457E+02 0.  0.
        -13    1    3    3    0    0 -0.35810221192E+02  0.17220558459E+02 -0.55618107670E+02  0.68354258454E+02  0.10570000000E+00 0. -1.
         13    1    3    3    0    0  0.35810221192E+02 -0.17220558459E+02  0.63009974244E+01  0.40232242251E+02  0.10570000000E+00 0.  1.
<mgrwt>
<rscale>  0 0.96741153E+02</rscale>
<asrwt>0</asrwt>
<pdfrwt beam="2">  1        1 0.12146432E-01 0.96741153E+02</pdfrwt>
<pdfrwt beam="1">  1       -1 0.45591839E-02 0.96741153E+02</pdfrwt>
<totfact> 0.85372025E+04</totfact>
</mgrwt>
</event>
<event>
 5   1  0.1388354E+00  0.9110527E+02  0.7818608E-02  0.1300197E+00
         -1   -1    0    0    0  501 -0.00000000000E+00  0.00000000000E+00  0.17059653844E+02  0.17059654483E+02  0.46700000000E-02 0.  1.
          1   -1    0    0  501    0  0.00000000000E+00 -0.00000000000E+00 -0.12163450140E+03  0.12163450149E+03  0.46700000000E-02 0. -1.
         23    2    1    2    0    0  0.00000000000E+00  0.00000000000E+00 -0.10457484756E+03  0.13869415598E+03  0.91105269661E+02 0.  0.
        -13    1    3    3    0    0 -0.13397264235E+02 -0.39411003244E+02 -0.80453685868E+02  0.90584328711E+02  0.10570000000E+00 0. -1.
         13    1    3    3    0    0  0.13397264235E+02  0.39411003244E+02 -0.24121161691E+02  0.48109827266E+02  0.10570000000E+00 0.  1.
<mgrwt>
<rscale>  0 0.91105270E+02</rscale>
<asrwt>0</asrwt>
<pdfrwt beam="2">  1        1 0.18713000E-01 0.91105270E+02</pdfrwt>
<pdfrwt beam="1">  1       -1 0.26245623E-02 0.91105270E+02</pdfrwt>
<totfact> 0.10822311E+05</totfact>
</mgrwt>
</event>
<event>
 5   1  0.1388354E+00  0.9278989E+02  0.7818608E-02  0.1296233E+00
          1   -1    0    0  501    0  0.00000000000E+00  0.00000000000E+00  0.12970530694E+03  0.12970530702E+03  0.46700000000E-02 0. -1.
         -1   -1    0    0    0  501 -0.00000000000E+00 -0.00000000000E+00 -0.16595241368E+02  0.16595242025E+02  0.46700000000E-02 0.  1.
         23    2    1    2    0    0  0.00000000000E+00  0.00000000000E+00  0.11311006557E+03  0.14630054905E+03  0.92789890174E+02 0.  0.
        -13    1    3    3    0    0 -0.42096604573E+02  0.10359336411E+02  0.30502001220E+02  0.53007765642E+02  0.10570000000E+00 0.  1.
         13    1    3    3    0    0  0.42096604573E+02 -0.10359336411E+02  0.82608064352E+02  0.93292783407E+02  0.10570000000E+00 0. -1.
<mgrwt>
<rscale>  0 0.92789890E+02</rscale>
<asrwt>0</asrwt>
<pdfrwt beam="1">  1        1 0.19954663E-01 0.92789890E+02</pdfrwt>
<pdfrwt beam="2">  1       -1 0.25531140E-02 0.92789890E+02</pdfrwt>
<totfact> 0.10414985E+05</totfact>
</mgrwt>
</event>
<event>
 5   1  0.1388354E+00  0.9399773E+02  0.7818608E-02  0.1293450E+00
          1   -1    0    0  501    0  0.00000000000E+00  0.00000000000E+00  0.15541528545E+03  0.15541528552E+03  0.46700000000E-02 0. -1.
         -1   -1    0    0    0  501 -0.00000000000E+00 -0.00000000000E+00 -0.14212844128E+02  0.14212844895E+02  0.46700000000E-02 0.  1.
         23    2    1    2    0    0  0.00000000000E+00  0.00000000000E+00  0.14120244132E+03  0.16962813042E+03  0.93997729723E+02 0.  0.
        -13    1    3    3    0    0 -0.17332015801E+02  0.41158099723E+02  0.44171761949E+02  0.62813562792E+02  0.10570000000E+00 0.  1.
         13    1    3    3    0    0  0.17332015801E+02 -0.41158099723E+02  0.97030679374E+02  0.10681456762E+03  0.10570000000E+00 0. -1.
<mgrwt>
<rscale>  0 0.93997730E+02</rscale>
<asrwt>0</asrwt>
<pdfrwt beam="1">  1        1 0.23910045E-01 0.93997730E+02</pdfrwt>
<pdfrwt beam="2">  1       -1 0.21865914E-02 0.93997730E+02</pdfrwt>
<totfact> 0.10394694E+05</totfact>
</mgrwt>
</event>
<event>
 5   1  0.1388354E+00  0.9233393E+02  0.7818608E-02  0.1297296E+00
         -1   -1    0    0    0  501 -0.00000000000E+00  0.00000000000E+00  0.26866511272E+02  0.26866511678E+02  0.46700000000E-02 0.  1.
          1   -1    0    0  501    0  0.00000000000E+00 -0.00000000000E+00 -0.79332538815E+02  0.79332538953E+02  0.46700000000E-02 0. -1.
         23    2    1    2    0    0  0.00000000000E+00  0.00000000000E+00 -0.52466027543E+02  0.10619905063E+03  0.92333928264E+02 0.  0.
        -13    1    3    3    0    0  0.12710920387E+02 -0.43244815920E+02 -0.37717134805E+02  0.58773080840E+02  0.10570000000E+00 0.  1.
         13    1    3    3    0    0 -0.12710920387E+02  0.43244815920E+02 -0.14748892738E+02  0.47425969790E+02  0.10570000000E+00 0. -1.
<mgrwt>
<rscale>  0 0.92333928E+02</rscale>
<asrwt>0</asrwt>
<pdfrwt beam="2">  1        1 0.12205006E-01 0.92333928E+02</pdfrwt>
<pdfrwt beam="1">  1       -1 0.41333095E-02 0.92333928E+02</pdfrwt>
<totfact> 0.97181119E+04</totfact>
</mgrwt>
</event>
<event>
 5   1  0.1388354E+00  0.9091656E+02  0.7818608E-02  0.1300647E+00
          1   -1    0    0  501    0  0.00000000000E+00  0.00000000000E+00  0.41145868756E+02  0.41145869021E+02  0.46700000000E-02 0.  1.
         -1   -1    0    0    0  501 -0.00000000000E+00 -0.00000000000E+00 -0.50222664834E+02  0.50222665051E+02  0.46700000000E-02 0. -1.
         23    2    1    2    0    0  0.00000000000E+00  0.00000000000E+00 -0.90767960778E+01  0.91368534072E+02  0.90916559501E+02 0.  0.
        -13    1    3    3    0    0  0.20938777479E+02  0.94270915073E+01 -0.43965326813E+02  0.49601044252E+02  0.10570000000E+00 0. -1.
         13    1    3    3    0    0 -0.20938777479E+02 -0.94270915073E+01  0.34888530735E+02  0.41767489821E+02  0.10570000000E+00 0.  1.
<mgrwt>
<rscale>  0 0.90916560E+02</rscale>
<asrwt>0</asrwt>
<pdfrwt beam="1">  1        1 0.63301337E-02 0.90916560E+02</pdfrwt>
<pdfrwt beam="2">  1       -1 0.77265638E-02 0.90916560E+02</pdfrwt>
<totfact> 0.91790190E+04</totfact>
</mgrwt>
</event>
<event>
 5   1  0.1388354E+00  0.9112364E+02  0.7818608E-02  0.1300153E+00
          1   -1    0    0  501    0  0.00000000000E+00  0.00000000000E+00  0.55725225274E+02  0.55725225470E+02  0.46700000000E-02 0. -1.
         -1   -1    0    0    0  501 -0.00000000000E+00 -0.00000000000E+00 -0.37252055626E+02  0.37252055919E+02  0.46700000000E-02 0.  1.
         23    2    1    2    0    0  0.00000000000E+00  0.00000000000E+00  0.18473169648E+02  0.92977281389E+02  0.91123635011E+02 0.  0.
        -13    1    3    3    0    0  0.42088941099E+02  0.41554013095E+01 -0.80527717154E+01  0.43053508889E+02  0.10570000000E+00 0.  1.
         13    1    3    3    0    0 -0.42088941099E+02 -0.41554013095E+01  0.26525941363E+02  0.49923772499E+02  0.10570000000E+00 0. -1.
<mgrwt>
<rscale>  0 0.91123635E+02</rscale>
<asrwt>0</asrwt>
<pdfrwt beam="1">  1        1 0.85731116E-02 0.91123635E+02</pdfrwt>
<pdfrwt beam="2">  1       -1 0.57310855E-02 0.91123635E+02</pdfrwt>
<totfact> 0.95457752E+04</totfact>
</mgrwt>
</event>
<event>
 5   1  0.1388354E+00  0.8731884E+02  0.7818608E-02  0.1309478E+00
          1   -1    0    0  501    0  0.00000000000E+00  0.00000000000E+00  0.11745834073E+03  0.11745834082E+03  0.46700000000E-02 0. -1.
         -1   -1    0    0    0  501 -0.00000000000E+00 -0.00000000000E+00 -0.16228264059E+02  0.16228264731E+02  0.46700000000E-02 0.  1.
         23    2    1    2    0    0  0.00000000000E+00  0.00000000000E+00  0.10123007667E+03  0.13368660555E+03  0.87318841504E+02 0.  0.
        -13    1    3    3    0    0  0.25398807545E+02 -0.10759986325E+02 -0.11970897963E+01  0.27610159849E+02  0.10570000000E+00 0.  1.
         13    1    3    3    0    0 -0.25398807545E+02  0.10759986325E+02  0.10242716646E+03  0.10607644570E+03  0.10570000000E+00 0. -1.
<mgrwt>
<rscale>  0 0.87318842E+02</rscale>
<asrwt>0</asrwt>
<pdfrwt beam="1">  1        1 0.18070514E-01 0.87318842E+02</pdfrwt>
<pdfrwt beam="2">  1       -1 0.24966561E-02 0.87318842E+02</pdfrwt>
<totfact> 0.12065306E+05</totfact>
</mgrwt>
</event>
<event>
 5   1  0.1388354E+00  0.9214646E+02  0.7818608E-02  0.1297735E+00
          1   -1    0    0  501    0  0.00000000000E+00  0.00000000000E+00  0.32178022950E+02  0.32178023288E+02  0.46700000000E-02 0. -1.
         -1   -1    0    0    0  501 -0.00000000000E+00 -0.00000000000E+00 -0.65968702733E+02  0.65968702898E+02  0.46700000000E-02 0.  1.
         23    2    1    2    0    0  0.00000000000E+00  0.00000000000E+00 -0.33790679783E+02  0.98146726186E+02  0.92146458537E+02 0.  0.
        -13    1    3    3    0    0 -0.12057307515E+02  0.28173743782E+02 -0.53538955826E+02  0.61689297829E+02  0.10570000000E+00 0.  1.
         13    1    3    3    0    0  0.12057307515E+02 -0.28173743782E+02  0.19748276044E+02  0.36457428357E+02  0.10570000000E+00 0. -1.
<mgrwt>
<rscale>  0 0.92146459E+02</rscale>
<asrwt>0</asrwt>
<pdfrwt beam="1">  1        1 0.49504651E-02 0.92146459E+02</pdfrwt>
<pdfrwt beam="2">  1       -1 0.10149031E-01 0.92146459E+02</pdfrwt>
<totfact> 0.85044209E+04</totfact>
</mgrwt>
</event>
<event>
 5   1  0.1388354E+00  0.9129700E+02  0.7818608E-02  0.1299741E+00
          1   -1    0    0  501    0  0.00000000000E+00  0.00000000000E+00  0.24156532643E+03  0.24156532647E+03  0.46700000000E-02 0. -1.
         -1   -1    0    0    0  501 -0.00000000000E+00 -0.00000000000E+00 -0.86261780926E+01  0.86261793568E+01  0.46700000000E-02 0.  1.
         23    2    1    2    0    0  0.00000000000E+00  0.00000000000E+00  0.23293914834E+03  0.25019150583E+03  0.91297003030E+02 0.  0.
        -13    1    3    3    0    0 -0.40413707132E+02  0.20677485593E+02  0.10334177003E+03  0.11287319761E+03  0.10570000000E+00 0. -1.
         13    1    3    3    0    0  0.40413707132E+02 -0.20677485593E+02  0.12959737831E+03  0.13731830822E+03  0.10570000000E+00 0.  1.
<mgrwt>
<rscale>  0 0.91297003E+02</rscale>
<asrwt>0</asrwt>
<pdfrwt beam="1">  1        1 0.37163895E-01 0.91297003E+02</pdfrwt>
<pdfrwt beam="2">  1       -1 0.13271045E-02 0.91297003E+02</pdfrwt>
<totfact> 0.12241347E+05</totfact>
</mgrwt>
</event>
<event>
 5   1  0.1388354E+00  0.9089262E+02  0.7818608E-02  0.1300704E+00
         -1   -1    0    0    0  501 -0.00000000000E+00  0.00000000000E+00  0.67520416347E+02  0.67520416508E+02  0.46700000000E-02 0.  1.
          1   -1    0    0  501    0  0.00000000000E+00 -0.00000000000E+00 -0.30588780322E+02  0.30588780678E+02  0.46700000000E-02 0. -1.
         23    2    1    2    0    0  0.00000000000E+00  0.00000000000E+00  0.36931636025E+02  0.98109197187E+02  0.90892622545E+02 0.  0.
        -13    1    3    3    0    0 -0.14173282002E+02 -0.17699337647E+02 -0.24046623151E+02  0.33051470970E+02  0.10570000000E+00 0. -1.
         13    1    3    3    0    0  0.14173282002E+02  0.17699337647E+02  0.60978259176E+02  0.65057726216E+02  0.10570000000E+00 0.  1.
<mgrwt>
<rscale>  0 0.90892623E+02</rscale>
<asrwt>0</asrwt>
<pdfrwt beam="2">  1        1 0.47059662E-02 0.90892623E+02</pdfrwt>
<pdfrwt beam="1">  1       -1 0.10387756E-01 0.90892623E+02</pdfrwt>
<totfact> 0.87737758E+04</totfact>
</mgrwt>
</event>
<event>
 5   1  0.1388354E+00  0.9143123E+02  0.7818608E-02  0.1299422E+00
          1   -1    0    0  501    0  0.00000000000E+00  0.00000000000E+00  0.13874429339E+02  0.13874430125E+02  0.46700000000E-02 0. -1.
         -1   -1    0    0    0  501 -0.00000000000E+00 -0.00000000000E+00 -0.15063086041E+03  0.15063086048E+03  0.46700000000E-02 0.  1.
         23    2    1    2    0    0  0.00000000000E+00  0.00000000000E+00 -0.13675643107E+03  0.16450529061E+03  0.91431226605E+02 0.  0.
        -13    1    3    3    0    0  0.38814417628E+02 -0.20627020230E+02 -0.45771396507E+02  0.63459159229E+02  0.10570000000E+00 0. -1.
         13    1    3    3    0    0 -0.38814417628E+02  0.20627020230E+02 -0.90985034565E+02  0.10104613138E+03  0.10570000000E+00 0.  1.
<mgrwt>
<rscale>  0 0.91431227E+02</rscale>
<asrwt>0</asrwt>
<pdfrwt beam="1">  1        1 0.21345278E-02 0.91431227E+02</pdfrwt>
<pdfrwt beam="2">  1       -1 0.23173977E-01 0.91431227E+02</pdfrwt>
<totfact> 0.74176013E+04</totfact>
</mgrwt>
</event>
<event>
 5   1  0.1388354E+00  0.9516988E+02  0.7818608E-02  0.1290794E+00
         -1   -1    0    0    0  501 -0.00000000000E+00  0.00000000000E+00  0.19063057642E+02  0.19063058214E+02  0.46700000000E-02 0.  1.
          1   -1    0    0  501    0  0.00000000000E+00 -0.00000000000E+00 -0.11878086585E+03  0.11878086594E+03  0.46700000000E-02 0. -1.
         23    2    1    2    0    0  0.00000000000E+00  0.00000000000E+00 -0.99717808205E+02  0.13784392415E+03  0.95169880492E+02 0.  0.
        -13    1    3    3    0    0  0.47326772853E+02 -0.27534366872E+01 -0.43902740340E+02  0.64613207814E+02  0.10570000000E+00 0.  1.
         13    1    3    3    0    0 -0.47326772853E+02  0.27534366872E+01 -0.55815067866E+02  0.73230716340E+02  0.10570000000E+00 0. -1.
<mgrwt>
<rscale>  0 0.95169880E+02</rscale>
<asrwt>0</asrwt>
<pdfrwt beam="2">  1        1 0.18273979E-01 0.95169880E+02</pdfrwt>
<pdfrwt beam="1">  1       -1 0.29327782E-02 0.95169880E+02</pdfrwt>
<totfact> 0.95703385E+04</totfact>
</mgrwt>
</event>
<event>
 5   1  0.1388354E+00  0.9146945E+02  0.7818608E-02  0.1299332E+00
         -1   -1    0    0    0  501 -0.00000000000E+00  0.00000000000E+00  0.15596862110E+03  0.15596862117E+03  0.46700000000E-02 0.  1.
          1   -1    0    0  501    0  0.00000000000E+00 -0.00000000000E+00 -0.13410807157E+02  0.13410807970E+02  0.46700000000E-02 0. -1.
         23    2    1    2    0    0  0.00000000000E+00  0.00000000000E+00  0.14255781395E+03  0.16937942914E+03  0.91469452276E+02 0.  0.
        -13    1    3    3    0    0 -0.13428422856E+02  0.43579492246E+02  0.77736031885E+02  0.90124339168E+02  0.10570000000E+00 0.  1.
         13    1    3    3    0    0  0.13428422856E+02 -0.43579492246E+02  0.64821782060E+02  0.79255089974E+02  0.10570000000E+00 0. -1.
<mgrwt>
<rscale>  0 0.91469452E+02</rscale>
<asrwt>0</asrwt>
<pdfrwt beam="2">  1        1 0.20632013E-02 0.91469452E+02</pdfrwt>
<pdfrwt beam="1">  1       -1 0.23995172E-01 0.91469452E+02</pdfrwt>
<totfact> 0.73485089E+04</totfact>
</mgrwt>
</event>
<event>
 5   1  0.1388354E+00  0.9481758E+02  0.7818608E-02  0.1291587E+00
          1   -1    0    0  501    0  0.00000000000E+00  0.00000000000E+00  0.25706415978E+02  0.25706416402E+02  0.46700000000E-02 0. -1.
         -1   -1    0    0    0  501 -0.00000000000E+00 -0.00000000000E+00 -0.87433174705E+02  0.87433174830E+02  0.46700000000E-02 0.  1.
         23    2    1    2    0    0  0.00000000000E+00  0.00000000000E+00 -0.61726758728E+02  0.11313959123E+03  0.94817584662E+02 0.  0.
        -13    1    3    3    0    0  0.34681582451E+02 -0.20693546139E+01  0.76262971389E+01  0.35570577313E+02  0.10570000000E+00 0. -1.
         13    1    3    3    0    0 -0.34681582451E+02  0.20693546139E+01 -0.69353055867E+02  0.77569013919E+02  0.10570000000E+00 0.  1.
<mgrwt>
<rscale>  0 0.94817585E+02</rscale>
<asrwt>0</asrwt>
<pdfrwt beam="1">  1        1 0.39548333E-02 0.94817585E+02</pdfrwt>
<pdfrwt beam="2">  1       -1 0.13451258E-01 0.94817585E+02</pdfrwt>
<totfact> 0.75386171E+04</totfact>
</mgrwt>
</event>
<event>
 5   1  0.1388354E+00  0.8781012E+02  0.7818608E-02  0.1308243E+00
          1   -1    0    0  501    0  0.00000000000E+00  0.00000000000E+00  0.58176512975E+02  0.58176513162E+02  0.46700000000E-02 0. -1.
         -1   -1    0    0    0  501 -0.00000000000E+00 -0.00000000000E+00 -0.33134579808E+02  0.33134580138E+02  0.46700000000E-02 0.  1.
         23    2    1    2    0    0  0.00000000000E+00  0.00000000000E+00  0.25041933166E+02  0.91311093300E+02  0.87810120959E+02 0.  0.
        -13    1    3    3    0    0 -0.18531331215E+02  0.32049772301E+02 -0.12021833861E+02  0.38924719691E+02  0.10570000000E+00 0.  1.
         13    1    3    3    0    0  0.18531331215E+02 -0.32049772301E+02  0.37063767027E+02  0.52386373609E+02  0.10570000000E+00 0. -1.
<mgrwt>
<rscale>  0 0.87810121E+02</rscale>
<asrwt>0</asrwt>
<pdfrwt beam="1">  1        1 0.89502328E-02 0.87810121E+02</pdfrwt>
<pdfrwt beam="2">  1       -1 0.50976277E-02 0.87810121E+02</pdfrwt>
<totfact> 0.10644714E+05</totfact>
</mgrwt>
</event>
<event>
 5   1  0.1388354E+00  0.9083875E+02  0.7818608E-02  0.1300833E+00
         -1   -1    0    0    0  501 -0.00000000000E+00  0.00000000000E+00  0.74430293746E+02  0.74430293892E+02  0.46700000000E-02 0.  1.
          1   -1    0    0  501    0  0.00000000000E+00 -0.00000000000E+00 -0.27716130744E+02  0.27716131138E+02  0.46700000000E-02 0. -1.
         23    2    1    2    0    0  0.00000000000E+00  0.00000000000E+00  0.46714163002E+02  0.10214642503E+03  0.90838753412E+02 0.  0.
        -13    1    3    3    0    0  0.84743299081E+01  0.25049762853E+02  0.64880786288E+02  0.70063060797E+02  0.10570000000E+00 0.  1.
         13    1    3    3    0    0 -0.84743299081E+01 -0.25049762853E+02 -0.18166623286E+02  0.32083364233E+02  0.10570000000E+00 0. -1.
<mgrwt>
<rscale>  0 0.90838753E+02</rscale>
<asrwt>0</asrwt>
<pdfrwt beam="2">  1        1 0.42640201E-02 0.90838753E+02</pdfrwt>
<pdfrwt beam="1">  1       -1 0.11450815E-01 0.90838753E+02</pdfrwt>
<totfact> 0.86493326E+04</totfact>
</mgrwt>
</event>
<event>
 5   1  0.1388354E+00  0.9078282E+02  0.7818608E-02  0.1300967E+00
          1   -1    0    0  501    0  0.00000000000E+00  0.00000000000E+00  0.11173619762E+02  0.11173620738E+02  0.46700000000E-02 0. -1.
         -1   -1    0    0    0  501 -0.00000000000E+00 -0.00000000000E+00 -0.18439682535E+03  0.18439682541E+03  0.46700000000E-02 0.  1.
         23    2    1    2    0    0  0.00000000000E+00  0.00000000000E+00 -0.17322320559E+03  0.19557044615E+03  0.90782820248E+02 0.  0.
        -13    1    3    3    0    0 -0.28807298520E+02  0.13505530393E+02 -0.15635495383E+03  0.15955921333E+03  0.10570000000E+00 0.  1.
         13    1    3    3    0    0  0.28807298520E+02 -0.13505530393E+02 -0.16868251762E+02  0.36011232820E+02  0.10570000000E+00 0. -1.
<mgrwt>
<rscale>  0 0.90782820E+02</rscale>
<asrwt>0</asrwt>
<pdfrwt beam="1">  1        1 0.17190186E-02 0.90782820E+02</pdfrwt>
<pdfrwt beam="2">  1       -1 0.28368740E-01 0.90782820E+02</pdfrwt>
<totfact> 0.71813970E+04</totfact>
</mgrwt>
</event>
<event>
 5   1  0.1388354E+00  0.8890212E+02  0.7818608E-02  0.1305532E+00
          1   -1    0    0  501    0  0.00000000000E+00  0.00000000000E+00  0.10141510737E+02  0.10141511812E+02  0.46700000000E-02 0. -1.
         -1   -1    0    0    0  501 -0.00000000000E+00 -0.00000000000E+00 -0.19483257921E+03  0.19483257926E+03  0.46700000000E-02 0.  1.
         23    2    1    2    0    0  0.00000000000E+00  0.00000000000E+00 -0.18469106847E+03  0.20497409107E+03  0.88902121683E+02 0.  0.
        -13    1    3    3    0    0 -0.84342084367E+01  0.32002027805E+02 -0.23925842772E+02  0.40837761697E+02  0.10570000000E+00 0. -1.
         13    1    3    3    0    0  0.84342084367E+01 -0.32002027805E+02 -0.16076522570E+03  0.16413632938E+03  0.10570000000E+00 0.  1.
<mgrwt>
<rscale>  0 0.88902122E+02</rscale>
<asrwt>0</asrwt>
<pdfrwt beam="1">  1        1 0.15602327E-02 0.88902122E+02</pdfrwt>
<pdfrwt beam="2">  1       -1 0.29974240E-01 0.88902122E+02</pdfrwt>
<totfact> 0.74691719E+04</totfact>
</mgrwt>
</event>
<event>
 5   1  0.1388354E+00  0.8605099E+02  0.7818608E-02  0.1312707E+00
         -1   -1    0    0    0  501 -0.00000000000E+00  0.00000000000E+00  0.20474073958E+02  0.20474074491E+02  0.46700000000E-02 0.  1.
          1   -1    0    0  501    0  0.00000000000E+00 -0.00000000000E+00 -0.90416457720E+02  0.90416457840E+02  0.46700000000E-02 0. -1.
         23    2    1    2    0    0  0.00000000000E+00  0.00000000000E+00 -0.69942383762E+02  0.11089053233E+03  0.86050991362E+02 0.  0.
        -13    1    3    3    0    0  0.27818180161E+02  0.70208099894E+01 -0.76289585131E+02  0.81506164751E+02  0.10570000000E+00 0. -1.
         13    1    3    3    0    0 -0.27818180161E+02 -0.70208099894E+01  0.63472013695E+01  0.29384367580E+02  0.10570000000E+00 0.  1.
<mgrwt>
<rscale>  0 0.86050991E+02</rscale>
<asrwt>0</asrwt>
<pdfrwt beam="2">  1        1 0.13910224E-01 0.86050991E+02</pdfrwt>
<pdfrwt beam="1">  1       -1 0.31498576E-02 0.86050991E+02</pdfrwt>
<totfact> 0.12025946E+05</totfact>
</mgrwt>
</event>
<event>
 5   1  0.1388354E+00  0.9076681E+02  0.7818608E-02  0.1301005E+00
          1   -1    0    0  501    0  0.00000000000E+00  0.00000000000E+00  0.48906022118E+02  0.48906022341E+02  0.46700000000E-02 0. -1.
         -1   -1    0    0    0  501 -0.00000000000E+00 -0.00000000000E+00 -0.42114516809E+02  0.42114517068E+02  0.46700000000E-02 0.  1.
         23    2    1    2    0    0  0.00000000000E+00  0.00000000000E+00  0.67915053089E+01  0.91020539408E+02  0.90766811390E+02 0.  0.
        -13    1    3    3    0    0 -0.33486782346E+02 -0.18480824668E+02 -0.21100731727E+02  0.43682462433E+02  0.10570000000E+00 0.  1.
         13    1    3    3    0    0  0.33486782346E+02  0.18480824668E+02  0.27892237036E+02  0.47338076975E+02  0.10570000000E+00 0. -1.
<mgrwt>
<rscale>  0 0.90766811E+02</rscale>
<asrwt>0</asrwt>
<pdfrwt beam="1">  1        1 0.75240034E-02 0.90766811E+02</pdfrwt>
<pdfrwt beam="2">  1       -1 0.64791565E-02 0.90766811E+02</pdfrwt>
<totfact> 0.94638296E+04</totfact>
</mgrwt>
</event>
<event>
 5   1  0.1388354E+00  0.9119466E+02  0.7818608E-02  0.1299984E+00
         -1   -1    0    0    0  501 -0.00000000000E+00  0.00000000000E+00  0.19940250526E+02  0.19940251072E+02  0.46700000000E-02 0.  1.
          1   -1    0    0  501    0  0.00000000000E+00 -0.00000000000E+00 -0.10426732199E+03  0.10426732209E+03  0.46700000000E-02 0. -1.
         23    2    1    2    0    0  0.00000000000E+00  0.00000000000E+00 -0.84327071464E+02  0.12420757317E+03  0.91194661304E+02 0.  0.
        -13    1    3    3    0    0 -0.20316117307E+02 -0.30374882388E+02 -0.79307266246E+02  0.87321427808E+02  0.10570000000E+00 0. -1.
         13    1    3    3    0    0  0.20316117307E+02  0.30374882388E+02 -0.50198052185E+01  0.36886145359E+02  0.10570000000E+00 0.  1.
<mgrwt>
<rscale>  0 0.91194661E+02</rscale>
<asrwt>0</asrwt>
<pdfrwt beam="2">  1        1 0.16041126E-01 0.91194661E+02</pdfrwt>
<pdfrwt beam="1">  1       -1 0.30677310E-02 0.91194661E+02</pdfrwt>
<totfact> 0.10512766E+05</totfact>
</mgrwt>
</event>
<event>
 5   1  0.1388354E+00  0.9566937E+02  0.7818608E-02  0.1289676E+00
         -1   -1    0    0    0  501 -0.00000000000E+00  0.00000000000E+00  0.17241918866E+02  0.17241919498E+02  0.46700000000E-02 0.  1.
          1   -1    0    0  501    0  0.00000000000E+00 -0.00000000000E+00 -0.13270896467E+03  0.13270896475E+03  0.46700000000E-02 0. -1.
         23    2    1    2    0    0  0.00000000000E+00  0.00000000000E+00 -0.11546704581E+03  0.14995088425E+03  0.95669373474E+02 0.  0.
        -13    1    3    3    0    0 -0.12636683362E+02  0.18320222521E+02  0.86324748459E+01  0.23871470714E+02  0.10570000000E+00 0.  1.
         13    1    3    3    0    0  0.12636683362E+02 -0.18320222521E+02 -0.12409952065E+03  0.12607941354E+03  0.10570000000E+00 0. -1.
<mgrwt>
<rscale>  0 0.95669373E+02</rscale>
<asrwt>0</asrwt>
<pdfrwt beam="2">  1        1 0.20416763E-01 0.95669373E+02</pdfrwt>
<pdfrwt beam="1">  1       -1 0.26526030E-02 0.95669373E+02</pdfrwt>
<totfact> 0.96242656E+04</totfact>
</mgrwt>
</event>
<event>
 5   1  0.1388354E+00  0.9223077E+02  0.7818608E-02  0.1297538E+00
          1   -1    0    0  501    0  0.00000000000E+00  0.00000000000E+00  0.71533246449E+02  0.71533246602E+02  0.46700000000E-02 0. -1.
         -1   -1    0    0    0  501 -0.00000000000E+00 -0.00000000000E+00 -0.29729234966E+02  0.29729235333E+02  0.46700000000E-02 0.  1.
         23    2    1    2    0    0  0.00000000000E+00  0.00000000000E+00  0.41804011483E+02  0.10126248193E+03  0.92230769657E+02 0.  0.
        -13    1    3    3    0    0 -0.39797567730E+02 -0.30435843782E+01 -0.44576350735E+01  0.40162065261E+02  0.10570000000E+00 0.  1.
         13    1    3    3    0    0  0.39797567730E+02  0.30435843782E+01  0.46261646557E+02  0.61100416674E+02  0.10570000000E+00 0. -1.
<mgrwt>
<rscale>  0 0.92230770E+02</rscale>
<asrwt>0</asrwt>
<pdfrwt beam="1">  1        1 0.11005115E-01 0.92230770E+02</pdfrwt>
<pdfrwt beam="2">  1       -1 0.45737286E-02 0.92230770E+02</pdfrwt>
<totfact> 0.95906323E+04</totfact>
</mgrwt>
</event>
<event>
 5   1  0.1388354E+00  0.9248043E+02  0.7818608E-02  0.1296954E+00
         -1   -1    0    0    0  501 -0.00000000000E+00  0.00000000000E+00  0.14561702133E+02  0.14561702881E+02  0.46700000000E-02 0.  1.
          1   -1    0    0  501    0  0.00000000000E+00 -0.00000000000E+00 -0.14683431421E+03  0.14683431429E+03  0.46700000000E-02 0. -1.
         23    2    1    2    0    0  0.00000000000E+00  0.00000000000E+00 -0.13227261208E+03  0.16139601717E+03  0.92480432802E+02 0.  0.
        -13    1    3    3    0    0  0.17857061635E+01 -0.36526238486E+02 -0.16750435564E+02  0.40223663540E+02  0.10570000000E+00 0.  1.
         13    1    3    3    0    0 -0.17857061635E+01  0.36526238486E+02 -0.11552217651E+03  0.12117235363E+03  0.10570000000E+00 0. -1.
<mgrwt>
<rscale>  0 0.92480433E+02</rscale>
<asrwt>0</asrwt>
<pdfrwt beam="2">  1        1 0.22589894E-01 0.92480433E+02</pdfrwt>
<pdfrwt beam="1">  1       -1 0.22402620E-02 0.92480433E+02</pdfrwt>
<totfact> 0.10748911E+05</totfact>
</mgrwt>
</event>
<event>
 5   1  0.1388354E+00  0.9141893E+02  0.7818608E-02  0.1299451E+00
         -1   -1    0    0    0  501 -0.00000000000E+00  0.00000000000E+00  0.39685048987E+02  0.39685049261E+02  0.46700000000E-02 0.  1.
          1   -1    0    0  501    0  0.00000000000E+00 -0.00000000000E+00 -0.52648417834E+02  0.52648418041E+02  0.46700000000E-02 0. -1.
         23    2    1    2    0    0  0.00000000000E+00  0.00000000000E+00 -0.12963368848E+02  0.92333467303E+02  0.91418927210E+02 0.  0.
        -13    1    3    3    0    0  0.31901591936E+02 -0.16353610822E+02  0.22160281700E+02  0.42145479146E+02  0.10570000000E+00 0.  1.
         13    1    3    3    0    0 -0.31901591936E+02  0.16353610822E+02 -0.35123650548E+02  0.50187988157E+02  0.10570000000E+00 0. -1.
<mgrwt>
<rscale>  0 0.91418927E+02</rscale>
<asrwt>0</asrwt>
<pdfrwt beam="2">  1        1 0.80997566E-02 0.91418927E+02</pdfrwt>
<pdfrwt beam="1">  1       -1 0.61053922E-02 0.91418927E+02</pdfrwt>
<totfact> 0.93796133E+04</totfact>
</mgrwt>
</event>
<event>
 5   1  0.1388354E+00  0.9056755E+02  0.7818608E-02  0.1301483E+00
         -1   -1    0    0    0  501 -0.00000000000E+00  0.00000000000E+00  0.11699702334E+02  0.11699703266E+02  0.46700000000E-02 0.  1.
          1   -1    0    0  501    0  0.00000000000E+00 -0.00000000000E+00 -0.17527112588E+03  0.17527112594E+03  0.46700000000E-02 0. -1.
         23    2    1    2    0    0  0.00000000000E+00  0.00000000000E+00 -0.16357142355E+03  0.18697082921E+03  0.90567545920E+02 0.  0.
        -13    1    3    3    0    0  0.44618251826E+02 -0.59648943574E+01 -0.71621526300E+02  0.84593277290E+02  0.10570000000E+00 0.  1.
         13    1    3    3    0    0 -0.44618251826E+02  0.59648943574E+01 -0.91949897246E+02  0.10237755192E+03  0.10570000000E+00 0. -1.
<mgrwt>
<rscale>  0 0.90567546E+02</rscale>
<asrwt>0</asrwt>
<pdfrwt beam="2">  1        1 0.26964787E-01 0.90567546E+02</pdfrwt>
<pdfrwt beam="1">  1       -1 0.17999544E-02 0.90567546E+02</pdfrwt>
<totfact> 0.11753729E+05</totfact>
</mgrwt>
</event>
<event>
 5   1  0.1388354E+00  0.9165276E+02  0.7818608E-02  0.1298898E+00
          1   -1    0    0  501    0  0.00000000000E+00  0.00000000000E+00  0.29276567406E+02  0.29276567779E+02  0.46700000000E-02 0. -1.
         -1   -1    0    0    0  501 -0.00000000000E+00 -0.00000000000E+00 -0.71731671395E+02  0.71731671547E+02  0.46700000000E-02 0.  1.
         23    2    1    2    0    0  0.00000000000E+00  0.00000000000E+00 -0.42455103988E+02  0.10100823933E+03  0.91652760771E+02 0.  0.
        -13    1    3    3    0    0 -0.16118204557E+02 -0.32958116314E+02 -0.51489744079E+02  0.63223720761E+02  0.10570000000E+00 0.  1.
         13    1    3    3    0    0  0.16118204557E+02  0.32958116314E+02  0.90346400903E+01  0.37784518564E+02  0.10570000000E+00 0. -1.
<mgrwt>
<rscale>  0 0.91652761E+02</rscale>
<asrwt>0</asrwt>
<pdfrwt beam="1">  1        1 0.45040874E-02 0.91652761E+02</pdfrwt>
<pdfrwt beam="2">  1       -1 0.11035642E-01 0.91652761E+02</pdfrwt>
<totfact> 0.85058005E+04</totfact>
</mgrwt>
</event>
<event>
 5   1  0.1388354E+00  0.9416079E+02  0.7818608E-02  0.1293077E+00
         -1   -1    0    0    0  501 -0.00000000000E+00  0.00000000000E+00  0.83078145466E+01  0.83078158591E+01  0.46700000000E-02 0.  1.
          1   -1    0    0  501    0  0.00000000000E+00 -0.00000000000E+00 -0.26680465031E+03  0.26680465035E+03  0.46700000000E-02 0. -1.
         23    2    1    2    0    0  0.00000000000E+00  0.00000000000E+00 -0.25849683576E+03  0.27511246621E+03  0.94160793138E+02 0.  0.
        -13    1    3    3    0    0  0.42095150002E+02 -0.12622483389E+02 -0.79904564200E+02  0.91192539679E+02  0.10570000000E+00 0.  1.
         13    1    3    3    0    0 -0.42095150002E+02  0.12622483389E+02 -0.17859227156E+03  0.18391992653E+03  0.10570000000E+00 0. -1.
<mgrwt>
<rscale>  0 0.94160793E+02</rscale>
<asrwt>0</asrwt>
<pdfrwt beam="2">  1        1 0.41046863E-01 0.94160793E+02</pdfrwt>
<pdfrwt beam="1">  1       -1 0.12781256E-02 0.94160793E+02</pdfrwt>
<totfact> 0.11491296E+05</totfact>
</mgrwt>
</event>
<event>
 5   1  0.1388354E+00  0.9106613E+02  0.7818608E-02  0.1300290E+00
         -1   -1    0    0    0  501 -0.00000000000E+00  0.00000000000E+00  0.16634715725E+02  0.16634716380E+02  0.46700000000E-02 0.  1.
          1   -1    0    0  501    0  0.00000000000E+00 -0.00000000000E+00 -0.12463452360E+03  0.12463452369E+03  0.46700000000E-02 0. -1.
         23    2    1    2    0    0  0.00000000000E+00  0.00000000000E+00 -0.10799980788E+03  0.14126924007E+03  0.91066128107E+02 0.  0.
        -13    1    3    3    0    0 -0.26506485367E+02  0.33506031355E+02 -0.29570249822E+02  0.51958240451E+02  0.10570000000E+00 0.  1.
         13    1    3    3    0    0  0.26506485367E+02 -0.33506031355E+02 -0.78429558054E+02  0.89310999618E+02  0.10570000000E+00 0. -1.
<mgrwt>
<rscale>  0 0.91066128E+02</rscale>
<asrwt>0</asrwt>
<pdfrwt beam="2">  1        1 0.19174542E-01 0.91066128E+02</pdfrwt>
<pdfrwt beam="1">  1       -1 0.25591872E-02 0.91066128E+02</pdfrwt>
<totfact> 0.10881326E+05</totfact>
</mgrwt>
</event>
<event>
 5   1  0.1388354E+00  0.9148360E+02  0.7818608E-02  0.1299298E+00
         -1   -1    0    0    0  501 -0.00000000000E+00  0.00000000000E+00  0.25323561010E+02  0.25323561441E+02  0.46700000000E-02 0.  1.
          1   -1    0    0  501    0  0.00000000000E+00 -0.00000000000E+00 -0.82623137940E+02  0.82623138072E+02  0.46700000000E-02 0. -1.
         23    2    1    2    0    0  0.00000000000E+00  0.00000000000E+00 -0.57299576930E+02  0.10794669951E+03  0.91483596450E+02 0.  0.
        -13    1    3    3    0    0  0.45530694988E+01 -0.45254409873E+02 -0.22916499797E+02  0.50930042118E+02  0.10570000000E+00 0. -1.
         13    1    3    3    0    0 -0.45530694988E+01  0.45254409873E+02 -0.34383077134E+02  0.57016657395E+02  0.10570000000E+00 0.  1.
<mgrwt>
<rscale>  0 0.91483596E+02</rscale>
<asrwt>0</asrwt>
<pdfrwt beam="2">  1        1 0.12711252E-01 0.91483596E+02</pdfrwt>
<pdfrwt beam="1">  1       -1 0.38959326E-02 0.91483596E+02</pdfrwt>
<totfact> 0.10033083E+05</totfact>
</mgrwt>
</event>
<event>
 5   1  0.1388354E+00  0.9063512E+02  0.7818608E-02  0.1301321E+00
          1   -1    0    0  501    0  0.00000000000E+00  0.00000000000E+00  0.17561522942E+03  0.17561522948E+03  0.46700000000E-02 0. -1.
         -1   -1    0    0    0  501 -0.00000000000E+00 -0.00000000000E+00 -0.11694208006E+02  0.11694208939E+02  0.46700000000E-02 0.  1.
         23    2    1    2    0    0  0.00000000000E+00  0.00000000000E+00  0.16392102141E+03  0.18730943842E+03  0.90635117146E+02 0.  0.
        -13    1    3    3    0    0 -0.20019744275E+02  0.22439165756E+02  0.11897001597E+02  0.32339699135E+02  0.10570000000E+00 0.  1.
         13    1    3    3    0    0  0.20019744275E+02 -0.22439165756E+02  0.15202401981E+03  0.15496973928E+03  0.10570000000E+00 0. -1.
<mgrwt>
<rscale>  0 0.90635117E+02</rscale>
<asrwt>0</asrwt>
<pdfrwt beam="1">  1        1 0.27017728E-01 0.90635117E+02</pdfrwt>
<pdfrwt beam="2">  1       -1 0.17991090E-02 0.90635117E+02</pdfrwt>
<totfact> 0.11734571E+05</totfact>
</mgrwt>
</event>
<event>
 5   1  0.1388354E+00  0.9067101E+02  0.7818608E-02  0.1301235E+00
         -1   -1    0    0    0  501 -0.00000000000E+00  0.00000000000E+00  0.59585147530E+01  0.59585165831E+01  0.46700000000E-02 0.  1.
          1   -1    0    0  501    0  0.00000000000E+00 -0.00000000000E+00 -0.34493627533E+03  0.34493627537E+03  0.46700000000E-02 0. -1.
         23    2    1    2    0    0  0.00000000000E+00  0.00000000000E+00 -0.33897776058E+03  0.35089479195E+03  0.90671014378E+02 0.  0.
        -13    1    3    3    0    0 -0.38897944324E+02 -0.23232533011E+02 -0.17560341653E+03  0.18135427133E+03  0.10570000000E+00 0.  1.
         13    1    3    3    0    0  0.38897944324E+02  0.23232533011E+02 -0.16337434405E+03  0.16954052062E+03  0.10570000000E+00 0. -1.
<mgrwt>
<rscale>  0 0.90671014E+02</rscale>
<asrwt>0</asrwt>
<pdfrwt beam="2">  1        1 0.53067104E-01 0.90671014E+02</pdfrwt>
<pdfrwt beam="1">  1       -1 0.91669499E-03 0.90671014E+02</pdfrwt>
<totfact> 0.13344738E+05</totfact>
</mgrwt>
</event>
<event>
 5   1  0.1388354E+00  0.9303869E+02  0.7818608E-02  0.1295656E+00
          1   -1    0    0  501    0  0.00000000000E+00  0.00000000000E+00  0.15202548010E+02  0.15202548727E+02  0.46700000000E-02 0. -1.
         -1   -1    0    0    0  501 -0.00000000000E+00 -0.00000000000E+00 -0.14234782204E+03  0.14234782212E+03  0.46700000000E-02 0.  1.
         23    2    1    2    0    0  0.00000000000E+00  0.00000000000E+00 -0.12714527404E+03  0.15755037085E+03  0.93038694343E+02 0.  0.
        -13    1    3    3    0    0  0.15913269779E+02  0.43014983543E+02 -0.50399281884E+02  0.68144110173E+02  0.10570000000E+00 0. -1.
         13    1    3    3    0    0 -0.15913269779E+02 -0.43014983543E+02 -0.76745992151E+02  0.89406260676E+02  0.10570000000E+00 0.  1.
<mgrwt>
<rscale>  0 0.93038694E+02</rscale>
<asrwt>0</asrwt>
<pdfrwt beam="1">  1        1 0.23388537E-02 0.93038694E+02</pdfrwt>
<pdfrwt beam="2">  1       -1 0.21899664E-01 0.93038694E+02</pdfrwt>
<totfact> 0.71824711E+04</totfact>
</mgrwt>
</event>
<event>
 5   1  0.1388354E+00  0.1147936E+03  0.7818608E-02  0.1251942E+00
          1   -1    0    0  501    0  0.00000000000E+00  0.00000000000E+00  0.21173745580E+02  0.21173746095E+02  0.46700000000E-02 0. -1.
         -1   -1    0    0    0  501 -0.00000000000E+00 -0.00000000000E+00 -0.15558860626E+03  0.15558860633E+03  0.46700000000E-02 0.  1.
         23    2    1    2    0    0  0.00000000000E+00  0.00000000000E+00 -0.13441486068E+03  0.17676235242E+03  0.11479361682E+03 0.  0.
        -13    1    3    3    0    0  0.38528600468E+02 -0.61944048984E+01 -0.23962678439E+01  0.39097020068E+02  0.10570000000E+00 0. -1.
         13    1    3    3    0    0 -0.38528600468E+02  0.61944048984E+01 -0.13201859283E+03  0.13766533235E+03  0.10570000000E+00 0.  1.
<mgrwt>
<rscale>  0 0.11479362E+03</rscale>
<asrwt>0</asrwt>
<pdfrwt beam="1">  1        1 0.32574995E-02 0.11479362E+03</pdfrwt>
<pdfrwt beam="2">  1       -1 0.23936708E-01 0.11479362E+03</pdfrwt>
<totfact> 0.40632614E+04</totfact>
</mgrwt>
</event>
<event>
 5   1  0.1388354E+00  0.9566937E+02  0.7818608E-02  0.1289676E+00
          1   -1    0    0  501    0  0.00000000000E+00  0.00000000000E+00  0.28045062868E+03  0.28045062872E+03  0.46700000000E-02 0. -1.
         -1   -1    0    0    0  501 -0.00000000000E+00 -0.00000000000E+00 -0.81588581533E+01  0.81588594898E+01  0.46700000000E-02 0.  1.
         23    2    1    2    0    0  0.00000000000E+00  0.00000000000E+00  0.27229177052E+03  0.28860948821E+03  0.95669370163E+02 0.  0.
        -13    1    3    3    0    0  0.77574449888E+01  0.38247805727E+02  0.52703017596E+02  0.65579660200E+02  0.10570000000E+00 0.  1.
         13    1    3    3    0    0 -0.77574449888E+01 -0.38247805727E+02  0.21958875293E+03  0.22302982801E+03  0.10570000000E+00 0. -1.
<mgrwt>
<rscale>  0 0.95669370E+02</rscale>
<asrwt>0</asrwt>
<pdfrwt beam="1">  1        1 0.43146252E-01 0.95669370E+02</pdfrwt>
<pdfrwt beam="2">  1       -1 0.12552090E-02 0.95669370E+02</pdfrwt>
<totfact> 0.11120284E+05</totfact>
</mgrwt>
</event>
<event>
 5   1  0.1388354E+00  0.9037955E+02  0.7818608E-02  0.1301935E+00
          1   -1    0    0  501    0  0.00000000000E+00  0.00000000000E+00  0.58651219472E+02  0.58651219658E+02  0.46700000000E-02 0. -1.
         -1   -1    0    0    0  501 -0.00000000000E+00 -0.00000000000E+00 -0.34817961067E+02  0.34817961380E+02  0.46700000000E-02 0.  1.
         23    2    1    2    0    0  0.00000000000E+00  0.00000000000E+00  0.23833258405E+02  0.93469181038E+02  0.90379552985E+02 0.  0.
        -13    1    3    3    0    0  0.16923399925E+01  0.39708571212E+02 -0.10323641603E+02  0.41063650480E+02  0.10570000000E+00 0.  1.
         13    1    3    3    0    0 -0.16923399925E+01 -0.39708571212E+02  0.34156900008E+02  0.52405530558E+02  0.10570000000E+00 0. -1.
<mgrwt>
<rscale>  0 0.90379553E+02</rscale>
<asrwt>0</asrwt>
<pdfrwt beam="1">  1        1 0.90232644E-02 0.90379553E+02</pdfrwt>
<pdfrwt beam="2">  1       -1 0.53566095E-02 0.90379553E+02</pdfrwt>
<totfact> 0.98408012E+04</totfact>
</mgrwt>
</event>
<event>
 5   1  0.1388354E+00  0.9186921E+02  0.7818608E-02  0.1298387E+00
         -1   -1    0    0    0  501 -0.00000000000E+00  0.00000000000E+00  0.28633306267E+02  0.28633306648E+02  0.46700000000E-02 0.  1.
          1   -1    0    0  501    0  0.00000000000E+00 -0.00000000000E+00 -0.73689989497E+02  0.73689989645E+02  0.46700000000E-02 0. -1.
         23    2    1    2    0    0  0.00000000000E+00  0.00000000000E+00 -0.45056683230E+02  0.10232329629E+03  0.91869212801E+02 0.  0.
        -13    1    3    3    0    0  0.16349055476E+02  0.12822375640E+02  0.23100106344E+02  0.31069776594E+02  0.10570000000E+00 0.  1.
         13    1    3    3    0    0 -0.16349055476E+02 -0.12822375640E+02 -0.68156789574E+02  0.71253519699E+02  0.10570000000E+00 0. -1.
<mgrwt>
<rscale>  0 0.91869213E+02</rscale>
<asrwt>0</asrwt>
<pdfrwt beam="2">  1        1 0.11336921E-01 0.91869213E+02</pdfrwt>
<pdfrwt beam="1">  1       -1 0.44051241E-02 0.91869213E+02</pdfrwt>
<totfact> 0.97402802E+04</totfact>
</mgrwt>
</event>
<event>
 5   1  0.1388354E+00  0.9052157E+02  0.7818608E-02  0.1301594E+00
          1   -1    0    0  501    0  0.00000000000E+00  0.00000000000E+00  0.37122345903E+02  0.37122346197E+02  0.46700000000E-02 0. -1.
         -1   -1    0    0    0  501 -0.00000000000E+00 -0.00000000000E+00 -0.55183441643E+02  0.55183441840E+02  0.46700000000E-02 0.  1.
         23    2    1    2    0    0  0.00000000000E+00  0.00000000000E+00 -0.18061095740E+02  0.92305788037E+02  0.90521573814E+02 0.  0.
        -13    1    3    3    0    0 -0.22066237296E+02  0.27301143456E+02  0.20102782727E+02  0.40452494463E+02  0.10570000000E+00 0. -1.
         13    1    3    3    0    0  0.22066237296E+02 -0.27301143456E+02 -0.38163878467E+02  0.51853293574E+02  0.10570000000E+00 0.  1.
<mgrwt>
<rscale>  0 0.90521574E+02</rscale>
<asrwt>0</asrwt>
<pdfrwt beam="1">  1        1 0.57111301E-02 0.90521574E+02</pdfrwt>
<pdfrwt beam="2">  1       -1 0.84897603E-02 0.90521574E+02</pdfrwt>
<totfact> 0.91485432E+04</totfact>
</mgrwt>
</event>
<event>
 5   1  0.1388354E+00  0.9010738E+02  0.7818608E-02  0.1302592E+00
         -1   -1    0    0    0  501 -0.00000000000E+00  0.00000000000E+00  0.23762417993E+02  0.23762418452E+02  0.46700000000E-02 0.  1.
          1   -1    0    0  501    0  0.00000000000E+00 -0.00000000000E+00 -0.85422078006E+02  0.85422078134E+02  0.46700000000E-02 0. -1.
         23    2    1    2    0    0  0.00000000000E+00  0.00000000000E+00 -0.61659660013E+02  0.10918449659E+03  0.90107383836E+02 0.  0.
        -13    1    3    3    0    0 -0.15464260406E+01  0.15203472135E+02  0.20525846788E+02  0.25590204323E+02  0.10570000000E+00 0.  1.
         13    1    3    3    0    0  0.15464260406E+01 -0.15203472135E+02 -0.82185506800E+02  0.83594292263E+02  0.10570000000E+00 0. -1.
<mgrwt>
<rscale>  0 0.90107384E+02</rscale>
<asrwt>0</asrwt>
<pdfrwt beam="2">  1        1 0.13141858E-01 0.90107384E+02</pdfrwt>
<pdfrwt beam="1">  1       -1 0.36557567E-02 0.90107384E+02</pdfrwt>
<totfact> 0.10513846E+05</totfact>
</mgrwt>
</event>
<event>
 5   1  0.1388354E+00  0.9109157E+02  0.7818608E-02  0.1300230E+00
         -1   -1    0    0    0  501 -0.00000000000E+00  0.00000000000E+00  0.64047700505E+01  0.64047717531E+01  0.46700000000E-02 0.  1.
          1   -1    0    0  501    0  0.00000000000E+00 -0.00000000000E+00 -0.32388641975E+03  0.32388641978E+03  0.46700000000E-02 0. -1.
         23    2    1    2    0    0  0.00000000000E+00  0.00000000000E+00 -0.31748164970E+03  0.33029119153E+03  0.91091565530E+02 0.  0.
        -13    1    3    3    0    0 -0.45326108174E+02  0.44330070917E+01 -0.15675640972E+03  0.16323814136E+03  0.10570000000E+00 0.  1.
         13    1    3    3    0    0  0.45326108174E+02 -0.44330070917E+01 -0.16072523998E+03  0.16705305018E+03  0.10570000000E+00 0. -1.
<mgrwt>
<rscale>  0 0.91091566E+02</rscale>
<asrwt>0</asrwt>
<pdfrwt beam="2">  1        1 0.49828667E-01 0.91091566E+02</pdfrwt>
<pdfrwt beam="1">  1       -1 0.98534963E-03 0.91091566E+02</pdfrwt>
<totfact> 0.13030729E+05</totfact>
</mgrwt>
</event>
<event>
 5   1  0.1388354E+00  0.9113548E+02  0.7818608E-02  0.1300125E+00
         -1   -1    0    0    0  501 -0.00000000000E+00  0.00000000000E+00  0.19631621458E+03  0.19631621464E+03  0.46700000000E-02 0.  1.
          1   -1    0    0  501    0  0.00000000000E+00 -0.00000000000E+00 -0.10576908370E+02  0.10576909401E+02  0.46700000000E-02 0. -1.
         23    2    1    2    0    0  0.00000000000E+00  0.00000000000E+00  0.18573930621E+03  0.20689312404E+03  0.91135475542E+02 0.  0.
        -13    1    3    3    0    0  0.41422356348E+02  0.18173368780E+02  0.10537098370E+03  0.11466969223E+03  0.10570000000E+00 0.  1.
         13    1    3    3    0    0 -0.41422356348E+02 -0.18173368780E+02  0.80368322510E+02  0.92223431805E+02  0.10570000000E+00 0. -1.
<mgrwt>
<rscale>  0 0.91135476E+02</rscale>
<asrwt>0</asrwt>
<pdfrwt beam="2">  1        1 0.16272169E-02 0.91135476E+02</pdfrwt>
<pdfrwt beam="1">  1       -1 0.30202493E-01 0.91135476E+02</pdfrwt>
<totfact> 0.69874903E+04</totfact>
</mgrwt>
</event>
<event>
 5   1  0.1388354E+00  0.9273719E+02  0.7818608E-02  0.1296355E+00
          1   -1    0    0  501    0  0.00000000000E+00  0.00000000000E+00  0.41633110726E+03  0.41633110728E+03  0.46700000000E-02 0. -1.
         -1   -1    0    0    0  501 -0.00000000000E+00 -0.00000000000E+00 -0.51642698259E+01  0.51642719374E+01  0.46700000000E-02 0.  1.
         23    2    1    2    0    0  0.00000000000E+00  0.00000000000E+00  0.41116683743E+03  0.42149537922E+03  0.92737190496E+02 0.  0.
        -13    1    3    3    0    0  0.10384171132E+02 -0.44452236869E+02  0.24256436166E+03  0.24682243232E+03  0.10570000000E+00 0. -1.
         13    1    3    3    0    0 -0.10384171132E+02  0.44452236869E+02  0.16860247576E+03  0.17467294690E+03  0.10570000000E+00 0.  1.
<mgrwt>
<rscale>  0 0.92737190E+02</rscale>
<asrwt>0</asrwt>
<pdfrwt beam="1">  1        1 0.64050961E-01 0.92737190E+02</pdfrwt>
<pdfrwt beam="2">  1       -1 0.79450295E-03 0.92737190E+02</pdfrwt>
<totfact> 0.12977465E+05</totfact>
</mgrwt>
</event>
<event>
 5   1  0.1388354E+00  0.8979067E+02  0.7818608E-02  0.1303359E+00
         -1   -1    0    0    0  501 -0.00000000000E+00  0.00000000000E+00  0.97412346213E+01  0.97412357407E+01  0.46700000000E-02 0.  1.
          1   -1    0    0  501    0  0.00000000000E+00 -0.00000000000E+00 -0.20691332046E+03  0.20691332051E+03  0.46700000000E-02 0. -1.
         23    2    1    2    0    0  0.00000000000E+00  0.00000000000E+00 -0.19717208584E+03  0.21665455625E+03  0.89790674968E+02 0.  0.
        -13    1    3    3    0    0 -0.28602675955E+02 -0.22565856893E+02 -0.16188687864E+03  0.16593584187E+03  0.10570000000E+00 0. -1.
         13    1    3    3    0    0  0.28602675955E+02  0.22565856893E+02 -0.35285207200E+02  0.50718714384E+02  0.10570000000E+00 0.  1.
<mgrwt>
<rscale>  0 0.89790675E+02</rscale>
<asrwt>0</asrwt>
<pdfrwt beam="2">  1        1 0.31832815E-01 0.89790675E+02</pdfrwt>
<pdfrwt beam="1">  1       -1 0.14986517E-02 0.89790675E+02</pdfrwt>
<totfact> 0.12417866E+05</totfact>
</mgrwt>
</event>
<event>
 5   1  0.1388354E+00  0.9226494E+02  0.7818608E-02  0.1297458E+00
          1   -1    0    0  501    0  0.00000000000E+00  0.00000000000E+00  0.84448615989E+01  0.84448628902E+01  0.46700000000E-02 0. -1.
         -1   -1    0    0    0  501 -0.00000000000E+00 -0.00000000000E+00 -0.25201178185E+03  0.25201178190E+03  0.46700000000E-02 0.  1.
         23    2    1    2    0    0  0.00000000000E+00  0.00000000000E+00 -0.24356692025E+03  0.26045664479E+03  0.92264940098E+02 0.  0.
        -13    1    3    3    0    0  0.36842644916E+02 -0.27265100857E+02 -0.10699948761E+03  0.11640304004E+03  0.10570000000E+00 0.  1.
         13    1    3    3    0    0 -0.36842644916E+02  0.27265100857E+02 -0.13656743264E+03  0.14405360474E+03  0.10570000000E+00 0. -1.
<mgrwt>
<rscale>  0 0.92264940E+02</rscale>
<asrwt>0</asrwt>
<pdfrwt beam="1">  1        1 0.12992098E-02 0.92264940E+02</pdfrwt>
<pdfrwt beam="2">  1       -1 0.38771038E-01 0.92264940E+02</pdfrwt>
<totfact> 0.62616339E+04</totfact>
</mgrwt>
</event>
<event>
 5   1  0.1388354E+00  0.9171085E+02  0.7818608E-02  0.1298761E+00
         -1   -1    0    0    0  501 -0.00000000000E+00  0.00000000000E+00  0.49845845417E+01  0.49845867294E+01  0.46700000000E-02 0.  1.
          1   -1    0    0  501    0  0.00000000000E+00 -0.00000000000E+00 -0.42184444703E+03  0.42184444706E+03  0.46700000000E-02 0. -1.
         23    2    1    2    0    0  0.00000000000E+00  0.00000000000E+00 -0.41685986249E+03  0.42682903379E+03  0.91710845205E+02 0.  0.
        -13    1    3    3    0    0 -0.17272035514E+02  0.41072567153E+02 -0.25886377826E+03  0.26267041297E+03  0.10570000000E+00 0. -1.
         13    1    3    3    0    0  0.17272035514E+02 -0.41072567153E+02 -0.15799608423E+03  0.16415862081E+03  0.10570000000E+00 0.  1.
<mgrwt>
<rscale>  0 0.91710845E+02</rscale>
<asrwt>0</asrwt>
<pdfrwt beam="2">  1        1 0.64899118E-01 0.91710845E+02</pdfrwt>
<pdfrwt beam="1">  1       -1 0.76685966E-03 0.91710845E+02</pdfrwt>
<totfact> 0.13394683E+05</totfact>
</mgrwt>
</event>
<event>
 5   1  0.1388354E+00  0.9096123E+02  0.7818608E-02  0.1300541E+00
         -1   -1    0    0    0  501 -0.00000000000E+00  0.00000000000E+00  0.99862844138E+02  0.99862844247E+02  0.46700000000E-02 0.  1.
          1   -1    0    0  501    0  0.00000000000E+00 -0.00000000000E+00 -0.20713270564E+02  0.20713271090E+02  0.46700000000E-02 0. -1.
         23    2    1    2    0    0  0.00000000000E+00  0.00000000000E+00  0.79149573574E+02  0.12057611534E+03  0.90961225766E+02 0.  0.
        -13    1    3    3    0    0  0.38605036845E+01 -0.42770427207E+02  0.59425808817E+02  0.73318830175E+02  0.10570000000E+00 0.  1.
         13    1    3    3    0    0 -0.38605036845E+01  0.42770427207E+02  0.19723764757E+02  0.47257285162E+02  0.10570000000E+00 0. -1.
<mgrwt>
<rscale>  0 0.90961226E+02</rscale>
<asrwt>0</asrwt>
<pdfrwt beam="2">  1        1 0.31866571E-02 0.90961226E+02</pdfrwt>
<pdfrwt beam="1">  1       -1 0.15363514E-01 0.90961226E+02</pdfrwt>
<totfact> 0.81889258E+04</totfact>
</mgrwt>
</event>
<event>
 5   1  0.1388354E+00  0.8761421E+02  0.7818608E-02  0.1308734E+00
         -1   -1    0    0    0  501 -0.00000000000E+00  0.00000000000E+00  0.42236402861E+02  0.42236403119E+02  0.46700000000E-02 0.  1.
          1   -1    0    0  501    0  0.00000000000E+00 -0.00000000000E+00 -0.45436219254E+02  0.45436219494E+02  0.46700000000E-02 0. -1.
         23    2    1    2    0    0  0.00000000000E+00  0.00000000000E+00 -0.31998163930E+01  0.87672622613E+02  0.87614210782E+02 0.  0.
        -13    1    3    3    0    0 -0.17340600862E+02 -0.34576641187E+02  0.18976163211E+02  0.43085339696E+02  0.10570000000E+00 0. -1.
         13    1    3    3    0    0  0.17340600862E+02  0.34576641187E+02 -0.22175979604E+02  0.44587282917E+02  0.10570000000E+00 0.  1.
<mgrwt>
<rscale>  0 0.87614211E+02</rscale>
<asrwt>0</asrwt>
<pdfrwt beam="2">  1        1 0.69901877E-02 0.87614211E+02</pdfrwt>
<pdfrwt beam="1">  1       -1 0.64979081E-02 0.87614211E+02</pdfrwt>
<totfact> 0.10332118E+05</totfact>
</mgrwt>
</event>
<event>
 5   1  0.1388354E+00  0.9035243E+02  0.7818608E-02  0.1302000E+00
          1   -1    0    0  501    0  0.00000000000E+00  0.00000000000E+00  0.41324417048E+03  0.41324417051E+03  0.46700000000E-02 0. -1.
         -1   -1    0    0    0  501 -0.00000000000E+00 -0.00000000000E+00 -0.49387025986E+01  0.49387048066E+01  0.46700000000E-02 0.  1.
         23    2    1    2    0    0  0.00000000000E+00  0.00000000000E+00  0.40830546788E+03  0.41818287532E+03  0.90352432747E+02 0.  0.
        -13    1    3    3    0    0  0.52084928675E+01 -0.44598687480E+02  0.18114650390E+03  0.18662861081E+03  0.10570000000E+00 0.  1.
         13    1    3    3    0    0 -0.52084928675E+01  0.44598687480E+02  0.22715896398E+03  0.23155426451E+03  0.10570000000E+00 0. -1.
<mgrwt>
<rscale>  0 0.90352433E+02</rscale>
<asrwt>0</asrwt>
<pdfrwt beam="1">  1        1 0.63576030E-01 0.90352433E+02</pdfrwt>
<pdfrwt beam="2">  1       -1 0.75980053E-03 0.90352433E+02</pdfrwt>
<totfact> 0.13890829E+05</totfact>
</mgrwt>
</event>
<event>
 5   1  0.1388354E+00  0.9212204E+02  0.7818608E-02  0.1297793E+00
          1   -1    0    0  501    0  0.00000000000E+00  0.00000000000E+00  0.14576285037E+02  0.14576285785E+02  0.46700000000E-02 0. -1.
         -1   -1    0    0    0  501 -0.00000000000E+00 -0.00000000000E+00 -0.14555268337E+03  0.14555268345E+03  0.46700000000E-02 0.  1.
         23    2    1    2    0    0  0.00000000000E+00  0.00000000000E+00 -0.13097639834E+03  0.16012896923E+03  0.92122037897E+02 0.  0.
        -13    1    3    3    0    0 -0.28542645533E+01  0.40770267200E+02 -0.10241251585E+03  0.11026647763E+03  0.10570000000E+00 0.  1.
         13    1    3    3    0    0  0.28542645533E+01 -0.40770267200E+02 -0.28563882489E+02  0.49862491605E+02  0.10570000000E+00 0. -1.
<mgrwt>
<rscale>  0 0.92122038E+02</rscale>
<asrwt>0</asrwt>
<pdfrwt beam="1">  1        1 0.22425055E-02 0.92122038E+02</pdfrwt>
<pdfrwt beam="2">  1       -1 0.22392720E-01 0.92122038E+02</pdfrwt>
<totfact> 0.73321739E+04</totfact>
</mgrwt>
</event>
<event>
 5   1  0.1388354E+00  0.9058660E+02  0.7818608E-02  0.1301437E+00
          1   -1    0    0  501    0  0.00000000000E+00  0.00000000000E+00  0.14319743191E+03  0.14319743199E+03  0.46700000000E-02 0. -1.
         -1   -1    0    0    0  501 -0.00000000000E+00 -0.00000000000E+00 -0.14326256667E+02  0.14326257428E+02  0.46700000000E-02 0.  1.
         23    2    1    2    0    0  0.00000000000E+00  0.00000000000E+00  0.12887117525E+03  0.15752368942E+03  0.90586604520E+02 0.  0.
        -13    1    3    3    0    0  0.80798091217E+01 -0.35606891676E+02  0.11104206900E+03  0.11689091629E+03  0.10570000000E+00 0. -1.
         13    1    3    3    0    0 -0.80798091217E+01  0.35606891676E+02  0.17829106248E+02  0.40632773132E+02  0.10570000000E+00 0.  1.
<mgrwt>
<rscale>  0 0.90586605E+02</rscale>
<asrwt>0</asrwt>
<pdfrwt beam="1">  1        1 0.22030375E-01 0.90586605E+02</pdfrwt>
<pdfrwt beam="2">  1       -1 0.22040395E-02 0.90586605E+02</pdfrwt>
<totfact> 0.11315043E+05</totfact>
</mgrwt>
</event>
<event>
 5   1  0.1388354E+00  0.9326451E+02  0.7818608E-02  0.1295133E+00
         -1   -1    0    0    0  501 -0.00000000000E+00  0.00000000000E+00  0.86917648304E+01  0.86917660850E+01  0.46700000000E-02 0.  1.
          1   -1    0    0  501    0  0.00000000000E+00 -0.00000000000E+00 -0.25018704598E+03  0.25018704602E+03  0.46700000000E-02 0. -1.
         23    2    1    2    0    0  0.00000000000E+00  0.00000000000E+00 -0.24149528115E+03  0.25887881211E+03  0.93264508476E+02 0.  0.
        -13    1    3    3    0    0 -0.41037259320E+02  0.17836653917E+02 -0.15718858594E+03  0.16343336745E+03  0.10570000000E+00 0.  1.
         13    1    3    3    0    0  0.41037259320E+02 -0.17836653917E+02 -0.84306695211E+02  0.95445444655E+02  0.10570000000E+00 0. -1.
<mgrwt>
<rscale>  0 0.93264508E+02</rscale>
<asrwt>0</asrwt>
<pdfrwt beam="2">  1        1 0.38490309E-01 0.93264508E+02</pdfrwt>
<pdfrwt beam="1">  1       -1 0.13371949E-02 0.93264508E+02</pdfrwt>
<totfact> 0.11641610E+05</totfact>
</mgrwt>
</event>
<event>
 5   1  0.1388354E+00  0.8801816E+02  0.7818608E-02  0.1307723E+00
          1   -1    0    0  501    0  0.00000000000E+00  0.00000000000E+00  0.97928486776E+02  0.97928486888E+02  0.46700000000E-02 0. -1.
         -1   -1    0    0    0  501 -0.00000000000E+00 -0.00000000000E+00 -0.19777686347E+02  0.19777686898E+02  0.46700000000E-02 0.  1.
         23    2    1    2    0    0  0.00000000000E+00  0.00000000000E+00  0.78150800430E+02  0.11770617379E+03  0.88018155738E+02 0.  0.
        -13    1    3    3    0    0 -0.86479936177E+01 -0.34985463340E+02  0.52966782668E+01  0.36425765769E+02  0.10570000000E+00 0. -1.
         13    1    3    3    0    0  0.86479936177E+01  0.34985463340E+02  0.72854122163E+02  0.81280408017E+02  0.10570000000E+00 0.  1.
<mgrwt>
<rscale>  0 0.88018156E+02</rscale>
<asrwt>0</asrwt>
<pdfrwt beam="1">  1        1 0.15065921E-01 0.88018156E+02</pdfrwt>
<pdfrwt beam="2">  1       -1 0.30427210E-02 0.88018156E+02</pdfrwt>
<totfact> 0.11456351E+05</totfact>
</mgrwt>
</event>
<event>
 5   1  0.1388354E+00  0.9378460E+02  0.7818608E-02  0.1293937E+00
          1   -1    0    0  501    0  0.00000000000E+00  0.00000000000E+00  0.27091611671E+03  0.27091611675E+03  0.46700000000E-02 0. -1.
         -1   -1    0    0    0  501 -0.00000000000E+00 -0.00000000000E+00 -0.81164889445E+01  0.81164902880E+01  0.46700000000E-02 0.  1.
         23    2    1    2    0    0  0.00000000000E+00  0.00000000000E+00  0.26279962777E+03  0.27903260704E+03  0.93784601279E+02 0.  0.
        -13    1    3    3    0    0 -0.31232298716E+02 -0.23161828946E+02  0.20938030169E+03  0.21296020452E+03  0.10570000000E+00 0. -1.
         13    1    3    3    0    0  0.31232298716E+02  0.23161828946E+02  0.53419326084E+02  0.66072402521E+02  0.10570000000E+00 0.  1.
<mgrwt>
<rscale>  0 0.93784601E+02</rscale>
<asrwt>0</asrwt>
<pdfrwt beam="1">  1        1 0.41679402E-01 0.93784601E+02</pdfrwt>
<pdfrwt beam="2">  1       -1 0.12486907E-02 0.93784601E+02</pdfrwt>
<totfact> 0.11650098E+05</totfact>
</mgrwt>
</event>
<event>
 5   1  0.1388354E+00  0.8888317E+02  0.7818608E-02  0.1305579E+00
          1   -1    0    0  501    0  0.00000000000E+00  0.00000000000E+00  0.70508554364E+02  0.70508554519E+02  0.46700000000E-02 0. -1.
         -1   -1    0    0    0  501 -0.00000000000E+00 -0.00000000000E+00 -0.28011556950E+02  0.28011557339E+02  0.46700000000E-02 0.  1.
         23    2    1    2    0    0  0.00000000000E+00  0.00000000000E+00  0.42496997415E+02  0.98520111858E+02  0.88883168548E+02 0.  0.
        -13    1    3    3    0    0  0.30487065939E+01 -0.25334411089E+02 -0.19082188617E+02  0.31863271834E+02  0.10570000000E+00 0.  1.
         13    1    3    3    0    0 -0.30487065939E+01  0.25334411089E+02  0.61579186032E+02  0.66656840023E+02  0.10570000000E+00 0. -1.
<mgrwt>
<rscale>  0 0.88883169E+02</rscale>
<asrwt>0</asrwt>
<pdfrwt beam="1">  1        1 0.10847470E-01 0.88883169E+02</pdfrwt>
<pdfrwt beam="2">  1       -1 0.43094703E-02 0.88883169E+02</pdfrwt>
<totfact> 0.10594596E+05</totfact>
</mgrwt>
</event>
<event>
 5   1  0.1388354E+00  0.8683027E+02  0.7818608E-02  0.1310714E+00
         -1   -1    0    0    0  501 -0.00000000000E+00  0.00000000000E+00  0.19923126078E+03  0.19923126084E+03  0.46700000000E-02 0.  1.
          1   -1    0    0  501    0  0.00000000000E+00 -0.00000000000E+00 -0.94607340230E+01  0.94607351756E+01  0.46700000000E-02 0. -1.
         23    2    1    2    0    0  0.00000000000E+00  0.00000000000E+00  0.18977052676E+03  0.20869199601E+03  0.86830273368E+02 0.  0.
        -13    1    3    3    0    0  0.11048059591E+02  0.33941114625E+02  0.35485382464E+02  0.50331723831E+02  0.10570000000E+00 0. -1.
         13    1    3    3    0    0 -0.11048059591E+02 -0.33941114625E+02  0.15428514429E+03  0.15836027218E+03  0.10570000000E+00 0.  1.
<mgrwt>
<rscale>  0 0.86830273E+02</rscale>
<asrwt>0</asrwt>
<pdfrwt beam="2">  1        1 0.14554978E-02 0.86830273E+02</pdfrwt>
<pdfrwt beam="1">  1       -1 0.30650959E-01 0.86830273E+02</pdfrwt>
<totfact> 0.78911648E+04</totfact>
</mgrwt>
</event>
<event>
 5   1  0.1388354E+00  0.9387733E+02  0.7818608E-02  0.1293725E+00
         -1   -1    0    0    0  501 -0.00000000000E+00  0.00000000000E+00  0.16119379718E+03  0.16119379724E+03  0.46700000000E-02 0.  1.
          1   -1    0    0  501    0  0.00000000000E+00 -0.00000000000E+00 -0.13668257027E+02  0.13668257825E+02  0.46700000000E-02 0. -1.
         23    2    1    2    0    0  0.00000000000E+00  0.00000000000E+00  0.14752554015E+03  0.17486205507E+03  0.93877331166E+02 0.  0.
        -13    1    3    3    0    0  0.41665903439E+02 -0.10213473623E+02  0.10924469276E+03  0.11736599432E+03  0.10570000000E+00 0.  1.
         13    1    3    3    0    0 -0.41665903439E+02  0.10213473623E+02  0.38280847385E+02  0.57496060750E+02  0.10570000000E+00 0. -1.
<mgrwt>
<rscale>  0 0.93877331E+02</rscale>
<asrwt>0</asrwt>
<pdfrwt beam="2">  1        1 0.21028088E-02 0.93877331E+02</pdfrwt>
<pdfrwt beam="1">  1       -1 0.24799046E-01 0.93877331E+02</pdfrwt>
<totfact> 0.68132407E+04</totfact>
</mgrwt>
</event>
<event>
 5   1  0.1388354E+00  0.9050392E+02  0.7818608E-02  0.1301636E+00
         -1   -1    0    0    0  501 -0.00000000000E+00  0.00000000000E+00  0.49920140341E+02  0.49920140559E+02  0.46700000000E-02 0.  1.
          1   -1    0    0  501    0  0.00000000000E+00 -0.00000000000E+00 -0.41020312882E+02  0.41020313148E+02  0.46700000000E-02 0. -1.
         23    2    1    2    0    0  0.00000000000E+00  0.00000000000E+00  0.88998274590E+01  0.90940453707E+02  0.90503918101E+02 0.  0.
        -13    1    3    3    0    0 -0.20610860254E+02  0.23178803251E+02  0.37558259565E+02  0.48710353259E+02  0.10570000000E+00 0.  1.
         13    1    3    3    0    0  0.20610860254E+02 -0.23178803251E+02 -0.28658432106E+02  0.42230100448E+02  0.10570000000E+00 0. -1.
<mgrwt>
<rscale>  0 0.90503918E+02</rscale>
<asrwt>0</asrwt>
<pdfrwt beam="2">  1        1 0.63108174E-02 0.90503918E+02</pdfrwt>
<pdfrwt beam="1">  1       -1 0.76800216E-02 0.90503918E+02</pdfrwt>
<totfact> 0.92930589E+04</totfact>
</mgrwt>
</event>
<event>
 5   1  0.1388354E+00  0.9193020E+02  0.7818608E-02  0.1298244E+00
         -1   -1    0    0    0  501 -0.00000000000E+00  0.00000000000E+00  0.68893289851E+01  0.68893305679E+01  0.46700000000E-02 0.  1.
          1   -1    0    0  501    0  0.00000000000E+00 -0.00000000000E+00 -0.30667577322E+03  0.30667577326E+03  0.46700000000E-02 0. -1.
         23    2    1    2    0    0  0.00000000000E+00  0.00000000000E+00 -0.29978644424E+03  0.31356510383E+03  0.91930202811E+02 0.  0.
        -13    1    3    3    0    0 -0.25417545393E+01  0.39094472692E+02 -0.23189273697E+03  0.23517884885E+03  0.10570000000E+00 0.  1.
         13    1    3    3    0    0  0.25417545393E+01 -0.39094472692E+02 -0.67893707262E+02  0.78386254978E+02  0.10570000000E+00 0. -1.
<mgrwt>
<rscale>  0 0.91930203E+02</rscale>
<asrwt>0</asrwt>
<pdfrwt beam="2">  1        1 0.47180878E-01 0.91930203E+02</pdfrwt>
<pdfrwt beam="1">  1       -1 0.10598971E-02 0.91930203E+02</pdfrwt>
<totfact> 0.12586646E+05</totfact>
</mgrwt>
</event>
<event>
 5   1  0.1388354E+00  0.9082842E+02  0.7818608E-02  0.1300858E+00
         -1   -1    0    0    0  501 -0.00000000000E+00  0.00000000000E+00  0.44010886102E+02  0.44010886349E+02  0.46700000000E-02 0.  1.
          1   -1    0    0  501    0  0.00000000000E+00 -0.00000000000E+00 -0.46862277873E+02  0.46862278106E+02  0.46700000000E-02 0. -1.
         23    2    1    2    0    0  0.00000000000E+00  0.00000000000E+00 -0.28513917716E+01  0.90873164455E+02  0.90828418367E+02 0.  0.
        -13    1    3    3    0    0  0.14129116115E+01  0.33867755299E+02  0.28812000072E+02  0.44487792583E+02  0.10570000000E+00 0.  1.
         13    1    3    3    0    0 -0.14129116115E+01 -0.33867755299E+02 -0.31663391844E+02  0.46385371873E+02  0.10570000000E+00 0. -1.
<mgrwt>
<rscale>  0 0.90828418E+02</rscale>
<asrwt>0</asrwt>
<pdfrwt beam="2">  1        1 0.72095812E-02 0.90828418E+02</pdfrwt>
<pdfrwt beam="1">  1       -1 0.67709056E-02 0.90828418E+02</pdfrwt>
<totfact> 0.93857587E+04</totfact>
</mgrwt>
</event>
<event>
 5   1  0.1388354E+00  0.9133558E+02  0.7818608E-02  0.1299649E+00
         -1   -1    0    0    0  501 -0.00000000000E+00  0.00000000000E+00  0.64837085546E+01  0.64837102364E+01  0.46700000000E-02 0.  1.
          1   -1    0    0  501    0  0.00000000000E+00 -0.00000000000E+00 -0.32165957032E+03  0.32165957035E+03  0.46700000000E-02 0. -1.
         23    2    1    2    0    0  0.00000000000E+00  0.00000000000E+00 -0.31517586176E+03  0.32814328059E+03  0.91335583191E+02 0.  0.
        -13    1    3    3    0    0  0.32947253772E+02  0.25206177626E+02 -0.22619508682E+03  0.22996760945E+03  0.10570000000E+00 0.  1.
         13    1    3    3    0    0 -0.32947253772E+02 -0.25206177626E+02 -0.88980774944E+02  0.98175671140E+02  0.10570000000E+00 0. -1.
<mgrwt>
<rscale>  0 0.91335583E+02</rscale>
<asrwt>0</asrwt>
<pdfrwt beam="2">  1        1 0.49486075E-01 0.91335583E+02</pdfrwt>
<pdfrwt beam="1">  1       -1 0.99749401E-03 0.91335583E+02</pdfrwt>
<totfact> 0.12921621E+05</totfact>
</mgrwt>
</event>
<event>
 5   1  0.1388354E+00  0.9065796E+02  0.7818608E-02  0.1301266E+00
          1   -1    0    0  501    0  0.00000000000E+00  0.00000000000E+00  0.47859934815E+02  0.47859935043E+02  0.46700000000E-02 0. -1.
         -1   -1    0    0    0  501 -0.00000000000E+00 -0.00000000000E+00 -0.42931866792E+02  0.42931867046E+02  0.46700000000E-02 0.  1.
         23    2    1    2    0    0  0.00000000000E+00  0.00000000000E+00  0.49280680236E+01  0.90791802089E+02  0.90657958680E+02 0.  0.
        -13    1    3    3    0    0  0.17612528399E+02  0.25466382405E+01 -0.39287065721E+02  0.43129702392E+02  0.10570000000E+00 0.  1.
         13    1    3    3    0    0 -0.17612528399E+02 -0.25466382405E+01  0.44215133745E+02  0.47662099697E+02  0.10570000000E+00 0. -1.
<mgrwt>
<rscale>  0 0.90657959E+02</rscale>
<asrwt>0</asrwt>
<pdfrwt beam="1">  1        1 0.73630669E-02 0.90657959E+02</pdfrwt>
<pdfrwt beam="2">  1       -1 0.66049026E-02 0.90657959E+02</pdfrwt>
<totfact> 0.94649754E+04</totfact>
</mgrwt>
</event>
<event>
 5   1  0.1388354E+00  0.9196372E+02  0.7818608E-02  0.1298165E+00
          1   -1    0    0  501    0  0.00000000000E+00  0.00000000000E+00  0.32374592865E+02  0.32374593202E+02  0.46700000000E-02 0. -1.
         -1   -1    0    0    0  501 -0.00000000000E+00 -0.00000000000E+00 -0.65308360088E+02  0.65308360255E+02  0.46700000000E-02 0.  1.
         23    2    1    2    0    0  0.00000000000E+00  0.00000000000E+00 -0.32933767223E+02  0.97682953457E+02  0.91963723133E+02 0.  0.
        -13    1    3    3    0    0 -0.27111647494E+02 -0.36007728146E+02 -0.68060617469E+01  0.45584334646E+02  0.10570000000E+00 0.  1.
         13    1    3    3    0    0  0.27111647494E+02  0.36007728146E+02 -0.26127705476E+02  0.52098618811E+02  0.10570000000E+00 0. -1.
<mgrwt>
<rscale>  0 0.91963723E+02</rscale>
<asrwt>0</asrwt>
<pdfrwt beam="1">  1        1 0.49807066E-02 0.91963723E+02</pdfrwt>
<pdfrwt beam="2">  1       -1 0.10047440E-01 0.91963723E+02</pdfrwt>
<totfact> 0.85612757E+04</totfact>
</mgrwt>
</event>
<event>
 5   1  0.1388354E+00  0.9156089E+02  0.7818608E-02  0.1299115E+00
         -1   -1    0    0    0  501 -0.00000000000E+00  0.00000000000E+00  0.19125673461E+03  0.19125673467E+03  0.46700000000E-02 0.  1.
          1   -1    0    0  501    0  0.00000000000E+00 -0.00000000000E+00 -0.10958302050E+02  0.10958303045E+02  0.46700000000E-02 0. -1.
         23    2    1    2    0    0  0.00000000000E+00  0.00000000000E+00  0.18029843256E+03  0.20221503772E+03  0.91560890634E+02 0.  0.
        -13    1    3    3    0    0  0.64639504389E+01 -0.40468570617E+02  0.45084898928E+02  0.60927392418E+02  0.10570000000E+00 0. -1.
         13    1    3    3    0    0 -0.64639504389E+01  0.40468570617E+02  0.13521353364E+03  0.14128764530E+03  0.10570000000E+00 0.  1.
<mgrwt>
<rscale>  0 0.91560891E+02</rscale>
<asrwt>0</asrwt>
<pdfrwt beam="2">  1        1 0.16858926E-02 0.91560891E+02</pdfrwt>
<pdfrwt beam="1">  1       -1 0.29424114E-01 0.91560891E+02</pdfrwt>
<totfact> 0.69537580E+04</totfact>
</mgrwt>
</event>
<event>
 5   1  0.1388354E+00  0.9115639E+02  0.7818608E-02  0.1300075E+00
          1   -1    0    0  501    0  0.00000000000E+00  0.00000000000E+00  0.13501025836E+03  0.13501025844E+03  0.46700000000E-02 0. -1.
         -1   -1    0    0    0  501 -0.00000000000E+00 -0.00000000000E+00 -0.15386769294E+02  0.15386770002E+02  0.46700000000E-02 0.  1.
         23    2    1    2    0    0  0.00000000000E+00  0.00000000000E+00  0.11962348907E+03  0.15039702845E+03  0.91156387753E+02 0.  0.
        -13    1    3    3    0    0 -0.16693423207E+02 -0.41696187709E+02  0.47019259888E+02  0.65023568195E+02  0.10570000000E+00 0.  1.
         13    1    3    3    0    0  0.16693423207E+02  0.41696187709E+02  0.72604229180E+02  0.85373460251E+02  0.10570000000E+00 0. -1.
<mgrwt>
<rscale>  0 0.91156388E+02</rscale>
<asrwt>0</asrwt>
<pdfrwt beam="1">  1        1 0.20770808E-01 0.91156388E+02</pdfrwt>
<pdfrwt beam="2">  1       -1 0.23671954E-02 0.91156388E+02</pdfrwt>
<totfact> 0.11007479E+05</totfact>
</mgrwt>
</event>
<event>
 5   1  0.1388354E+00  0.9152416E+02  0.7818608E-02  0.1299202E+00
         -1   -1    0    0    0  501 -0.00000000000E+00  0.00000000000E+00  0.12255496503E+02  0.12255497392E+02  0.46700000000E-02 0.  1.
          1   -1    0    0  501    0  0.00000000000E+00 -0.00000000000E+00 -0.17087582612E+03  0.17087582618E+03  0.46700000000E-02 0. -1.
         23    2    1    2    0    0  0.00000000000E+00  0.00000000000E+00 -0.15862032962E+03  0.18313132358E+03  0.91524164606E+02 0.  0.
        -13    1    3    3    0    0  0.17116999287E+02  0.40136914238E+02 -0.51715530394E+02  0.67664398361E+02  0.10570000000E+00 0.  1.
         13    1    3    3    0    0 -0.17116999287E+02 -0.40136914238E+02 -0.10690479922E+03  0.11546692521E+03  0.10570000000E+00 0. -1.
<mgrwt>
<rscale>  0 0.91524165E+02</rscale>
<asrwt>0</asrwt>
<pdfrwt beam="2">  1        1 0.26288587E-01 0.91524165E+02</pdfrwt>
<pdfrwt beam="1">  1       -1 0.18854612E-02 0.91524165E+02</pdfrwt>
<totfact> 0.11371643E+05</totfact>
</mgrwt>
</event>
<event>
 5   1  0.1388354E+00  0.8505195E+02  0.7818608E-02  0.1315297E+00
          1   -1    0    0  501    0  0.00000000000E+00  0.00000000000E+00  0.48681702401E+02  0.48681702625E+02  0.46700000000E-02 0. -1.
         -1   -1    0    0    0  501 -0.00000000000E+00 -0.00000000000E+00 -0.37148631083E+02  0.37148631376E+02  0.46700000000E-02 0.  1.
         23    2    1    2    0    0  0.00000000000E+00  0.00000000000E+00  0.11533071318E+02  0.85830334001E+02  0.85051951775E+02 0.  0.
        -13    1    3    3    0    0  0.13418197846E+02  0.22023579660E+02 -0.28356548204E+02  0.38330028607E+02  0.10570000000E+00 0.  1.
         13    1    3    3    0    0 -0.13418197846E+02 -0.22023579660E+02  0.39889619522E+02  0.47500305394E+02  0.10570000000E+00 0. -1.
<mgrwt>
<rscale>  0 0.85051952E+02</rscale>
<asrwt>0</asrwt>
<pdfrwt beam="1">  1        1 0.74894927E-02 0.85051952E+02</pdfrwt>
<pdfrwt beam="2">  1       -1 0.57151741E-02 0.85051952E+02</pdfrwt>
<totfact> 0.11331121E+05</totfact>
</mgrwt>
</event>
<event>
 5   1  0.1388354E+00  0.9213636E+02  0.7818608E-02  0.1297759E+00
          1   -1    0    0  501    0  0.00000000000E+00  0.00000000000E+00  0.50853617938E+02  0.50853618152E+02  0.46700000000E-02 0. -1.
         -1   -1    0    0    0  501 -0.00000000000E+00 -0.00000000000E+00 -0.41733066249E+02  0.41733066511E+02  0.46700000000E-02 0.  1.
         23    2    1    2    0    0  0.00000000000E+00  0.00000000000E+00  0.91205516887E+01  0.92586684663E+02  0.92136364774E+02 0.  0.
        -13    1    3    3    0    0 -0.41992086883E+02 -0.18945461863E+02  0.45796047690E+01  0.46295246390E+02  0.10570000000E+00 0.  1.
         13    1    3    3    0    0  0.41992086883E+02  0.18945461863E+02  0.45409469197E+01  0.46291438273E+02  0.10570000000E+00 0. -1.
<mgrwt>
<rscale>  0 0.92136365E+02</rscale>
<asrwt>0</asrwt>
<pdfrwt beam="1">  1        1 0.78236335E-02 0.92136365E+02</pdfrwt>
<pdfrwt beam="2">  1       -1 0.64204718E-02 0.92136365E+02</pdfrwt>
<totfact> 0.91288672E+04</totfact>
</mgrwt>
</event>
<event>
 5   1  0.1388354E+00  0.9158337E+02  0.7818608E-02  0.1299062E+00
          1   -1    0    0  501    0  0.00000000000E+00  0.00000000000E+00  0.98688186780E+01  0.98688197829E+01  0.46700000000E-02 0. -1.
         -1   -1    0    0    0  501 -0.00000000000E+00 -0.00000000000E+00 -0.21247509425E+03  0.21247509430E+03  0.46700000000E-02 0.  1.
         23    2    1    2    0    0  0.00000000000E+00  0.00000000000E+00 -0.20260627557E+03  0.22234391409E+03  0.91583367645E+02 0.  0.
        -13    1    3    3    0    0 -0.33703994531E+02  0.55021843130E+01 -0.17536558554E+03  0.17865982493E+03  0.10570000000E+00 0.  1.
         13    1    3    3    0    0  0.33703994531E+02 -0.55021843130E+01 -0.27240690038E+02  0.43684089161E+02  0.10570000000E+00 0. -1.
<mgrwt>
<rscale>  0 0.91583368E+02</rscale>
<asrwt>0</asrwt>
<pdfrwt beam="1">  1        1 0.15182800E-02 0.91583368E+02</pdfrwt>
<pdfrwt beam="2">  1       -1 0.32688473E-01 0.91583368E+02</pdfrwt>
<totfact> 0.67419368E+04</totfact>
</mgrwt>
</event>
<event>
 5   1  0.1388354E+00  0.9053686E+02  0.7818608E-02  0.1301557E+00
         -1   -1    0    0    0  501 -0.00000000000E+00  0.00000000000E+00  0.10338455995E+03  0.10338456005E+03  0.46700000000E-02 0.  1.
          1   -1    0    0  501    0  0.00000000000E+00 -0.00000000000E+00 -0.19821437734E+02  0.19821438284E+02  0.46700000000E-02 0. -1.
         23    2    1    2    0    0  0.00000000000E+00  0.00000000000E+00  0.83563122214E+02  0.12320599834E+03  0.90536857864E+02 0.  0.
        -13    1    3    3    0    0 -0.33243082010E+02 -0.24153653696E+02  0.15935739665E+02  0.44073353169E+02  0.10570000000E+00 0. -1.
         13    1    3    3    0    0  0.33243082010E+02  0.24153653696E+02  0.67627382548E+02  0.79132645167E+02  0.10570000000E+00 0.  1.
<mgrwt>
<rscale>  0 0.90536858E+02</rscale>
<asrwt>0</asrwt>
<pdfrwt beam="2">  1        1 0.30494521E-02 0.90536858E+02</pdfrwt>
<pdfrwt beam="1">  1       -1 0.15905317E-01 0.90536858E+02</pdfrwt>
<totfact> 0.82344746E+04</totfact>
</mgrwt>
</event>
<event>
 5   1  0.1388354E+00  0.9343831E+02  0.7818608E-02  0.1294733E+00
         -1   -1    0    0    0  501 -0.00000000000E+00  0.00000000000E+00  0.31119730685E+02  0.31119731036E+02  0.46700000000E-02 0.  1.
          1   -1    0    0  501    0  0.00000000000E+00 -0.00000000000E+00 -0.70138119847E+02  0.70138120003E+02  0.46700000000E-02 0. -1.
         23    2    1    2    0    0  0.00000000000E+00  0.00000000000E+00 -0.39018389162E+02  0.10125785104E+03  0.93438309617E+02 0.  0.
        -13    1    3    3    0    0  0.14145146770E+01 -0.13725748021E+02  0.28861014690E+02  0.31990097717E+02  0.10570000000E+00 0.  1.
         13    1    3    3    0    0 -0.14145146770E+01  0.13725748021E+02 -0.67879403851E+02  0.69267753322E+02  0.10570000000E+00 0. -1.
<mgrwt>
<rscale>  0 0.93438310E+02</rscale>
<asrwt>0</asrwt>
<pdfrwt beam="2">  1        1 0.10790480E-01 0.93438310E+02</pdfrwt>
<pdfrwt beam="1">  1       -1 0.47876509E-02 0.93438310E+02</pdfrwt>
<totfact> 0.92232113E+04</totfact>
</mgrwt>
</event>
<event>
 5   1  0.1388354E+00  0.9094432E+02  0.7818608E-02  0.1300581E+00
         -1   -1    0    0    0  501 -0.00000000000E+00  0.00000000000E+00  0.23225323889E+02  0.23225324359E+02  0.46700000000E-02 0.  1.
          1   -1    0    0  501    0  0.00000000000E+00 -0.00000000000E+00 -0.89028567814E+02  0.89028567936E+02  0.46700000000E-02 0. -1.
         23    2    1    2    0    0  0.00000000000E+00  0.00000000000E+00 -0.65803243924E+02  0.11225389229E+03  0.90944320463E+02 0.  0.
        -13    1    3    3    0    0  0.88777672799E+01 -0.25312921137E+02 -0.78222104429E+02  0.82693817920E+02  0.10570000000E+00 0. -1.
         13    1    3    3    0    0 -0.88777672799E+01  0.25312921137E+02  0.12418860505E+02  0.29560074375E+02  0.10570000000E+00 0.  1.
<mgrwt>
<rscale>  0 0.90944320E+02</rscale>
<asrwt>0</asrwt>
<pdfrwt beam="2">  1        1 0.13696703E-01 0.90944320E+02</pdfrwt>
<pdfrwt beam="1">  1       -1 0.35731269E-02 0.90944320E+02</pdfrwt>
<totfact> 0.10319847E+05</totfact>
</mgrwt>
</event>
<event>
 5   1  0.1388354E+00  0.9144291E+02  0.7818608E-02  0.1299395E+00
         -1   -1    0    0    0  501 -0.00000000000E+00  0.00000000000E+00  0.84616225747E+01  0.84616238634E+01  0.46700000000E-02 0.  1.
          1   -1    0    0  501    0  0.00000000000E+00 -0.00000000000E+00 -0.24705089117E+03  0.24705089121E+03  0.46700000000E-02 0. -1.
         23    2    1    2    0    0  0.00000000000E+00  0.00000000000E+00 -0.23858926859E+03  0.25551251508E+03  0.91442912641E+02 0.  0.
        -13    1    3    3    0    0 -0.20213344649E+02  0.40640558301E+02 -0.10393752203E+03  0.11341628604E+03  0.10570000000E+00 0. -1.
         13    1    3    3    0    0  0.20213344649E+02 -0.40640558301E+02 -0.13465174657E+03  0.14209622904E+03  0.10570000000E+00 0.  1.
<mgrwt>
<rscale>  0 0.91442913E+02</rscale>
<asrwt>0</asrwt>
<pdfrwt beam="2">  1        1 0.38007824E-01 0.91442913E+02</pdfrwt>
<pdfrwt beam="1">  1       -1 0.13017884E-02 0.91442913E+02</pdfrwt>
<totfact> 0.12242667E+05</totfact>
</mgrwt>
</event>
<event>
 5   1  0.1388354E+00  0.9259068E+02  0.7818608E-02  0.1296697E+00
          1   -1    0    0  501    0  0.00000000000E+00  0.00000000000E+00  0.58919812384E+02  0.58919812569E+02  0.46700000000E-02 0. -1.
         -1   -1    0    0    0  501 -0.00000000000E+00 -0.00000000000E+00 -0.36375855981E+02  0.36375856281E+02  0.46700000000E-02 0.  1.
         23    2    1    2    0    0  0.00000000000E+00  0.00000000000E+00  0.22543956403E+02  0.95295668850E+02  0.92590682745E+02 0.  0.
        -13    1    3    3    0    0 -0.37859639701E+02  0.91980759582E+01  0.37008319393E+02  0.53736242857E+02  0.10570000000E+00 0. -1.
         13    1    3    3    0    0  0.37859639701E+02 -0.91980759582E+01 -0.14464362990E+02  0.41559425992E+02  0.10570000000E+00 0.  1.
<mgrwt>
<rscale>  0 0.92590683E+02</rscale>
<asrwt>0</asrwt>
<pdfrwt beam="1">  1        1 0.90645865E-02 0.92590683E+02</pdfrwt>
<pdfrwt beam="2">  1       -1 0.55962856E-02 0.92590683E+02</pdfrwt>
<totfact> 0.92079976E+04</totfact>
</mgrwt>
</event>
<event>
 5   1  0.1388354E+00  0.9194344E+02  0.7818608E-02  0.1298212E+00
         -1   -1    0    0    0  501 -0.00000000000E+00  0.00000000000E+00  0.48278223984E+02  0.48278224210E+02  0.46700000000E-02 0.  1.
          1   -1    0    0  501    0  0.00000000000E+00 -0.00000000000E+00 -0.43775407919E+02  0.43775408168E+02  0.46700000000E-02 0. -1.
         23    2    1    2    0    0  0.00000000000E+00  0.00000000000E+00  0.45028160646E+01  0.92053632378E+02  0.91943438491E+02 0.  0.
        -13    1    3    3    0    0 -0.10747315460E+01  0.10079092155E+02 -0.42642545241E+02  0.43830822302E+02  0.10570000000E+00 0. -1.
         13    1    3    3    0    0  0.10747315460E+01 -0.10079092155E+02  0.47145361305E+02  0.48222810076E+02  0.10570000000E+00 0.  1.
<mgrwt>
<rscale>  0 0.91943438E+02</rscale>
<asrwt>0</asrwt>
<pdfrwt beam="2">  1        1 0.67346782E-02 0.91943438E+02</pdfrwt>
<pdfrwt beam="1">  1       -1 0.74274191E-02 0.91943438E+02</pdfrwt>
<totfact> 0.89766749E+04</totfact>
</mgrwt>
</event>
<event>
 4   1  0.1388354E+00  0.1555816E+03  0.7818608E-02  0.1193777E+00
          1   -1    0    0  501    0  0.00000000000E+00  0.00000000000E+00  0.10164029981E+02  0.10164031054E+02  0.46700000000E-02 0. -1.
         -1   -1    0    0    0  501 -0.00000000000E+00 -0.00000000000E+00 -0.59537516225E+03  0.59537516227E+03  0.46700000000E-02 0.  1.
        -13    1    1    2    0    0 -0.74823475148E+02  0.21279605833E+02 -0.29323434308E+03  0.30337726545E+03  0.10570000000E+00 0.  1.
         13    1    1    2    0    0  0.74823475148E+02 -0.21279605833E+02 -0.29197678918E+03  0.30216192787E+03  0.10570000000E+00 0. -1.
<mgrwt>
<rscale>  0 0.15558164E+03</rscale>
<asrwt>0</asrwt>
<pdfrwt beam="1">  1        1 0.15636975E-02 0.15558164E+03</pdfrwt>
<pdfrwt beam="2">  1       -1 0.91596151E-01 0.15558164E+03</pdfrwt>
<totfact> 0.10019902E+04</totfact>
</mgrwt>
</event>
<event>
 5   1  0.1388354E+00  0.9090886E+02  0.7818608E-02  0.1300666E+00
          1   -1    0    0  501    0  0.00000000000E+00  0.00000000000E+00  0.13313194451E+02  0.13313195270E+02  0.46700000000E-02 0. -1.
         -1   -1    0    0    0  501 -0.00000000000E+00 -0.00000000000E+00 -0.15519227924E+03  0.15519227931E+03  0.46700000000E-02 0.  1.
         23    2    1    2    0    0  0.00000000000E+00  0.00000000000E+00 -0.14187908479E+03  0.16850547458E+03  0.90908856900E+02 0.  0.
        -13    1    3    3    0    0  0.11666865971E+02  0.43903682031E+02 -0.73837771160E+02  0.86693002485E+02  0.10570000000E+00 0. -1.
         13    1    3    3    0    0 -0.11666865971E+02 -0.43903682031E+02 -0.68041313628E+02  0.81812472094E+02  0.10570000000E+00 0.  1.
<mgrwt>
<rscale>  0 0.90908857E+02</rscale>
<asrwt>0</asrwt>
<pdfrwt beam="1">  1        1 0.20481839E-02 0.90908857E+02</pdfrwt>
<pdfrwt beam="2">  1       -1 0.23875734E-01 0.90908857E+02</pdfrwt>
<totfact> 0.74757731E+04</totfact>
</mgrwt>
</event>
<event>
 5   1  0.1388354E+00  0.9095181E+02  0.7818608E-02  0.1300563E+00
          1   -1    0    0  501    0  0.00000000000E+00  0.00000000000E+00  0.24261973492E+02  0.24261973941E+02  0.46700000000E-02 0. -1.
         -1   -1    0    0    0  501 -0.00000000000E+00 -0.00000000000E+00 -0.85238656934E+02  0.85238657062E+02  0.46700000000E-02 0.  1.
         23    2    1    2    0    0  0.00000000000E+00  0.00000000000E+00 -0.60976683442E+02  0.10950063100E+03  0.90951812881E+02 0.  0.
        -13    1    3    3    0    0 -0.17122945533E+02 -0.25069967464E+02  0.10274417083E+02  0.32051105305E+02  0.10570000000E+00 0. -1.
         13    1    3    3    0    0  0.17122945533E+02  0.25069967464E+02 -0.71251100525E+02  0.77449525698E+02  0.10570000000E+00 0.  1.
<mgrwt>
<rscale>  0 0.90951813E+02</rscale>
<asrwt>0</asrwt>
<pdfrwt beam="1">  1        1 0.37326114E-02 0.90951813E+02</pdfrwt>
<pdfrwt beam="2">  1       -1 0.13113639E-01 0.90951813E+02</pdfrwt>
<totfact> 0.84269038E+04</totfact>
</mgrwt>
</event>
<event>
 5   1  0.1388354E+00  0.9214514E+02  0.7818608E-02  0.1297739E+00
          1   -1    0    0  501    0  0.00000000000E+00  0.00000000000E+00  0.20959139117E+03  0.20959139123E+03  0.46700000000E-02 0. -1.
         -1   -1    0    0    0  501 -0.00000000000E+00 -0.00000000000E+00 -0.10127714253E+02  0.10127715329E+02  0.46700000000E-02 0.  1.
         23    2    1    2    0    0  0.00000000000E+00  0.00000000000E+00  0.19946367692E+03  0.21971910655E+03  0.92145142978E+02 0.  0.
        -13    1    3    3    0    0  0.49416850177E+01  0.37973816672E+02  0.38647958442E+02  0.54406864159E+02  0.10570000000E+00 0.  1.
         13    1    3    3    0    0 -0.49416850177E+01 -0.37973816672E+02  0.16081571848E+03  0.16531224240E+03  0.10570000000E+00 0. -1.
<mgrwt>
<rscale>  0 0.92145143E+02</rscale>
<asrwt>0</asrwt>
<pdfrwt beam="1">  1        1 0.32244827E-01 0.92145143E+02</pdfrwt>
<pdfrwt beam="2">  1       -1 0.15581101E-02 0.92145143E+02</pdfrwt>
<totfact> 0.11614942E+05</totfact>
</mgrwt>
</event>
<event>
 5   1  0.1388354E+00  0.9290390E+02  0.7818608E-02  0.1295968E+00
         -1   -1    0    0    0  501 -0.00000000000E+00  0.00000000000E+00  0.16741717455E+02  0.16741718107E+02  0.46700000000E-02 0.  1.
          1   -1    0    0  501    0  0.00000000000E+00 -0.00000000000E+00 -0.12888664066E+03  0.12888664075E+03  0.46700000000E-02 0. -1.
         23    2    1    2    0    0  0.00000000000E+00  0.00000000000E+00 -0.11214492321E+03  0.14562835886E+03  0.92903902509E+02 0.  0.
        -13    1    3    3    0    0 -0.69630094368E+01  0.39875768712E+02 -0.91790239356E+02  0.10031958754E+03  0.10570000000E+00 0. -1.
         13    1    3    3    0    0  0.69630094368E+01 -0.39875768712E+02 -0.20354683853E+02  0.45308771314E+02  0.10570000000E+00 0.  1.
<mgrwt>
<rscale>  0 0.92903903E+02</rscale>
<asrwt>0</asrwt>
<pdfrwt beam="2">  1        1 0.19828713E-01 0.92903903E+02</pdfrwt>
<pdfrwt beam="1">  1       -1 0.25756490E-02 0.92903903E+02</pdfrwt>
<totfact> 0.10368570E+05</totfact>
</mgrwt>
</event>
<event>
 5   1  0.1388354E+00  0.9771342E+02  0.7818608E-02  0.1285179E+00
          1   -1    0    0  501    0  0.00000000000E+00  0.00000000000E+00  0.69571662367E+01  0.69571678041E+01  0.46700000000E-02 0. -1.
         -1   -1    0    0    0  501 -0.00000000000E+00 -0.00000000000E+00 -0.34309627510E+03  0.34309627514E+03  0.46700000000E-02 0.  1.
         23    2    1    2    0    0  0.00000000000E+00  0.00000000000E+00 -0.33613910887E+03  0.35005344294E+03  0.97713419774E+02 0.  0.
        -13    1    3    3    0    0  0.48196374573E+02 -0.11853754130E+01 -0.13970901656E+03  0.14779349146E+03  0.10570000000E+00 0.  1.
         13    1    3    3    0    0 -0.48196374573E+02  0.11853754130E+01 -0.19643009231E+03  0.20225995148E+03  0.10570000000E+00 0. -1.
<mgrwt>
<rscale>  0 0.97713420E+02</rscale>
<asrwt>0</asrwt>
<pdfrwt beam="1">  1        1 0.10703337E-02 0.97713420E+02</pdfrwt>
<pdfrwt beam="2">  1       -1 0.52784029E-01 0.97713420E+02</pdfrwt>
<totfact> 0.47769885E+04</totfact>
</mgrwt>
</event>
<event>
 5   1  0.1388354E+00  0.9379121E+02  0.7818608E-02  0.1293922E+00
          1   -1    0    0  501    0  0.00000000000E+00  0.00000000000E+00  0.44708967300E+02  0.44708967544E+02  0.46700000000E-02 0. -1.
         -1   -1    0    0    0  501 -0.00000000000E+00 -0.00000000000E+00 -0.49189190107E+02  0.49189190329E+02  0.46700000000E-02 0.  1.
         23    2    1    2    0    0  0.00000000000E+00  0.00000000000E+00 -0.44802228070E+01  0.93898157872E+02  0.93791213103E+02 0.  0.
        -13    1    3    3    0    0  0.39169529856E+02  0.56236487641E+01 -0.27434442571E+02  0.48151192158E+02  0.10570000000E+00 0.  1.
         13    1    3    3    0    0 -0.39169529856E+02 -0.56236487641E+01  0.22954219764E+02  0.45746965714E+02  0.10570000000E+00 0. -1.
<mgrwt>
<rscale>  0 0.93791213E+02</rscale>
<asrwt>0</asrwt>
<pdfrwt beam="1">  1        1 0.68783027E-02 0.93791213E+02</pdfrwt>
<pdfrwt beam="2">  1       -1 0.75675678E-02 0.93791213E+02</pdfrwt>
<totfact> 0.85139771E+04</totfact>
</mgrwt>
</event>
<event>
 5   1  0.1388354E+00  0.9215192E+02  0.7818608E-02  0.1297723E+00
          1   -1    0    0  501    0  0.00000000000E+00  0.00000000000E+00  0.43274337539E+02  0.43274337791E+02  0.46700000000E-02 0. -1.
         -1   -1    0    0    0  501 -0.00000000000E+00 -0.00000000000E+00 -0.49058956790E+02  0.49058957012E+02  0.46700000000E-02 0.  1.
         23    2    1    2    0    0  0.00000000000E+00  0.00000000000E+00 -0.57846192508E+01  0.92333294804E+02  0.92151915387E+02 0.  0.
        -13    1    3    3    0    0 -0.12534002228E+02 -0.17795830793E+02 -0.43582460460E+02  0.48715858175E+02  0.10570000000E+00 0.  1.
         13    1    3    3    0    0  0.12534002228E+02  0.17795830793E+02  0.37797841210E+02  0.43617436629E+02  0.10570000000E+00 0. -1.
<mgrwt>
<rscale>  0 0.92151915E+02</rscale>
<asrwt>0</asrwt>
<pdfrwt beam="1">  1        1 0.66575905E-02 0.92151915E+02</pdfrwt>
<pdfrwt beam="2">  1       -1 0.75475318E-02 0.92151915E+02</pdfrwt>
<totfact> 0.89039204E+04</totfact>
</mgrwt>
</event>
<event>
 5   1  0.1388354E+00  0.9054111E+02  0.7818608E-02  0.1301547E+00
         -1   -1    0    0    0  501 -0.00000000000E+00  0.00000000000E+00  0.34632636128E+02  0.34632636442E+02  0.46700000000E-02 0.  1.
          1   -1    0    0  501    0  0.00000000000E+00 -0.00000000000E+00 -0.59176068616E+02  0.59176068800E+02  0.46700000000E-02 0. -1.
         23    2    1    2    0    0  0.00000000000E+00  0.00000000000E+00 -0.24543432488E+02  0.93808705242E+02  0.90541112766E+02 0.  0.
        -13    1    3    3    0    0 -0.16014366788E+02 -0.18280436401E+02  0.27300637936E+02  0.36550927524E+02  0.10570000000E+00 0.  1.
         13    1    3    3    0    0  0.16014366788E+02  0.18280436401E+02 -0.51844070424E+02  0.57257777719E+02  0.10570000000E+00 0. -1.
<mgrwt>
<rscale>  0 0.90541113E+02</rscale>
<asrwt>0</asrwt>
<pdfrwt beam="2">  1        1 0.91040106E-02 0.90541113E+02</pdfrwt>
<pdfrwt beam="1">  1       -1 0.53280979E-02 0.90541113E+02</pdfrwt>
<totfact> 0.98053578E+04</totfact>
</mgrwt>
</event>
<event>
 5   1  0.1388354E+00  0.8142721E+02  0.7818608E-02  0.1325049E+00
          1   -1    0    0  501    0  0.00000000000E+00  0.00000000000E+00  0.21354258324E+03  0.21354258329E+03  0.46700000000E-02 0. -1.
         -1   -1    0    0    0  501 -0.00000000000E+00 -0.00000000000E+00 -0.77623742910E+01  0.77623756958E+01  0.46700000000E-02 0.  1.
         23    2    1    2    0    0  0.00000000000E+00  0.00000000000E+00  0.20578020895E+03  0.22130495898E+03  0.81427209685E+02 0.  0.
        -13    1    3    3    0    0  0.20776278085E+02 -0.26566726232E+02  0.40905696185E+02  0.53016335470E+02  0.10570000000E+00 0.  1.
         13    1    3    3    0    0 -0.20776278085E+02  0.26566726232E+02  0.16487451276E+03  0.16828862351E+03  0.10570000000E+00 0. -1.
<mgrwt>
<rscale>  0 0.81427210E+02</rscale>
<asrwt>0</asrwt>
<pdfrwt beam="1">  1        1 0.32852706E-01 0.81427210E+02</pdfrwt>
<pdfrwt beam="2">  1       -1 0.11942115E-02 0.81427210E+02</pdfrwt>
<totfact> 0.16203111E+05</totfact>
</mgrwt>
</event>
<event>
 5   1  0.1388354E+00  0.9169021E+02  0.7818608E-02  0.1298809E+00
         -1   -1    0    0    0  501 -0.00000000000E+00  0.00000000000E+00  0.11084218578E+02  0.11084219562E+02  0.46700000000E-02 0.  1.
          1   -1    0    0  501    0  0.00000000000E+00 -0.00000000000E+00 -0.18961854897E+03  0.18961854903E+03  0.46700000000E-02 0. -1.
         23    2    1    2    0    0  0.00000000000E+00  0.00000000000E+00 -0.17853433039E+03  0.20070276859E+03  0.91690207716E+02 0.  0.
        -13    1    3    3    0    0  0.20324221978E+02  0.26630451220E+02 -0.15777405913E+03  0.16129141278E+03  0.10570000000E+00 0. -1.
         13    1    3    3    0    0 -0.20324221978E+02 -0.26630451220E+02 -0.20760271268E+02  0.39411355810E+02  0.10570000000E+00 0.  1.
<mgrwt>
<rscale>  0 0.91690208E+02</rscale>
<asrwt>0</asrwt>
<pdfrwt beam="2">  1        1 0.29172082E-01 0.91690208E+02</pdfrwt>
<pdfrwt beam="1">  1       -1 0.17052646E-02 0.91690208E+02</pdfrwt>
<totfact> 0.11543678E+05</totfact>
</mgrwt>
</event>
<event>
 5   1  0.1388354E+00  0.8964376E+02  0.7818608E-02  0.1303717E+00
         -1   -1    0    0    0  501 -0.00000000000E+00  0.00000000000E+00  0.53341009393E+02  0.53341009597E+02  0.46700000000E-02 0.  1.
          1   -1    0    0  501    0  0.00000000000E+00 -0.00000000000E+00 -0.37663344090E+02  0.37663344380E+02  0.46700000000E-02 0. -1.
         23    2    1    2    0    0  0.00000000000E+00  0.00000000000E+00  0.15677665303E+02  0.91004353977E+02  0.89643757470E+02 0.  0.
        -13    1    3    3    0    0  0.70334986628E+01  0.21059755952E+02 -0.31688054168E+02  0.38692730243E+02  0.10570000000E+00 0. -1.
         13    1    3    3    0    0 -0.70334986628E+01 -0.21059755952E+02  0.47365719471E+02  0.52311623734E+02  0.10570000000E+00 0.  1.
<mgrwt>
<rscale>  0 0.89643757E+02</rscale>
<asrwt>0</asrwt>
<pdfrwt beam="2">  1        1 0.57943607E-02 0.89643757E+02</pdfrwt>
<pdfrwt beam="1">  1       -1 0.82063092E-02 0.89643757E+02</pdfrwt>
<totfact> 0.94246211E+04</totfact>
</mgrwt>
</event>
<event>
 5   1  0.1388354E+00  0.8851462E+02  0.7818608E-02  0.1306489E+00
         -1   -1    0    0    0  501 -0.00000000000E+00  0.00000000000E+00  0.98231461668E+02  0.98231461779E+02  0.46700000000E-02 0.  1.
          1   -1    0    0  501    0  0.00000000000E+00 -0.00000000000E+00 -0.19939737125E+02  0.19939737672E+02  0.46700000000E-02 0. -1.
         23    2    1    2    0    0  0.00000000000E+00  0.00000000000E+00  0.78291724543E+02  0.11817119945E+03  0.88514621660E+02 0.  0.
        -13    1    3    3    0    0  0.88075601345E+01  0.43227038438E+02  0.43875100367E+02  0.62218852227E+02  0.10570000000E+00 0.  1.
         13    1    3    3    0    0 -0.88075601345E+01 -0.43227038438E+02  0.34416624176E+02  0.55952347223E+02  0.10570000000E+00 0. -1.
<mgrwt>
<rscale>  0 0.88514622E+02</rscale>
<asrwt>0</asrwt>
<pdfrwt beam="2">  1        1 0.30676520E-02 0.88514622E+02</pdfrwt>
<pdfrwt beam="1">  1       -1 0.15112532E-01 0.88514622E+02</pdfrwt>
<totfact> 0.88101719E+04</totfact>
</mgrwt>
</event>
<event>
 5   1  0.1388354E+00  0.9039478E+02  0.7818608E-02  0.1301898E+00
         -1   -1    0    0    0  501 -0.00000000000E+00  0.00000000000E+00  0.17671016582E+02  0.17671017199E+02  0.46700000000E-02 0.  1.
          1   -1    0    0  501    0  0.00000000000E+00 -0.00000000000E+00 -0.11560194600E+03  0.11560194610E+03  0.46700000000E-02 0. -1.
         23    2    1    2    0    0  0.00000000000E+00  0.00000000000E+00 -0.97930929423E+02  0.13327296330E+03  0.90394777551E+02 0.  0.
        -13    1    3    3    0    0  0.36326121933E+02  0.24017337410E+02 -0.66802777235E+02  0.79743600682E+02  0.10570000000E+00 0. -1.
         13    1    3    3    0    0 -0.36326121933E+02 -0.24017337410E+02 -0.31128152188E+02  0.53529362616E+02  0.10570000000E+00 0.  1.
<mgrwt>
<rscale>  0 0.90394778E+02</rscale>
<asrwt>0</asrwt>
<pdfrwt beam="2">  1        1 0.17784914E-01 0.90394778E+02</pdfrwt>
<pdfrwt beam="1">  1       -1 0.27186181E-02 0.90394778E+02</pdfrwt>
<totfact> 0.10957531E+05</totfact>
</mgrwt>
</event>
<event>
 5   1  0.1388354E+00  0.9015253E+02  0.7818608E-02  0.1302483E+00
         -1   -1    0    0    0  501 -0.00000000000E+00  0.00000000000E+00  0.63366104876E+02  0.63366105048E+02  0.46700000000E-02 0.  1.
          1   -1    0    0  501    0  0.00000000000E+00 -0.00000000000E+00 -0.32065557511E+02  0.32065557851E+02  0.46700000000E-02 0. -1.
         23    2    1    2    0    0  0.00000000000E+00  0.00000000000E+00  0.31300547366E+02  0.95431662899E+02  0.90152526411E+02 0.  0.
        -13    1    3    3    0    0  0.28245791472E+02 -0.23532520840E+02  0.43259240874E+02  0.56771272370E+02  0.10570000000E+00 0.  1.
         13    1    3    3    0    0 -0.28245791472E+02  0.23532520840E+02 -0.11958693508E+02  0.38660390529E+02  0.10570000000E+00 0. -1.
<mgrwt>
<rscale>  0 0.90152526E+02</rscale>
<asrwt>0</asrwt>
<pdfrwt beam="2">  1        1 0.49331628E-02 0.90152526E+02</pdfrwt>
<pdfrwt beam="1">  1       -1 0.97486315E-02 0.90152526E+02</pdfrwt>
<totfact> 0.90483514E+04</totfact>
</mgrwt>
</event>
<event>
 5   1  0.1388354E+00  0.9190027E+02  0.7818608E-02  0.1298314E+00
         -1   -1    0    0    0  501 -0.00000000000E+00  0.00000000000E+00  0.28380898544E+02  0.28380898928E+02  0.46700000000E-02 0.  1.
          1   -1    0    0  501    0  0.00000000000E+00 -0.00000000000E+00 -0.74395633452E+02  0.74395633599E+02  0.46700000000E-02 0. -1.
         23    2    1    2    0    0  0.00000000000E+00  0.00000000000E+00 -0.46014734908E+02  0.10277653253E+03  0.91900270999E+02 0.  0.
        -13    1    3    3    0    0 -0.40781347613E+02  0.75064849976E+01 -0.86694320890E+00  0.41475636139E+02  0.10570000000E+00 0.  1.
         13    1    3    3    0    0  0.40781347613E+02 -0.75064849976E+01 -0.45147791700E+02  0.61300896388E+02  0.10570000000E+00 0. -1.
<mgrwt>
<rscale>  0 0.91900271E+02</rscale>
<asrwt>0</asrwt>
<pdfrwt beam="2">  1        1 0.11445482E-01 0.91900271E+02</pdfrwt>
<pdfrwt beam="1">  1       -1 0.43662921E-02 0.91900271E+02</pdfrwt>
<totfact> 0.97457318E+04</totfact>
</mgrwt>
</event>
<event>
 5   1  0.1388354E+00  0.9183903E+02  0.7818608E-02  0.1298458E+00
         -1   -1    0    0    0  501 -0.00000000000E+00  0.00000000000E+00  0.13782234510E+03  0.13782234518E+03  0.46700000000E-02 0.  1.
          1   -1    0    0  501    0  0.00000000000E+00 -0.00000000000E+00 -0.15299417991E+02  0.15299418704E+02  0.46700000000E-02 0. -1.
         23    2    1    2    0    0  0.00000000000E+00  0.00000000000E+00  0.12252292711E+03  0.15312176389E+03  0.91839027149E+02 0.  0.
        -13    1    3    3    0    0 -0.27957077252E+02  0.31241668391E+02  0.92495823265E+02  0.10155357456E+03  0.10570000000E+00 0.  1.
         13    1    3    3    0    0  0.27957077252E+02 -0.31241668391E+02  0.30027103847E+02  0.51568189325E+02  0.10570000000E+00 0. -1.
<mgrwt>
<rscale>  0 0.91839027E+02</rscale>
<asrwt>0</asrwt>
<pdfrwt beam="2">  1        1 0.23537566E-02 0.91839027E+02</pdfrwt>
<pdfrwt beam="1">  1       -1 0.21203438E-01 0.91839027E+02</pdfrwt>
<totfact> 0.74828037E+04</totfact>
</mgrwt>
</event>
<event>
 5   1  0.1388354E+00  0.9079994E+02  0.7818608E-02  0.1300926E+00
          1   -1    0    0  501    0  0.00000000000E+00  0.00000000000E+00  0.20037341745E+02  0.20037342289E+02  0.46700000000E-02 0. -1.
         -1   -1    0    0    0  501 -0.00000000000E+00 -0.00000000000E+00 -0.10286580730E+03  0.10286580741E+03  0.46700000000E-02 0.  1.
         23    2    1    2    0    0  0.00000000000E+00  0.00000000000E+00 -0.82828465557E+02  0.12290314970E+03  0.90799942174E+02 0.  0.
        -13    1    3    3    0    0 -0.19944483557E+02  0.19967980464E+02 -0.89549291381E+02  0.93891370357E+02  0.10570000000E+00 0.  1.
         13    1    3    3    0    0  0.19944483557E+02 -0.19967980464E+02  0.67208258244E+01  0.29011779339E+02  0.10570000000E+00 0. -1.
<mgrwt>
<rscale>  0 0.90799942E+02</rscale>
<asrwt>0</asrwt>
<pdfrwt beam="1">  1        1 0.30826681E-02 0.90799942E+02</pdfrwt>
<pdfrwt beam="2">  1       -1 0.15825509E-01 0.90799942E+02</pdfrwt>
<totfact> 0.81809571E+04</totfact>
</mgrwt>
</event>
<event>
 5   1  0.1388354E+00  0.9029550E+02  0.7818608E-02  0.1302138E+00
         -1   -1    0    0    0  501 -0.00000000000E+00  0.00000000000E+00  0.10078209138E+02  0.10078210220E+02  0.46700000000E-02 0.  1.
          1   -1    0    0  501    0  0.00000000000E+00 -0.00000000000E+00 -0.20225014495E+03  0.20225014500E+03  0.46700000000E-02 0. -1.
         23    2    1    2    0    0  0.00000000000E+00  0.00000000000E+00 -0.19217193581E+03  0.21232835522E+03  0.90295501096E+02 0.  0.
        -13    1    3    3    0    0  0.19645640048E+01 -0.37303953031E+02 -0.36464678638E+02  0.52202762227E+02  0.10570000000E+00 0.  1.
         13    1    3    3    0    0 -0.19645640048E+01  0.37303953031E+02 -0.15570725717E+03  0.16012559299E+03  0.10570000000E+00 0. -1.
<mgrwt>
<rscale>  0 0.90295501E+02</rscale>
<asrwt>0</asrwt>
<pdfrwt beam="2">  1        1 0.31115404E-01 0.90295501E+02</pdfrwt>
<pdfrwt beam="1">  1       -1 0.15504939E-02 0.90295501E+02</pdfrwt>
<totfact> 0.12179107E+05</totfact>
</mgrwt>
</event>
<event>
 5   1  0.1388354E+00  0.8970527E+02  0.7818608E-02  0.1303567E+00
          1   -1    0    0  501    0  0.00000000000E+00  0.00000000000E+00  0.14750381987E+02  0.14750382726E+02  0.46700000000E-02 0. -1.
         -1   -1    0    0    0  501 -0.00000000000E+00 -0.00000000000E+00 -0.13638690304E+03  0.13638690312E+03  0.46700000000E-02 0.  1.
         23    2    1    2    0    0  0.00000000000E+00  0.00000000000E+00 -0.12163652106E+03  0.15113728585E+03  0.89705272528E+02 0.  0.
        -13    1    3    3    0    0 -0.30755226123E+02 -0.32582932619E+02 -0.57358681253E+02  0.72784345291E+02  0.10570000000E+00 0. -1.
         13    1    3    3    0    0  0.30755226123E+02  0.32582932619E+02 -0.64277839804E+02  0.78352940559E+02  0.10570000000E+00 0.  1.
<mgrwt>
<rscale>  0 0.89705273E+02</rscale>
<asrwt>0</asrwt>
<pdfrwt beam="1">  1        1 0.22692897E-02 0.89705273E+02</pdfrwt>
<pdfrwt beam="2">  1       -1 0.20982600E-01 0.89705273E+02</pdfrwt>
<totfact> 0.79710772E+04</totfact>
</mgrwt>
</event>
<event>
 5   1  0.1388354E+00  0.9176163E+02  0.7818608E-02  0.1298641E+00
         -1   -1    0    0    0  501 -0.00000000000E+00  0.00000000000E+00  0.18367167879E+02  0.18367168473E+02  0.46700000000E-02 0.  1.
          1   -1    0    0  501    0  0.00000000000E+00 -0.00000000000E+00 -0.11460935529E+03  0.11460935539E+03  0.46700000000E-02 0. -1.
         23    2    1    2    0    0  0.00000000000E+00  0.00000000000E+00 -0.96242187416E+02  0.13297652386E+03  0.91761632833E+02 0.  0.
        -13    1    3    3    0    0  0.23644114563E+02  0.20424621266E+02 -0.96809761348E+02  0.10172684195E+03  0.10570000000E+00 0. -1.
         13    1    3    3    0    0 -0.23644114563E+02 -0.20424621266E+02  0.56757393277E+00  0.31249681918E+02  0.10570000000E+00 0.  1.
<mgrwt>
<rscale>  0 0.91761633E+02</rscale>
<asrwt>0</asrwt>
<pdfrwt beam="2">  1        1 0.17632208E-01 0.91761633E+02</pdfrwt>
<pdfrwt beam="1">  1       -1 0.28257183E-02 0.91761633E+02</pdfrwt>
<totfact> 0.10504479E+05</totfact>
</mgrwt>
</event>
<event>
 5   1  0.1388354E+00  0.9009312E+02  0.7818608E-02  0.1302626E+00
          1   -1    0    0  501    0  0.00000000000E+00  0.00000000000E+00  0.10657055272E+03  0.10657055282E+03  0.46700000000E-02 0. -1.
         -1   -1    0    0    0  501 -0.00000000000E+00 -0.00000000000E+00 -0.19040837637E+02  0.19040838210E+02  0.46700000000E-02 0.  1.
         23    2    1    2    0    0  0.00000000000E+00  0.00000000000E+00  0.87529715079E+02  0.12561139103E+03  0.90093121460E+02 0.  0.
        -13    1    3    3    0    0  0.22083302170E+01  0.29411028280E+02 -0.37068210362E+01  0.29726032388E+02  0.10570000000E+00 0.  1.
         13    1    3    3    0    0 -0.22083302170E+01 -0.29411028280E+02  0.91236536116E+02  0.95885358641E+02  0.10570000000E+00 0. -1.
<mgrwt>
<rscale>  0 0.90093121E+02</rscale>
<asrwt>0</asrwt>
<pdfrwt beam="1">  1        1 0.16395470E-01 0.90093121E+02</pdfrwt>
<pdfrwt beam="2">  1       -1 0.29293597E-02 0.90093121E+02</pdfrwt>
<totfact> 0.10905777E+05</totfact>
</mgrwt>
</event>
<event>
 5   1  0.1388354E+00  0.8411618E+02  0.7818608E-02  0.1317760E+00
          1   -1    0    0  501    0  0.00000000000E+00  0.00000000000E+00  0.21102309906E+03  0.21102309912E+03  0.46700000000E-02 0. -1.
         -1   -1    0    0    0  501 -0.00000000000E+00 -0.00000000000E+00 -0.83824122340E+01  0.83824135348E+01  0.46700000000E-02 0.  1.
         23    2    1    2    0    0  0.00000000000E+00  0.00000000000E+00  0.20264068683E+03  0.21940551265E+03  0.84116175748E+02 0.  0.
        -13    1    3    3    0    0 -0.15616903529E+02 -0.36051990343E+02  0.14046646583E+03  0.14585771450E+03  0.10570000000E+00 0. -1.
         13    1    3    3    0    0  0.15616903529E+02  0.36051990343E+02  0.62174220999E+02  0.73547798151E+02  0.10570000000E+00 0.  1.
<mgrwt>
<rscale>  0 0.84116176E+02</rscale>
<asrwt>0</asrwt>
<pdfrwt beam="1">  1        1 0.32465092E-01 0.84116176E+02</pdfrwt>
<pdfrwt beam="2">  1       -1 0.12896020E-02 0.84116176E+02</pdfrwt>
<totfact> 0.14832862E+05</totfact>
</mgrwt>
</event>
<event>
 5   1  0.1388354E+00  0.9436447E+02  0.7818608E-02  0.1292614E+00
          1   -1    0    0  501    0  0.00000000000E+00  0.00000000000E+00  0.79873510571E+02  0.79873510707E+02  0.46700000000E-02 0. -1.
         -1   -1    0    0    0  501 -0.00000000000E+00 -0.00000000000E+00 -0.27871108870E+02  0.27871109261E+02  0.46700000000E-02 0.  1.
         23    2    1    2    0    0  0.00000000000E+00  0.00000000000E+00  0.52002401701E+02  0.10774461997E+03  0.94364470801E+02 0.  0.
        -13    1    3    3    0    0 -0.34134504439E+02  0.29313601972E+02  0.42217083180E+02  0.61698824450E+02  0.10570000000E+00 0. -1.
         13    1    3    3    0    0  0.34134504439E+02 -0.29313601972E+02  0.97853185208E+01  0.46045795518E+02  0.10570000000E+00 0.  1.
<mgrwt>
<rscale>  0 0.94364471E+02</rscale>
<asrwt>0</asrwt>
<pdfrwt beam="1">  1        1 0.12288233E-01 0.94364471E+02</pdfrwt>
<pdfrwt beam="2">  1       -1 0.42878629E-02 0.94364471E+02</pdfrwt>
<totfact> 0.91624433E+04</totfact>
</mgrwt>
</event>
<event>
 5   1  0.1388354E+00  0.9053763E+02  0.7818608E-02  0.1301555E+00
          1   -1    0    0  501    0  0.00000000000E+00  0.00000000000E+00  0.56100808856E+02  0.56100809050E+02  0.46700000000E-02 0. -1.
         -1   -1    0    0    0  501 -0.00000000000E+00 -0.00000000000E+00 -0.36528268069E+02  0.36528268367E+02  0.46700000000E-02 0.  1.
         23    2    1    2    0    0  0.00000000000E+00  0.00000000000E+00  0.19572540787E+02  0.92629077417E+02  0.90537625495E+02 0.  0.
        -13    1    3    3    0    0 -0.89062142249E+01  0.42534959204E+02  0.22756295258E+02  0.49055107305E+02  0.10570000000E+00 0. -1.
         13    1    3    3    0    0  0.89062142249E+01 -0.42534959204E+02 -0.31837544705E+01  0.43573970112E+02  0.10570000000E+00 0.  1.
<mgrwt>
<rscale>  0 0.90537625E+02</rscale>
<asrwt>0</asrwt>
<pdfrwt beam="1">  1        1 0.86308937E-02 0.90537625E+02</pdfrwt>
<pdfrwt beam="2">  1       -1 0.56197336E-02 0.90537625E+02</pdfrwt>
<totfact> 0.97282054E+04</totfact>
</mgrwt>
</event>
<event>
 5   1  0.1388354E+00  0.8976872E+02  0.7818608E-02  0.1303413E+00
          1   -1    0    0  501    0  0.00000000000E+00  0.00000000000E+00  0.13938759025E+03  0.13938759032E+03  0.46700000000E-02 0. -1.
         -1   -1    0    0    0  501 -0.00000000000E+00 -0.00000000000E+00 -0.14453265014E+02  0.14453265769E+02  0.46700000000E-02 0.  1.
         23    2    1    2    0    0  0.00000000000E+00  0.00000000000E+00  0.12493432523E+03  0.15384085609E+03  0.89768721625E+02 0.  0.
        -13    1    3    3    0    0  0.39930041566E+02 -0.29400002619E+00  0.27341623604E+02  0.48394939914E+02  0.10570000000E+00 0.  1.
         13    1    3    3    0    0 -0.39930041566E+02  0.29400002619E+00  0.97592701627E+02  0.10544591618E+03  0.10570000000E+00 0. -1.
<mgrwt>
<rscale>  0 0.89768722E+02</rscale>
<asrwt>0</asrwt>
<pdfrwt beam="1">  1        1 0.21444245E-01 0.89768722E+02</pdfrwt>
<pdfrwt beam="2">  1       -1 0.22235793E-02 0.89768722E+02</pdfrwt>
<totfact> 0.11538710E+05</totfact>
</mgrwt>
</event>
<event>
 5   1  0.1388354E+00  0.8949451E+02  0.7818608E-02  0.1304080E+00
          1   -1    0    0  501    0  0.00000000000E+00  0.00000000000E+00  0.74793664098E+02  0.74793664243E+02  0.46700000000E-02 0. -1.
         -1   -1    0    0    0  501 -0.00000000000E+00 -0.00000000000E+00 -0.26771208032E+02  0.26771208439E+02  0.46700000000E-02 0.  1.
         23    2    1    2    0    0  0.00000000000E+00  0.00000000000E+00  0.48022456066E+02  0.10156487268E+03  0.89494508639E+02 0.  0.
        -13    1    3    3    0    0 -0.13532071891E+02 -0.10913401006E+02 -0.22781958947E+02  0.28657426911E+02  0.10570000000E+00 0.  1.
         13    1    3    3    0    0  0.13532071891E+02  0.10913401006E+02  0.70804415013E+02  0.72907445772E+02  0.10570000000E+00 0. -1.
<mgrwt>
<rscale>  0 0.89494509E+02</rscale>
<asrwt>0</asrwt>
<pdfrwt beam="1">  1        1 0.11506718E-01 0.89494509E+02</pdfrwt>
<pdfrwt beam="2">  1       -1 0.41186474E-02 0.89494509E+02</pdfrwt>
<totfact> 0.10491570E+05</totfact>
</mgrwt>
</event>
<event>
 5   1  0.1388354E+00  0.9025114E+02  0.7818608E-02  0.1302245E+00
          1   -1    0    0  501    0  0.00000000000E+00  0.00000000000E+00  0.37440379625E+02  0.37440379916E+02  0.46700000000E-02 0. -1.
         -1   -1    0    0    0  501 -0.00000000000E+00 -0.00000000000E+00 -0.54388255885E+02  0.54388256086E+02  0.46700000000E-02 0.  1.
         23    2    1    2    0    0  0.00000000000E+00  0.00000000000E+00 -0.16947876261E+02  0.91828636002E+02  0.90251137834E+02 0.  0.
        -13    1    3    3    0    0 -0.80662097405E+01 -0.43948023235E+02 -0.14894005708E+02  0.47099204499E+02  0.10570000000E+00 0.  1.
         13    1    3    3    0    0  0.80662097405E+01  0.43948023235E+02 -0.20538705524E+01  0.44729431503E+02  0.10570000000E+00 0. -1.
<mgrwt>
<rscale>  0 0.90251138E+02</rscale>
<asrwt>0</asrwt>
<pdfrwt beam="1">  1        1 0.57600584E-02 0.90251138E+02</pdfrwt>
<pdfrwt beam="2">  1       -1 0.83674241E-02 0.90251138E+02</pdfrwt>
<totfact> 0.92382658E+04</totfact>
</mgrwt>
</event>
<event>
 5   1  0.1388354E+00  0.9083442E+02  0.7818608E-02  0.1300844E+00
         -1   -1    0    0    0  501 -0.00000000000E+00  0.00000000000E+00  0.24710591699E+02  0.24710592140E+02  0.46700000000E-02 0.  1.
          1   -1    0    0  501    0  0.00000000000E+00 -0.00000000000E+00 -0.83475259695E+02  0.83475259826E+02  0.46700000000E-02 0. -1.
         23    2    1    2    0    0  0.00000000000E+00  0.00000000000E+00 -0.58764667997E+02  0.10818585197E+03  0.90834422775E+02 0.  0.
        -13    1    3    3    0    0 -0.17929775234E+02  0.28839344672E+02  0.65369666901E+01  0.34582188292E+02  0.10570000000E+00 0.  1.
         13    1    3    3    0    0  0.17929775234E+02 -0.28839344672E+02 -0.65301634687E+02  0.73603663674E+02  0.10570000000E+00 0. -1.
<mgrwt>
<rscale>  0 0.90834423E+02</rscale>
<asrwt>0</asrwt>
<pdfrwt beam="2">  1        1 0.12842348E-01 0.90834423E+02</pdfrwt>
<pdfrwt beam="1">  1       -1 0.38016296E-02 0.90834423E+02</pdfrwt>
<totfact> 0.10247663E+05</totfact>
</mgrwt>
</event>
<event>
 5   1  0.1388354E+00  0.8994372E+02  0.7818608E-02  0.1302988E+00
         -1   -1    0    0    0  501 -0.00000000000E+00  0.00000000000E+00  0.94650284105E+02  0.94650284220E+02  0.46700000000E-02 0.  1.
          1   -1    0    0  501    0  0.00000000000E+00 -0.00000000000E+00 -0.21367797171E+02  0.21367797682E+02  0.46700000000E-02 0. -1.
         23    2    1    2    0    0  0.00000000000E+00  0.00000000000E+00  0.73282486933E+02  0.11601808190E+03  0.89943718163E+02 0.  0.
        -13    1    3    3    0    0  0.38640358538E+02  0.19367133470E+02  0.52663697694E+02  0.68129577968E+02  0.10570000000E+00 0. -1.
         13    1    3    3    0    0 -0.38640358538E+02 -0.19367133470E+02  0.20618789239E+02  0.47888503933E+02  0.10570000000E+00 0.  1.
<mgrwt>
<rscale>  0 0.89943718E+02</rscale>
<asrwt>0</asrwt>
<pdfrwt beam="2">  1        1 0.32873535E-02 0.89943718E+02</pdfrwt>
<pdfrwt beam="1">  1       -1 0.14561582E-01 0.89943718E+02</pdfrwt>
<totfact> 0.85122512E+04</totfact>
</mgrwt>
</event>
<event>
 5   1  0.1388354E+00  0.9058603E+02  0.7818608E-02  0.1301439E+00
         -1   -1    0    0    0  501 -0.00000000000E+00  0.00000000000E+00  0.95022595181E+01  0.95022606657E+01  0.46700000000E-02 0.  1.
          1   -1    0    0  501    0  0.00000000000E+00 -0.00000000000E+00 -0.21589151139E+03  0.21589151144E+03  0.46700000000E-02 0. -1.
         23    2    1    2    0    0  0.00000000000E+00  0.00000000000E+00 -0.20638925188E+03  0.22539377211E+03  0.90586032125E+02 0.  0.
        -13    1    3    3    0    0 -0.62949943652E+01  0.31016206960E+02 -0.22575725203E+02  0.38875526867E+02  0.10570000000E+00 0.  1.
         13    1    3    3    0    0  0.62949943652E+01 -0.31016206960E+02 -0.18381352667E+03  0.18651824524E+03  0.10570000000E+00 0. -1.
<mgrwt>
<rscale>  0 0.90586032E+02</rscale>
<asrwt>0</asrwt>
<pdfrwt beam="2">  1        1 0.33214075E-01 0.90586032E+02</pdfrwt>
<pdfrwt beam="1">  1       -1 0.14618863E-02 0.90586032E+02</pdfrwt>
<totfact> 0.12228961E+05</totfact>
</mgrwt>
</event>
<event>
 5   1  0.1388354E+00  0.9127743E+02  0.7818608E-02  0.1299787E+00
         -1   -1    0    0    0  501 -0.00000000000E+00  0.00000000000E+00  0.14547741821E+02  0.14547742571E+02  0.46700000000E-02 0.  1.
          1   -1    0    0  501    0  0.00000000000E+00 -0.00000000000E+00 -0.14317632527E+03  0.14317632534E+03  0.46700000000E-02 0. -1.
         23    2    1    2    0    0  0.00000000000E+00  0.00000000000E+00 -0.12862858344E+03  0.15772406791E+03  0.91277429412E+02 0.  0.
        -13    1    3    3    0    0  0.25002731508E+02  0.30522274719E+01  0.14489312677E+01  0.25230205106E+02  0.10570000000E+00 0.  1.
         13    1    3    3    0    0 -0.25002731508E+02 -0.30522274719E+01 -0.13007751471E+03  0.13249386281E+03  0.10570000000E+00 0. -1.
<mgrwt>
<rscale>  0 0.91277429E+02</rscale>
<asrwt>0</asrwt>
<pdfrwt beam="2">  1        1 0.22027126E-01 0.91277429E+02</pdfrwt>
<pdfrwt beam="1">  1       -1 0.22381143E-02 0.91277429E+02</pdfrwt>
<totfact> 0.11085092E+05</totfact>
</mgrwt>
</event>
<event>
 5   1  0.1388354E+00  0.9470219E+02  0.7818608E-02  0.1291848E+00
         -1   -1    0    0    0  501 -0.00000000000E+00  0.00000000000E+00  0.45515680150E+03  0.45515680152E+03  0.46700000000E-02 0.  1.
          1   -1    0    0  501    0  0.00000000000E+00 -0.00000000000E+00 -0.49260512908E+01  0.49260535044E+01  0.46700000000E-02 0. -1.
         23    2    1    2    0    0  0.00000000000E+00  0.00000000000E+00  0.45023075021E+03  0.46008285503E+03  0.94702191406E+02 0.  0.
        -13    1    3    3    0    0  0.67002115483E+01 -0.46865691173E+02  0.22069134377E+03  0.22571213134E+03  0.10570000000E+00 0. -1.
         13    1    3    3    0    0 -0.67002115483E+01  0.46865691173E+02  0.22953940643E+03  0.23437072369E+03  0.10570000000E+00 0.  1.
<mgrwt>
<rscale>  0 0.94702191E+02</rscale>
<asrwt>0</asrwt>
<pdfrwt beam="2">  1        1 0.75785383E-03 0.94702191E+02</pdfrwt>
<pdfrwt beam="1">  1       -1 0.70024159E-01 0.94702191E+02</pdfrwt>
<totfact> 0.45013665E+04</totfact>
</mgrwt>
</event>
<event>
 5   1  0.1388354E+00  0.8889187E+02  0.7818608E-02  0.1305558E+00
          1   -1    0    0  501    0  0.00000000000E+00  0.00000000000E+00  0.23584965997E+02  0.23584966459E+02  0.46700000000E-02 0. -1.
         -1   -1    0    0    0  501 -0.00000000000E+00 -0.00000000000E+00 -0.83758485706E+02  0.83758485836E+02  0.46700000000E-02 0.  1.
         23    2    1    2    0    0  0.00000000000E+00  0.00000000000E+00 -0.60173519709E+02  0.10734345230E+03  0.88891868450E+02 0.  0.
        -13    1    3    3    0    0  0.26638782149E+02  0.34970920874E+02 -0.22182929251E+02  0.49241075778E+02  0.10570000000E+00 0.  1.
         13    1    3    3    0    0 -0.26638782149E+02 -0.34970920874E+02 -0.37990590458E+02  0.58102376517E+02  0.10570000000E+00 0. -1.
<mgrwt>
<rscale>  0 0.88891868E+02</rscale>
<asrwt>0</asrwt>
<pdfrwt beam="1">  1        1 0.36284564E-02 0.88891868E+02</pdfrwt>
<pdfrwt beam="2">  1       -1 0.12885921E-01 0.88891868E+02</pdfrwt>
<totfact> 0.89629103E+04</totfact>
</mgrwt>
</event>
<event>
 5   1  0.1388354E+00  0.8744206E+02  0.7818608E-02  0.1309167E+00
         -1   -1    0    0    0  501 -0.00000000000E+00  0.00000000000E+00  0.32629657430E+03  0.32629657434E+03  0.46700000000E-02 0.  1.
          1   -1    0    0  501    0  0.00000000000E+00 -0.00000000000E+00 -0.58582541129E+01  0.58582559743E+01  0.46700000000E-02 0. -1.
         23    2    1    2    0    0  0.00000000000E+00  0.00000000000E+00  0.32043832019E+03  0.33215483031E+03  0.87442062261E+02 0.  0.
        -13    1    3    3    0    0  0.33017896510E+01 -0.43042575418E+02  0.18652334195E+03  0.19145373692E+03  0.10570000000E+00 0.  1.
         13    1    3    3    0    0 -0.33017896510E+01  0.43042575418E+02  0.13391497824E+03  0.14070109340E+03  0.10570000000E+00 0. -1.
<mgrwt>
<rscale>  0 0.87442062E+02</rscale>
<asrwt>0</asrwt>
<pdfrwt beam="2">  1        1 0.90127002E-03 0.87442062E+02</pdfrwt>
<pdfrwt beam="1">  1       -1 0.50199473E-01 0.87442062E+02</pdfrwt>
<totfact> 0.65302716E+04</totfact>
</mgrwt>
</event>
<event>
 5   1  0.1388354E+00  0.9070071E+02  0.7818608E-02  0.1301164E+00
         -1   -1    0    0    0  501 -0.00000000000E+00  0.00000000000E+00  0.83255087923E+01  0.83255101021E+01  0.46700000000E-02 0.  1.
          1   -1    0    0  501    0  0.00000000000E+00 -0.00000000000E+00 -0.24703048111E+03  0.24703048116E+03  0.46700000000E-02 0. -1.
         23    2    1    2    0    0  0.00000000000E+00  0.00000000000E+00 -0.23870497232E+03  0.25535599126E+03  0.90700708164E+02 0.  0.
        -13    1    3    3    0    0 -0.13317719896E+02  0.38511703592E+02 -0.17538685654E+03  0.18005852825E+03  0.10570000000E+00 0.  1.
         13    1    3    3    0    0  0.13317719896E+02 -0.38511703592E+02 -0.63318115780E+02  0.75297463007E+02  0.10570000000E+00 0. -1.
<mgrwt>
<rscale>  0 0.90700708E+02</rscale>
<asrwt>0</asrwt>
<pdfrwt beam="2">  1        1 0.38004684E-01 0.90700708E+02</pdfrwt>
<pdfrwt beam="1">  1       -1 0.12808478E-02 0.90700708E+02</pdfrwt>
<totfact> 0.12511972E+05</totfact>
</mgrwt>
</event>
<event>
 5   1  0.1388354E+00  0.9097899E+02  0.7818608E-02  0.1300498E+00
         -1   -1    0    0    0  501 -0.00000000000E+00  0.00000000000E+00  0.52324574022E+02  0.52324574231E+02  0.46700000000E-02 0. -1.
          1   -1    0    0  501    0  0.00000000000E+00 -0.00000000000E+00 -0.39547269212E+02  0.39547269488E+02  0.46700000000E-02 0.  1.
         23    2    1    2    0    0  0.00000000000E+00  0.00000000000E+00  0.12777304810E+02  0.91871843719E+02  0.90978987410E+02 0.  0.
        -13    1    3    3    0    0 -0.33327673655E+02  0.24407195711E+02  0.25623892628E+02  0.48611110660E+02  0.10570000000E+00 0. -1.
         13    1    3    3    0    0  0.33327673655E+02 -0.24407195711E+02 -0.12846587818E+02  0.43260733059E+02  0.10570000000E+00 0.  1.
<mgrwt>
<rscale>  0 0.90978987E+02</rscale>
<asrwt>0</asrwt>
<pdfrwt beam="2">  1        1 0.60841953E-02 0.90978987E+02</pdfrwt>
<pdfrwt beam="1">  1       -1 0.80499345E-02 0.90978987E+02</pdfrwt>
<totfact> 0.91064472E+04</totfact>
</mgrwt>
</event>
<event>
 5   1  0.1388354E+00  0.9647765E+02  0.7818608E-02  0.1287882E+00
          1   -1    0    0  501    0  0.00000000000E+00  0.00000000000E+00  0.11734927654E+02  0.11734928583E+02  0.46700000000E-02 0. -1.
         -1   -1    0    0    0  501 -0.00000000000E+00 -0.00000000000E+00 -0.19829558133E+03  0.19829558139E+03  0.46700000000E-02 0.  1.
         23    2    1    2    0    0  0.00000000000E+00  0.00000000000E+00 -0.18656065368E+03  0.21003050997E+03  0.96477653463E+02 0.  0.
        -13    1    3    3    0    0  0.47963425150E+02  0.32171520160E+01 -0.84536261521E+02  0.97248295119E+02  0.10570000000E+00 0. -1.
         13    1    3    3    0    0 -0.47963425150E+02 -0.32171520160E+01 -0.10202439216E+03  0.11278221485E+03  0.10570000000E+00 0.  1.
<mgrwt>
<rscale>  0 0.96477653E+02</rscale>
<asrwt>0</asrwt>
<pdfrwt beam="1">  1        1 0.18053737E-02 0.96477653E+02</pdfrwt>
<pdfrwt beam="2">  1       -1 0.30507010E-01 0.96477653E+02</pdfrwt>
<totfact> 0.60046907E+04</totfact>
</mgrwt>
</event>
<event>
 5   1  0.1388354E+00  0.8276615E+02  0.7818608E-02  0.1321380E+00
          1   -1    0    0  501    0  0.00000000000E+00  0.00000000000E+00  0.97550859397E+02  0.97550859509E+02  0.46700000000E-02 0. -1.
         -1   -1    0    0    0  501 -0.00000000000E+00 -0.00000000000E+00 -0.17555550281E+02  0.17555550902E+02  0.46700000000E-02 0.  1.
         23    2    1    2    0    0  0.00000000000E+00  0.00000000000E+00  0.79995309116E+02  0.11510641041E+03  0.82766153935E+02 0.  0.
        -13    1    3    3    0    0  0.35837020385E+02 -0.13838371544E+01  0.68713738246E+02  0.77509973756E+02  0.10570000000E+00 0. -1.
         13    1    3    3    0    0 -0.35837020385E+02  0.13838371544E+01  0.11281570869E+02  0.37596436655E+02  0.10570000000E+00 0.  1.
<mgrwt>
<rscale>  0 0.82766154E+02</rscale>
<asrwt>0</asrwt>
<pdfrwt beam="1">  1        1 0.15007824E-01 0.82766154E+02</pdfrwt>
<pdfrwt beam="2">  1       -1 0.27008540E-02 0.82766154E+02</pdfrwt>
<totfact> 0.13520608E+05</totfact>
</mgrwt>
</event>
<event>
 5   1  0.1388354E+00  0.9078432E+02  0.7818608E-02  0.1300963E+00
         -1   -1    0    0    0  501 -0.00000000000E+00  0.00000000000E+00  0.22335219583E+03  0.22335219588E+03  0.46700000000E-02 0.  1.
          1   -1    0    0  501    0  0.00000000000E+00 -0.00000000000E+00 -0.92251080053E+01  0.92251091873E+01  0.46700000000E-02 0. -1.
         23    2    1    2    0    0  0.00000000000E+00  0.00000000000E+00  0.21412708783E+03  0.23257730507E+03  0.90784321838E+02 0.  0.
        -13    1    3    3    0    0 -0.41618785378E+02 -0.48576684904E+01  0.15178384544E+03  0.15746131953E+03  0.10570000000E+00 0.  1.
         13    1    3    3    0    0  0.41618785378E+02  0.48576684904E+01  0.62343242391E+02  0.75115985541E+02  0.10570000000E+00 0. -1.
<mgrwt>
<rscale>  0 0.90784322E+02</rscale>
<asrwt>0</asrwt>
<pdfrwt beam="2">  1        1 0.14192476E-02 0.90784322E+02</pdfrwt>
<pdfrwt beam="1">  1       -1 0.34361875E-01 0.90784322E+02</pdfrwt>
<totfact> 0.67936891E+04</totfact>
</mgrwt>
</event>
<event>
 5   1  0.1388354E+00  0.9084144E+02  0.7818608E-02  0.1300827E+00
          1   -1    0    0  501    0  0.00000000000E+00  0.00000000000E+00  0.13927166570E+03  0.13927166578E+03  0.46700000000E-02 0. -1.
         -1   -1    0    0    0  501 -0.00000000000E+00 -0.00000000000E+00 -0.14813076461E+02  0.14813077197E+02  0.46700000000E-02 0.  1.
         23    2    1    2    0    0  0.00000000000E+00  0.00000000000E+00  0.12445858924E+03  0.15408474298E+03  0.90841441989E+02 0.  0.
        -13    1    3    3    0    0 -0.33119650558E+02  0.13496600862E+02  0.14737026270E+02  0.38681527939E+02  0.10570000000E+00 0.  1.
         13    1    3    3    0    0  0.33119650558E+02 -0.13496600862E+02  0.10972156297E+03  0.11540321504E+03  0.10570000000E+00 0. -1.
<mgrwt>
<rscale>  0 0.90841442E+02</rscale>
<asrwt>0</asrwt>
<pdfrwt beam="1">  1        1 0.21426410E-01 0.90841442E+02</pdfrwt>
<pdfrwt beam="2">  1       -1 0.22789349E-02 0.90841442E+02</pdfrwt>
<totfact> 0.11173242E+05</totfact>
</mgrwt>
</event>
<event>
 5   1  0.1388354E+00  0.9062000E+02  0.7818608E-02  0.1301357E+00
          1   -1    0    0  501    0  0.00000000000E+00  0.00000000000E+00  0.79427979246E+02  0.79427979384E+02  0.46700000000E-02 0. -1.
         -1   -1    0    0    0  501 -0.00000000000E+00 -0.00000000000E+00 -0.25847266984E+02  0.25847267406E+02  0.46700000000E-02 0.  1.
         23    2    1    2    0    0  0.00000000000E+00  0.00000000000E+00  0.53580712263E+02  0.10527524679E+03  0.90620002538E+02 0.  0.
        -13    1    3    3    0    0 -0.55785184687E+01 -0.44707171467E+02  0.32377984379E+02  0.55481493255E+02  0.10570000000E+00 0. -1.
         13    1    3    3    0    0  0.55785184687E+01  0.44707171467E+02  0.21202727884E+02  0.49793753534E+02  0.10570000000E+00 0.  1.
<mgrwt>
<rscale>  0 0.90620003E+02</rscale>
<asrwt>0</asrwt>
<pdfrwt beam="1">  1        1 0.12219689E-01 0.90620003E+02</pdfrwt>
<pdfrwt beam="2">  1       -1 0.39765027E-02 0.90620003E+02</pdfrwt>
<totfact> 0.10233539E+05</totfact>
</mgrwt>
</event>
<event>
 5   1  0.1388354E+00  0.8983289E+02  0.7818608E-02  0.1303257E+00
          1   -1    0    0  501    0  0.00000000000E+00  0.00000000000E+00  0.24303210536E+02  0.24303210985E+02  0.46700000000E-02 0. -1.
         -1   -1    0    0    0  501 -0.00000000000E+00 -0.00000000000E+00 -0.83013181488E+02  0.83013181619E+02  0.46700000000E-02 0.  1.
         23    2    1    2    0    0  0.00000000000E+00  0.00000000000E+00 -0.58709970951E+02  0.10731639260E+03  0.89832886141E+02 0.  0.
        -13    1    3    3    0    0  0.37079188543E+02 -0.72320352828E+01 -0.33015268225E+00  0.37779474992E+02  0.10570000000E+00 0. -1.
         13    1    3    3    0    0 -0.37079188543E+02  0.72320352828E+01 -0.58379818269E+02  0.69536917612E+02  0.10570000000E+00 0.  1.
<mgrwt>
<rscale>  0 0.89832886E+02</rscale>
<asrwt>0</asrwt>
<pdfrwt beam="1">  1        1 0.37389555E-02 0.89832886E+02</pdfrwt>
<pdfrwt beam="2">  1       -1 0.12771259E-01 0.89832886E+02</pdfrwt>
<totfact> 0.87378837E+04</totfact>
</mgrwt>
</event>
<event>
 5   1  0.1388354E+00  0.8997069E+02  0.7818608E-02  0.1302923E+00
         -1   -1    0    0    0  501 -0.00000000000E+00  0.00000000000E+00  0.12628462609E+02  0.12628463473E+02  0.46700000000E-02 0.  1.
          1   -1    0    0  501    0  0.00000000000E+00 -0.00000000000E+00 -0.16024762840E+03  0.16024762847E+03  0.46700000000E-02 0. -1.
         23    2    1    2    0    0  0.00000000000E+00  0.00000000000E+00 -0.14761916580E+03  0.17287609195E+03  0.89970689984E+02 0.  0.
        -13    1    3    3    0    0  0.37931061262E+02 -0.40268546085E+01 -0.11963129865E+03  0.12556528085E+03  0.10570000000E+00 0. -1.
         13    1    3    3    0    0 -0.37931061262E+02  0.40268546085E+01 -0.27987867149E+02  0.47310811096E+02  0.10570000000E+00 0.  1.
<mgrwt>
<rscale>  0 0.89970690E+02</rscale>
<asrwt>0</asrwt>
<pdfrwt beam="2">  1        1 0.24653480E-01 0.89970690E+02</pdfrwt>
<pdfrwt beam="1">  1       -1 0.19428406E-02 0.89970690E+02</pdfrwt>
<totfact> 0.11765240E+05</totfact>
</mgrwt>
</event>
<event>
 5   1  0.1388354E+00  0.9078307E+02  0.7818608E-02  0.1300966E+00
          1   -1    0    0  501    0  0.00000000000E+00  0.00000000000E+00  0.47098777254E+02  0.47098777486E+02  0.46700000000E-02 0. -1.
         -1   -1    0    0    0  501 -0.00000000000E+00 -0.00000000000E+00 -0.43746179988E+02  0.43746180237E+02  0.46700000000E-02 0.  1.
         23    2    1    2    0    0  0.00000000000E+00  0.00000000000E+00  0.33525972663E+01  0.90844957723E+02  0.90783073506E+02 0.  0.
        -13    1    3    3    0    0  0.10401443409E+02  0.30867552108E+02 -0.29958296453E+02  0.44255016630E+02  0.10570000000E+00 0.  1.
         13    1    3    3    0    0 -0.10401443409E+02 -0.30867552108E+02  0.33310893719E+02  0.46589941092E+02  0.10570000000E+00 0. -1.
<mgrwt>
<rscale>  0 0.90783074E+02</rscale>
<asrwt>0</asrwt>
<pdfrwt beam="1">  1        1 0.72459657E-02 0.90783074E+02</pdfrwt>
<pdfrwt beam="2">  1       -1 0.67301816E-02 0.90783074E+02</pdfrwt>
<totfact> 0.94059675E+04</totfact>
</mgrwt>
</event>
<event>
 5   1  0.1388354E+00  0.8932086E+02  0.7818608E-02  0.1304505E+00
          1   -1    0    0  501    0  0.00000000000E+00  0.00000000000E+00  0.26795152078E+02  0.26795152485E+02  0.46700000000E-02 0. -1.
         -1   -1    0    0    0  501 -0.00000000000E+00 -0.00000000000E+00 -0.74437125759E+02  0.74437125905E+02  0.46700000000E-02 0.  1.
         23    2    1    2    0    0  0.00000000000E+00  0.00000000000E+00 -0.47641973681E+02  0.10123227839E+03  0.89320862803E+02 0.  0.
        -13    1    3    3    0    0  0.25722908858E+02 -0.34217479866E+02 -0.38247981411E+02  0.57405776913E+02  0.10570000000E+00 0.  1.
         13    1    3    3    0    0 -0.25722908858E+02  0.34217479866E+02 -0.93939922702E+01  0.43826501478E+02  0.10570000000E+00 0. -1.
<mgrwt>
<rscale>  0 0.89320863E+02</rscale>
<asrwt>0</asrwt>
<pdfrwt beam="1">  1        1 0.41223312E-02 0.89320863E+02</pdfrwt>
<pdfrwt beam="2">  1       -1 0.11451865E-01 0.89320863E+02</pdfrwt>
<totfact> 0.90291059E+04</totfact>
</mgrwt>
</event>
<event>
 5   1  0.1388354E+00  0.8863964E+02  0.7818608E-02  0.1306180E+00
         -1   -1    0    0    0  501 -0.00000000000E+00  0.00000000000E+00  0.74958155154E+02  0.74958155299E+02  0.46700000000E-02 0.  1.
          1   -1    0    0  501    0  0.00000000000E+00 -0.00000000000E+00 -0.26204571367E+02  0.26204571783E+02  0.46700000000E-02 0. -1.
         23    2    1    2    0    0  0.00000000000E+00  0.00000000000E+00  0.48753583787E+02  0.10116272708E+03  0.88639637966E+02 0.  0.
        -13    1    3    3    0    0  0.32767656253E+02  0.91562564202E+01 -0.80379741264E+01  0.34959641424E+02  0.10570000000E+00 0.  1.
         13    1    3    3    0    0 -0.32767656253E+02 -0.91562564202E+01  0.56791557913E+02  0.66203085658E+02  0.10570000000E+00 0. -1.
<mgrwt>
<rscale>  0 0.88639638E+02</rscale>
<asrwt>0</asrwt>
<pdfrwt beam="2">  1        1 0.40314726E-02 0.88639638E+02</pdfrwt>
<pdfrwt beam="1">  1       -1 0.11532024E-01 0.88639638E+02</pdfrwt>
<totfact> 0.91966932E+04</totfact>
</mgrwt>
</event>
<event>
 5   1  0.1388354E+00  0.9123918E+02  0.7818608E-02  0.1299878E+00
         -1   -1    0    0    0  501 -0.00000000000E+00  0.00000000000E+00  0.17815612941E+03  0.17815612947E+03  0.46700000000E-02 0.  1.
          1   -1    0    0  501    0  0.00000000000E+00 -0.00000000000E+00 -0.11681591295E+02  0.11681592228E+02  0.46700000000E-02 0. -1.
         23    2    1    2    0    0  0.00000000000E+00  0.00000000000E+00  0.16647453812E+03  0.18983772170E+03  0.91239184232E+02 0.  0.
        -13    1    3    3    0    0  0.18209753117E+02 -0.29590307090E+02  0.21727292244E+02  0.40978869957E+02  0.10570000000E+00 0. -1.
         13    1    3    3    0    0 -0.18209753117E+02  0.29590307090E+02  0.14474724587E+03  0.14885885174E+03  0.10570000000E+00 0.  1.
<mgrwt>
<rscale>  0 0.91239184E+02</rscale>
<asrwt>0</asrwt>
<pdfrwt beam="2">  1        1 0.17971681E-02 0.91239184E+02</pdfrwt>
<pdfrwt beam="1">  1       -1 0.27408633E-01 0.91239184E+02</pdfrwt>
<totfact> 0.71536713E+04</totfact>
</mgrwt>
</event>
<event>
 5   1  0.1388354E+00  0.1014487E+03  0.7818608E-02  0.1277279E+00
         -1   -1    0    0    0  501 -0.00000000000E+00  0.00000000000E+00  0.14380552633E+03  0.14380552641E+03  0.46700000000E-02 0.  1.
          1   -1    0    0  501    0  0.00000000000E+00 -0.00000000000E+00 -0.17891950228E+02  0.17891950838E+02  0.46700000000E-02 0. -1.
         23    2    1    2    0    0  0.00000000000E+00  0.00000000000E+00  0.12591357611E+03  0.16169747725E+03  0.10144873336E+03 0.  0.
        -13    1    3    3    0    0  0.13593040143E+02 -0.19093753800E+02  0.13465689642E+03  0.13668150241E+03  0.10570000000E+00 0.  1.
         13    1    3    3    0    0 -0.13593040143E+02  0.19093753800E+02 -0.87433203152E+01  0.25015974839E+02  0.10570000000E+00 0. -1.
<mgrwt>
<rscale>  0 0.10144873E+03</rscale>
<asrwt>0</asrwt>
<pdfrwt beam="2">  1        1 0.27526077E-02 0.10144873E+03</pdfrwt>
<pdfrwt beam="1">  1       -1 0.22123928E-01 0.10144873E+03</pdfrwt>
<totfact> 0.57208906E+04</totfact>
</mgrwt>
</event>
<event>
 5   1  0.1388354E+00  0.9179047E+02  0.7818608E-02  0.1298573E+00
          1   -1    0    0  501    0  0.00000000000E+00  0.00000000000E+00  0.18158673951E+02  0.18158674551E+02  0.46700000000E-02 0. -1.
         -1   -1    0    0    0  501 -0.00000000000E+00 -0.00000000000E+00 -0.11599815483E+03  0.11599815492E+03  0.46700000000E-02 0.  1.
         23    2    1    2    0    0  0.00000000000E+00  0.00000000000E+00 -0.97839480875E+02  0.13415682947E+03  0.91790472685E+02 0.  0.
        -13    1    3    3    0    0 -0.40023161518E+02 -0.94818548202E-02 -0.81748101985E+02  0.91019870899E+02  0.10570000000E+00 0.  1.
         13    1    3    3    0    0  0.40023161518E+02  0.94818548202E-02 -0.16091378890E+02  0.43136958572E+02  0.10570000000E+00 0. -1.
<mgrwt>
<rscale>  0 0.91790473E+02</rscale>
<asrwt>0</asrwt>
<pdfrwt beam="1">  1        1 0.27936423E-02 0.91790473E+02</pdfrwt>
<pdfrwt beam="2">  1       -1 0.17845870E-01 0.91790473E+02</pdfrwt>
<totfact> 0.77712271E+04</totfact>
</mgrwt>
</event>
<event>
 5   1  0.1388354E+00  0.9078573E+02  0.7818608E-02  0.1300960E+00
          1   -1    0    0  501    0  0.00000000000E+00  0.00000000000E+00  0.20099927941E+03  0.20099927947E+03  0.46700000000E-02 0. -1.
         -1   -1    0    0    0  501 -0.00000000000E+00 -0.00000000000E+00 -0.10251341341E+02  0.10251342404E+02  0.46700000000E-02 0.  1.
         23    2    1    2    0    0  0.00000000000E+00  0.00000000000E+00  0.19074793807E+03  0.21125062187E+03  0.90785733253E+02 0.  0.
        -13    1    3    3    0    0 -0.18267540900E+02 -0.31870997457E+02  0.33326126425E+02  0.49599449638E+02  0.10570000000E+00 0.  1.
         13    1    3    3    0    0  0.18267540900E+02  0.31870997457E+02  0.15742181165E+03  0.16165117223E+03  0.10570000000E+00 0. -1.
<mgrwt>
<rscale>  0 0.90785733E+02</rscale>
<asrwt>0</asrwt>
<pdfrwt beam="1">  1        1 0.30922967E-01 0.90785733E+02</pdfrwt>
<pdfrwt beam="2">  1       -1 0.15771295E-02 0.90785733E+02</pdfrwt>
<totfact> 0.11989410E+05</totfact>
</mgrwt>
</event>
<event>
 5   1  0.1388354E+00  0.9086065E+02  0.7818608E-02  0.1300781E+00
         -1   -1    0    0    0  501 -0.00000000000E+00  0.00000000000E+00  0.47520822339E+02  0.47520822569E+02  0.46700000000E-02 0.  1.
          1   -1    0    0  501    0  0.00000000000E+00 -0.00000000000E+00 -0.43431789883E+02  0.43431790134E+02  0.46700000000E-02 0. -1.
         23    2    1    2    0    0  0.00000000000E+00  0.00000000000E+00  0.40890324567E+01  0.90952612703E+02  0.90860649189E+02 0.  0.
        -13    1    3    3    0    0  0.12859769595E+02 -0.42141687725E+02  0.13128559684E+02  0.45974620936E+02  0.10570000000E+00 0.  1.
         13    1    3    3    0    0 -0.12859769595E+02  0.42141687725E+02 -0.90395272276E+01  0.44977991766E+02  0.10570000000E+00 0. -1.
<mgrwt>
<rscale>  0 0.90860649E+02</rscale>
<asrwt>0</asrwt>
<pdfrwt beam="2">  1        1 0.66818139E-02 0.90860649E+02</pdfrwt>
<pdfrwt beam="1">  1       -1 0.73108958E-02 0.90860649E+02</pdfrwt>
<totfact> 0.92701299E+04</totfact>
</mgrwt>
</event>
<event>
 5   1  0.1388354E+00  0.9072902E+02  0.7818608E-02  0.1301096E+00
          1   -1    0    0  501    0  0.00000000000E+00  0.00000000000E+00  0.28612931168E+03  0.28612931172E+03  0.46700000000E-02 0. -1.
         -1   -1    0    0    0  501 -0.00000000000E+00 -0.00000000000E+00 -0.71923375619E+01  0.71923390781E+01  0.46700000000E-02 0.  1.
         23    2    1    2    0    0  0.00000000000E+00  0.00000000000E+00  0.27893697412E+03  0.29332165080E+03  0.90729021243E+02 0.  0.
        -13    1    3    3    0    0  0.38044697419E+02 -0.84366384673E+01  0.21455016215E+03  0.21806044832E+03  0.10570000000E+00 0. -1.
         13    1    3    3    0    0 -0.38044697419E+02  0.84366384673E+01  0.64386811972E+02  0.75261202480E+02  0.10570000000E+00 0.  1.
<mgrwt>
<rscale>  0 0.90729021E+02</rscale>
<asrwt>0</asrwt>
<pdfrwt beam="1">  1        1 0.44019900E-01 0.90729021E+02</pdfrwt>
<pdfrwt beam="2">  1       -1 0.11065135E-02 0.90729021E+02</pdfrwt>
<totfact> 0.12864054E+05</totfact>
</mgrwt>
</event>
<event>
 5   1  0.1388354E+00  0.8863679E+02  0.7818608E-02  0.1306187E+00
          1   -1    0    0  501    0  0.00000000000E+00  0.00000000000E+00  0.27229627844E+02  0.27229628244E+02  0.46700000000E-02 0. -1.
         -1   -1    0    0    0  501 -0.00000000000E+00 -0.00000000000E+00 -0.72131732413E+02  0.72131732565E+02  0.46700000000E-02 0.  1.
         23    2    1    2    0    0  0.00000000000E+00  0.00000000000E+00 -0.44902104570E+02  0.99361360809E+02  0.88636792738E+02 0.  0.
        -13    1    3    3    0    0 -0.16415017933E+02 -0.21337308094E+02 -0.61915402870E+02  0.67514900692E+02  0.10570000000E+00 0.  1.
         13    1    3    3    0    0  0.16415017933E+02  0.21337308094E+02  0.17013298300E+02  0.31846460117E+02  0.10570000000E+00 0. -1.
<mgrwt>
<rscale>  0 0.88636793E+02</rscale>
<asrwt>0</asrwt>
<pdfrwt beam="1">  1        1 0.41891736E-02 0.88636793E+02</pdfrwt>
<pdfrwt beam="2">  1       -1 0.11097190E-01 0.88636793E+02</pdfrwt>
<totfact> 0.92549171E+04</totfact>
</mgrwt>
</event>
<event>
 5   1  0.1388354E+00  0.8898183E+02  0.7818608E-02  0.1305336E+00
         -1   -1    0    0    0  501 -0.00000000000E+00  0.00000000000E+00  0.32869287825E+02  0.32869288157E+02  0.46700000000E-02 0.  1.
          1   -1    0    0  501    0  0.00000000000E+00 -0.00000000000E+00 -0.60221618227E+02  0.60221618408E+02  0.46700000000E-02 0. -1.
         23    2    1    2    0    0  0.00000000000E+00  0.00000000000E+00 -0.27352330402E+02  0.93090906565E+02  0.88981834701E+02 0.  0.
        -13    1    3    3    0    0 -0.24733430891E+02  0.34560535457E+02  0.94398676296E-01  0.42499332916E+02  0.10570000000E+00 0.  1.
         13    1    3    3    0    0  0.24733430891E+02 -0.34560535457E+02 -0.27446729079E+02  0.50591573649E+02  0.10570000000E+00 0. -1.
<mgrwt>
<rscale>  0 0.88981835E+02</rscale>
<asrwt>0</asrwt>
<pdfrwt beam="2">  1        1 0.92648644E-02 0.88981835E+02</pdfrwt>
<pdfrwt beam="1">  1       -1 0.50568136E-02 0.88981835E+02</pdfrwt>
<totfact> 0.10314857E+05</totfact>
</mgrwt>
</event>
<event>
 5   1  0.1388354E+00  0.9202434E+02  0.7818608E-02  0.1298022E+00
          1   -1    0    0  501    0  0.00000000000E+00  0.00000000000E+00  0.18222233577E+03  0.18222233583E+03  0.46700000000E-02 0. -1.
         -1   -1    0    0    0  501 -0.00000000000E+00 -0.00000000000E+00 -0.11618333631E+02  0.11618334569E+02  0.46700000000E-02 0.  1.
         23    2    1    2    0    0  0.00000000000E+00  0.00000000000E+00  0.17060400214E+03  0.19384067040E+03  0.92024344359E+02 0.  0.
        -13    1    3    3    0    0 -0.30667642988E+02  0.30374548437E+02  0.51731981911E+02  0.67374525186E+02  0.10570000000E+00 0.  1.
         13    1    3    3    0    0  0.30667642988E+02 -0.30374548437E+02  0.11887202023E+03  0.12646614521E+03  0.10570000000E+00 0. -1.
<mgrwt>
<rscale>  0 0.92024344E+02</rscale>
<asrwt>0</asrwt>
<pdfrwt beam="1">  1        1 0.28034204E-01 0.92024344E+02</pdfrwt>
<pdfrwt beam="2">  1       -1 0.17874361E-02 0.92024344E+02</pdfrwt>
<totfact> 0.11344018E+05</totfact>
</mgrwt>
</event>
<event>
 5   1  0.1388354E+00  0.9057296E+02  0.7818608E-02  0.1301470E+00
         -1   -1    0    0    0  501 -0.00000000000E+00  0.00000000000E+00  0.24052667988E+02  0.24052668441E+02  0.46700000000E-02 0.  1.
          1   -1    0    0  501    0  0.00000000000E+00 -0.00000000000E+00 -0.85265604379E+02  0.85265604507E+02  0.46700000000E-02 0. -1.
         23    2    1    2    0    0  0.00000000000E+00  0.00000000000E+00 -0.61212936391E+02  0.10931827295E+03  0.90572960749E+02 0.  0.
        -13    1    3    3    0    0 -0.15808282473E+02 -0.28337746339E+02  0.75214447352E+01  0.33309352527E+02  0.10570000000E+00 0.  1.
         13    1    3    3    0    0  0.15808282473E+02  0.28337746339E+02 -0.68734381126E+02  0.76008920422E+02  0.10570000000E+00 0. -1.
<mgrwt>
<rscale>  0 0.90572961E+02</rscale>
<asrwt>0</asrwt>
<pdfrwt beam="2">  1        1 0.13117785E-01 0.90572961E+02</pdfrwt>
<pdfrwt beam="1">  1       -1 0.37004106E-02 0.90572961E+02</pdfrwt>
<totfact> 0.10363767E+05</totfact>
</mgrwt>
</event>
<event>
 5   1  0.1388354E+00  0.8983934E+02  0.7818608E-02  0.1303241E+00
          1   -1    0    0  501    0  0.00000000000E+00  0.00000000000E+00  0.20278420069E+03  0.20278420074E+03  0.46700000000E-02 0. -1.
         -1   -1    0    0    0  501 -0.00000000000E+00 -0.00000000000E+00 -0.99503642130E+01  0.99503653089E+01  0.46700000000E-02 0.  1.
         23    2    1    2    0    0  0.00000000000E+00  0.00000000000E+00  0.19283383647E+03  0.21273456605E+03  0.89839340509E+02 0.  0.
        -13    1    3    3    0    0 -0.10032987282E+02 -0.29593317528E+02  0.17283002374E+03  0.17563215410E+03  0.10570000000E+00 0. -1.
         13    1    3    3    0    0  0.10032987282E+02  0.29593317528E+02  0.20003812739E+02  0.37102411952E+02  0.10570000000E+00 0.  1.
<mgrwt>
<rscale>  0 0.89839341E+02</rscale>
<asrwt>0</asrwt>
<pdfrwt beam="1">  1        1 0.31197570E-01 0.89839341E+02</pdfrwt>
<pdfrwt beam="2">  1       -1 0.15308253E-02 0.89839341E+02</pdfrwt>
<totfact> 0.12351575E+05</totfact>
</mgrwt>
</event>
<event>
 5   1  0.1388354E+00  0.9089307E+02  0.7818608E-02  0.1300703E+00
         -1   -1    0    0    0  501 -0.00000000000E+00  0.00000000000E+00  0.20086948836E+02  0.20086949379E+02  0.46700000000E-02 0.  1.
          1   -1    0    0  501    0  0.00000000000E+00 -0.00000000000E+00 -0.10282236858E+03  0.10282236868E+03  0.46700000000E-02 0. -1.
         23    2    1    2    0    0  0.00000000000E+00  0.00000000000E+00 -0.82735419741E+02  0.12290931806E+03  0.90893073371E+02 0.  0.
        -13    1    3    3    0    0 -0.84721739799E+01 -0.39313717250E+02 -0.69990223825E+02  0.80721674286E+02  0.10570000000E+00 0.  1.
         13    1    3    3    0    0  0.84721739799E+01  0.39313717250E+02 -0.12745195916E+02  0.42187643777E+02  0.10570000000E+00 0. -1.
<mgrwt>
<rscale>  0 0.90893073E+02</rscale>
<asrwt>0</asrwt>
<pdfrwt beam="2">  1        1 0.15818826E-01 0.90893073E+02</pdfrwt>
<pdfrwt beam="1">  1       -1 0.30902999E-02 0.90893073E+02</pdfrwt>
<totfact> 0.10583247E+05</totfact>
</mgrwt>
</event>
<event>
 5   1  0.1388354E+00  0.1170247E+03  0.7818608E-02  0.1248088E+00
         -1   -1    0    0    0  501 -0.00000000000E+00  0.00000000000E+00  0.41196551896E+02  0.41196552161E+02  0.46700000000E-02 0.  1.
          1   -1    0    0  501    0  0.00000000000E+00 -0.00000000000E+00 -0.83106368780E+02  0.83106368911E+02  0.46700000000E-02 0. -1.
         23    2    1    2    0    0  0.00000000000E+00  0.00000000000E+00 -0.41909816884E+02  0.12430292107E+03  0.11702471293E+03 0.  0.
        -13    1    3    3    0    0 -0.92369637442E+01  0.24363545949E+02  0.34694119793E+02  0.43388904009E+02  0.10570000000E+00 0.  1.
         13    1    3    3    0    0  0.92369637442E+01 -0.24363545949E+02 -0.76603936677E+02  0.80914017063E+02  0.10570000000E+00 0. -1.
<mgrwt>
<rscale>  0 0.11702471E+03</rscale>
<asrwt>0</asrwt>
<pdfrwt beam="2">  1        1 0.12785595E-01 0.11702471E+03</pdfrwt>
<pdfrwt beam="1">  1       -1 0.63379311E-02 0.11702471E+03</pdfrwt>
<totfact> 0.50486860E+04</totfact>
</mgrwt>
</event>
<event>
 5   1  0.1388354E+00  0.8720169E+02  0.7818608E-02  0.1309773E+00
          1   -1    0    0  501    0  0.00000000000E+00  0.00000000000E+00  0.37348690296E+03  0.37348690299E+03  0.46700000000E-02 0. -1.
         -1   -1    0    0    0  501 -0.00000000000E+00 -0.00000000000E+00 -0.50899601427E+01  0.50899622850E+01  0.46700000000E-02 0.  1.
         23    2    1    2    0    0  0.00000000000E+00  0.00000000000E+00  0.36839694282E+03  0.37857686528E+03  0.87201694042E+02 0.  0.
        -13    1    3    3    0    0  0.12759112227E+02  0.41553134600E+02  0.19896224056E+03  0.20365520440E+03  0.10570000000E+00 0. -1.
         13    1    3    3    0    0 -0.12759112227E+02 -0.41553134600E+02  0.16943470226E+03  0.17492166087E+03  0.10570000000E+00 0.  1.
<mgrwt>
<rscale>  0 0.87201694E+02</rscale>
<asrwt>0</asrwt>
<pdfrwt beam="1">  1        1 0.57459542E-01 0.87201694E+02</pdfrwt>
<pdfrwt beam="2">  1       -1 0.78307070E-03 0.87201694E+02</pdfrwt>
<totfact> 0.15006136E+05</totfact>
</mgrwt>
</event>
<event>
 5   1  0.1388354E+00  0.9162871E+02  0.7818608E-02  0.1298955E+00
          1   -1    0    0  501    0  0.00000000000E+00  0.00000000000E+00  0.96708333066E+02  0.96708333179E+02  0.46700000000E-02 0. -1.
         -1   -1    0    0    0  501 -0.00000000000E+00 -0.00000000000E+00 -0.21703972273E+02  0.21703972775E+02  0.46700000000E-02 0.  1.
         23    2    1    2    0    0  0.00000000000E+00  0.00000000000E+00  0.75004360793E+02  0.11841230595E+03  0.91628707638E+02 0.  0.
        -13    1    3    3    0    0  0.24526044903E+02  0.30059559095E+02  0.68994159481E+02  0.79153706083E+02  0.10570000000E+00 0. -1.
         13    1    3    3    0    0 -0.24526044903E+02 -0.30059559095E+02  0.60102013115E+01  0.39258599871E+02  0.10570000000E+00 0.  1.
<mgrwt>
<rscale>  0 0.91628708E+02</rscale>
<asrwt>0</asrwt>
<pdfrwt beam="1">  1        1 0.14878205E-01 0.91628708E+02</pdfrwt>
<pdfrwt beam="2">  1       -1 0.33390726E-02 0.91628708E+02</pdfrwt>
<totfact> 0.10248080E+05</totfact>
</mgrwt>
</event>
<event>
 5   1  0.1388354E+00  0.9002703E+02  0.7818608E-02  0.1302786E+00
          1   -1    0    0  501    0  0.00000000000E+00  0.00000000000E+00  0.89927011687E+02  0.89927011809E+02  0.46700000000E-02 0. -1.
         -1   -1    0    0    0  501 -0.00000000000E+00 -0.00000000000E+00 -0.22531790641E+02  0.22531791125E+02  0.46700000000E-02 0.  1.
         23    2    1    2    0    0  0.00000000000E+00  0.00000000000E+00  0.67395221046E+02  0.11245880293E+03  0.90027032260E+02 0.  0.
        -13    1    3    3    0    0 -0.61212232379E+01 -0.32376616069E+02  0.72006344780E+02  0.79187369593E+02  0.10570000000E+00 0. -1.
         13    1    3    3    0    0  0.61212232379E+01  0.32376616069E+02 -0.46111237339E+01  0.33271433341E+02  0.10570000000E+00 0.  1.
<mgrwt>
<rscale>  0 0.90027032E+02</rscale>
<asrwt>0</asrwt>
<pdfrwt beam="1">  1        1 0.13834925E-01 0.90027032E+02</pdfrwt>
<pdfrwt beam="2">  1       -1 0.34664294E-02 0.90027032E+02</pdfrwt>
<totfact> 0.10626599E+05</totfact>
</mgrwt>
</event>
<event>
 5   1  0.1388354E+00  0.9105829E+02  0.7818608E-02  0.1300309E+00
          1   -1    0    0  501    0  0.00000000000E+00  0.00000000000E+00  0.22922011077E+03  0.22922011081E+03  0.46700000000E-02 0. -1.
         -1   -1    0    0    0  501 -0.00000000000E+00 -0.00000000000E+00 -0.90432845340E+01  0.90432857398E+01  0.46700000000E-02 0.  1.
         23    2    1    2    0    0  0.00000000000E+00  0.00000000000E+00  0.22017682623E+03  0.23826339655E+03  0.91058285332E+02 0.  0.
        -13    1    3    3    0    0 -0.10855956541E+02  0.36501608990E+02  0.44795255582E+02  0.58794943205E+02  0.10570000000E+00 0.  1.
         13    1    3    3    0    0  0.10855956541E+02 -0.36501608990E+02  0.17538157065E+03  0.17946845335E+03  0.10570000000E+00 0. -1.
<mgrwt>
<rscale>  0 0.91058285E+02</rscale>
<asrwt>0</asrwt>
<pdfrwt beam="1">  1        1 0.35264633E-01 0.91058285E+02</pdfrwt>
<pdfrwt beam="2">  1       -1 0.13912746E-02 0.91058285E+02</pdfrwt>
<totfact> 0.12201856E+05</totfact>
</mgrwt>
</event>
<event>
 5   1  0.1388354E+00  0.9113567E+02  0.7818608E-02  0.1300125E+00
          1   -1    0    0  501    0  0.00000000000E+00  0.00000000000E+00  0.17582813395E+03  0.17582813401E+03  0.46700000000E-02 0. -1.
         -1   -1    0    0    0  501 -0.00000000000E+00 -0.00000000000E+00 -0.11809415311E+02  0.11809416234E+02  0.46700000000E-02 0.  1.
         23    2    1    2    0    0  0.00000000000E+00  0.00000000000E+00  0.16401871864E+03  0.18763755024E+03  0.91135669186E+02 0.  0.
        -13    1    3    3    0    0 -0.40104343823E+02  0.19381088575E+02  0.62215015586E+02  0.76516039656E+02  0.10570000000E+00 0.  1.
         13    1    3    3    0    0  0.40104343823E+02 -0.19381088575E+02  0.10180370305E+03  0.11112151059E+03  0.10570000000E+00 0. -1.
<mgrwt>
<rscale>  0 0.91135669E+02</rscale>
<asrwt>0</asrwt>
<pdfrwt beam="1">  1        1 0.27050481E-01 0.91135669E+02</pdfrwt>
<pdfrwt beam="2">  1       -1 0.18168333E-02 0.91135669E+02</pdfrwt>
<totfact> 0.11564899E+05</totfact>
</mgrwt>
</event>
<event>
 5   1  0.1388354E+00  0.9654051E+02  0.7818608E-02  0.1287744E+00
         -1   -1    0    0    0  501 -0.00000000000E+00  0.00000000000E+00  0.24818361888E+02  0.24818362327E+02  0.46700000000E-02 0.  1.
          1   -1    0    0  501    0  0.00000000000E+00 -0.00000000000E+00 -0.93882806872E+02  0.93882806988E+02  0.46700000000E-02 0. -1.
         23    2    1    2    0    0  0.00000000000E+00  0.00000000000E+00 -0.69064444984E+02  0.11870116931E+03  0.96540509817E+02 0.  0.
        -13    1    3    3    0    0  0.11555359550E+02 -0.37422692408E+02  0.15807071032E+00  0.39166572485E+02  0.10570000000E+00 0. -1.
         13    1    3    3    0    0 -0.11555359550E+02  0.37422692408E+02 -0.69222515694E+02  0.79534596830E+02  0.10570000000E+00 0.  1.
<mgrwt>
<rscale>  0 0.96540510E+02</rscale>
<asrwt>0</asrwt>
<pdfrwt beam="2">  1        1 0.14443509E-01 0.96540510E+02</pdfrwt>
<pdfrwt beam="1">  1       -1 0.38182096E-02 0.96540510E+02</pdfrwt>
<totfact> 0.88365392E+04</totfact>
</mgrwt>
</event>
<event>
 5   1  0.1388354E+00  0.9066864E+02  0.7818608E-02  0.1301241E+00
         -1   -1    0    0    0  501 -0.00000000000E+00  0.00000000000E+00  0.84671921696E+02  0.84671921824E+02  0.46700000000E-02 0.  1.
          1   -1    0    0  501    0  0.00000000000E+00 -0.00000000000E+00 -0.24272516009E+02  0.24272516458E+02  0.46700000000E-02 0. -1.
         23    2    1    2    0    0  0.00000000000E+00  0.00000000000E+00  0.60399405687E+02  0.10894443828E+03  0.90668640805E+02 0.  0.
        -13    1    3    3    0    0 -0.20350668445E+02  0.23332187043E+01  0.78794072652E+02  0.81413209452E+02  0.10570000000E+00 0.  1.
         13    1    3    3    0    0  0.20350668445E+02 -0.23332187043E+01 -0.18394666965E+02  0.27531228831E+02  0.10570000000E+00 0. -1.
<mgrwt>
<rscale>  0 0.90668641E+02</rscale>
<asrwt>0</asrwt>
<pdfrwt beam="2">  1        1 0.37342332E-02 0.90668641E+02</pdfrwt>
<pdfrwt beam="1">  1       -1 0.13026450E-01 0.90668641E+02</pdfrwt>
<totfact> 0.85042797E+04</totfact>
</mgrwt>
</event>
<event>
 5   1  0.1388354E+00  0.8974368E+02  0.7818608E-02  0.1303474E+00
          1   -1    0    0  501    0  0.00000000000E+00  0.00000000000E+00  0.63839207813E+01  0.63839224894E+01  0.46700000000E-02 0. -1.
         -1   -1    0    0    0  501 -0.00000000000E+00 -0.00000000000E+00 -0.31539889476E+03  0.31539889479E+03  0.46700000000E-02 0.  1.
         23    2    1    2    0    0  0.00000000000E+00  0.00000000000E+00 -0.30901497397E+03  0.32178281728E+03  0.89743675855E+02 0.  0.
        -13    1    3    3    0    0 -0.37105233634E+02  0.24751460397E+02 -0.13692809905E+03  0.14400954356E+03  0.10570000000E+00 0. -1.
         13    1    3    3    0    0  0.37105233634E+02 -0.24751460397E+02 -0.17208687492E+03  0.17777327372E+03  0.10570000000E+00 0.  1.
<mgrwt>
<rscale>  0 0.89743676E+02</rscale>
<asrwt>0</asrwt>
<pdfrwt beam="1">  1        1 0.98214204E-03 0.89743676E+02</pdfrwt>
<pdfrwt beam="2">  1       -1 0.48522895E-01 0.89743676E+02</pdfrwt>
<totfact> 0.61889780E+04</totfact>
</mgrwt>
</event>
<event>
 5   1  0.1388354E+00  0.9144673E+02  0.7818608E-02  0.1299386E+00
         -1   -1    0    0    0  501 -0.00000000000E+00  0.00000000000E+00  0.17721868195E+02  0.17721868810E+02  0.46700000000E-02 0.  1.
          1   -1    0    0  501    0  0.00000000000E+00 -0.00000000000E+00 -0.11796871379E+03  0.11796871388E+03  0.46700000000E-02 0. -1.
         23    2    1    2    0    0  0.00000000000E+00  0.00000000000E+00 -0.10024684560E+03  0.13569058269E+03  0.91446728644E+02 0.  0.
        -13    1    3    3    0    0 -0.14706917505E+02  0.36814517739E+02 -0.16319232328E+02  0.42871093467E+02  0.10570000000E+00 0.  1.
         13    1    3    3    0    0  0.14706917505E+02 -0.36814517739E+02 -0.83927613268E+02  0.92819489226E+02  0.10570000000E+00 0. -1.
<mgrwt>
<rscale>  0 0.91446729E+02</rscale>
<asrwt>0</asrwt>
<pdfrwt beam="2">  1        1 0.18149032E-01 0.91446729E+02</pdfrwt>
<pdfrwt beam="1">  1       -1 0.27264414E-02 0.91446729E+02</pdfrwt>
<totfact> 0.10656136E+05</totfact>
</mgrwt>
</event>
<event>
 5   1  0.1388354E+00  0.9389301E+02  0.7818608E-02  0.1293689E+00
          1   -1    0    0  501    0  0.00000000000E+00  0.00000000000E+00  0.14065019957E+03  0.14065019965E+03  0.46700000000E-02 0. -1.
         -1   -1    0    0    0  501 -0.00000000000E+00 -0.00000000000E+00 -0.15669898700E+02  0.15669899396E+02  0.46700000000E-02 0.  1.
         23    2    1    2    0    0  0.00000000000E+00  0.00000000000E+00  0.12498030087E+03  0.15632009904E+03  0.93893012304E+02 0.  0.
        -13    1    3    3    0    0 -0.46793706184E+02 -0.12798772517E+01  0.68417254703E+02  0.82898859689E+02  0.10570000000E+00 0. -1.
         13    1    3    3    0    0  0.46793706184E+02  0.12798772517E+01  0.56563046168E+02  0.73421239356E+02  0.10570000000E+00 0.  1.
<mgrwt>
<rscale>  0 0.93893012E+02</rscale>
<asrwt>0</asrwt>
<pdfrwt beam="1">  1        1 0.21638493E-01 0.93893012E+02</pdfrwt>
<pdfrwt beam="2">  1       -1 0.24107536E-02 0.93893012E+02</pdfrwt>
<totfact> 0.10235246E+05</totfact>
</mgrwt>
</event>
<event>
 5   1  0.1388354E+00  0.9234304E+02  0.7818608E-02  0.1297275E+00
          1   -1    0    0  501    0  0.00000000000E+00  0.00000000000E+00  0.94846635691E+01  0.94846647188E+01  0.46700000000E-02 0. -1.
         -1   -1    0    0    0  501 -0.00000000000E+00 -0.00000000000E+00 -0.22476379403E+03  0.22476379408E+03  0.46700000000E-02 0.  1.
         23    2    1    2    0    0  0.00000000000E+00  0.00000000000E+00 -0.21527913046E+03  0.23424845880E+03  0.92343036753E+02 0.  0.
        -13    1    3    3    0    0 -0.21772391823E+02 -0.37272479968E+02 -0.66071152781E+02  0.78922007140E+02  0.10570000000E+00 0. -1.
         13    1    3    3    0    0  0.21772391823E+02  0.37272479968E+02 -0.14920797768E+03  0.15532645166E+03  0.10570000000E+00 0.  1.
<mgrwt>
<rscale>  0 0.92343037E+02</rscale>
<asrwt>0</asrwt>
<pdfrwt beam="1">  1        1 0.14591793E-02 0.92343037E+02</pdfrwt>
<pdfrwt beam="2">  1       -1 0.34579041E-01 0.92343037E+02</pdfrwt>
<totfact> 0.64856219E+04</totfact>
</mgrwt>
</event>
<event>
 5   1  0.1388354E+00  0.9395588E+02  0.7818608E-02  0.1293545E+00
          1   -1    0    0  501    0  0.00000000000E+00  0.00000000000E+00  0.23132444432E+02  0.23132444903E+02  0.46700000000E-02 0. -1.
         -1   -1    0    0    0  501 -0.00000000000E+00 -0.00000000000E+00 -0.95403960680E+02  0.95403960795E+02  0.46700000000E-02 0.  1.
         23    2    1    2    0    0  0.00000000000E+00  0.00000000000E+00 -0.72271516249E+02  0.11853640570E+03  0.93955880150E+02 0.  0.
        -13    1    3    3    0    0  0.36969212056E+02 -0.15990322727E+02 -0.66637245669E+02  0.77864926275E+02  0.10570000000E+00 0.  1.
         13    1    3    3    0    0 -0.36969212056E+02  0.15990322727E+02 -0.56342705794E+01  0.40671479422E+02  0.10570000000E+00 0. -1.
<mgrwt>
<rscale>  0 0.93955880E+02</rscale>
<asrwt>0</asrwt>
<pdfrwt beam="1">  1        1 0.35588377E-02 0.93955880E+02</pdfrwt>
<pdfrwt beam="2">  1       -1 0.14677532E-01 0.93955880E+02</pdfrwt>
<totfact> 0.75969642E+04</totfact>
</mgrwt>
</event>
<event>
 5   1  0.1388354E+00  0.8909748E+02  0.7818608E-02  0.1305052E+00
          1   -1    0    0  501    0  0.00000000000E+00  0.00000000000E+00  0.53272115482E+02  0.53272115687E+02  0.46700000000E-02 0. -1.
         -1   -1    0    0    0  501 -0.00000000000E+00 -0.00000000000E+00 -0.37253825155E+02  0.37253825447E+02  0.46700000000E-02 0.  1.
         23    2    1    2    0    0  0.00000000000E+00  0.00000000000E+00  0.16018290327E+02  0.90525941134E+02  0.89097476918E+02 0.  0.
        -13    1    3    3    0    0 -0.79740437616E+01 -0.42700452930E+02 -0.20318517659E+01  0.43486246658E+02  0.10570000000E+00 0.  1.
         13    1    3    3    0    0  0.79740437616E+01  0.42700452930E+02  0.18050142093E+02  0.47039694476E+02  0.10570000000E+00 0. -1.
<mgrwt>
<rscale>  0 0.89097477E+02</rscale>
<asrwt>0</asrwt>
<pdfrwt beam="1">  1        1 0.81957101E-02 0.89097477E+02</pdfrwt>
<pdfrwt beam="2">  1       -1 0.57313578E-02 0.89097477E+02</pdfrwt>
<totfact> 0.10092984E+05</totfact>
</mgrwt>
</event>
<event>
 5   1  0.1388354E+00  0.9092339E+02  0.7818608E-02  0.1300631E+00
         -1   -1    0    0    0  501 -0.00000000000E+00  0.00000000000E+00  0.25501729003E+03  0.25501729008E+03  0.46700000000E-02 0. -1.
          1   -1    0    0  501    0  0.00000000000E+00 -0.00000000000E+00 -0.81044140559E+01  0.81044154014E+01  0.46700000000E-02 0.  1.
         23    2    1    2    0    0  0.00000000000E+00  0.00000000000E+00  0.24691287598E+03  0.26312170548E+03  0.90923393964E+02 0.  0.
        -13    1    3    3    0    0  0.43541396116E+01  0.43189215433E+02  0.84363525775E+02  0.94876143024E+02  0.10570000000E+00 0.  1.
         13    1    3    3    0    0 -0.43541396116E+01 -0.43189215433E+02  0.16254935020E+03  0.16824556245E+03  0.10570000000E+00 0. -1.
<mgrwt>
<rscale>  0 0.90923394E+02</rscale>
<asrwt>0</asrwt>
<pdfrwt beam="2">  1        1 0.12468331E-02 0.90923394E+02</pdfrwt>
<pdfrwt beam="1">  1       -1 0.39233426E-01 0.90923394E+02</pdfrwt>
<totfact> 0.64796347E+04</totfact>
</mgrwt>
</event>
<event>
 5   1  0.1388354E+00  0.9012817E+02  0.7818608E-02  0.1302542E+00
         -1   -1    0    0    0  501 -0.00000000000E+00  0.00000000000E+00  0.82354421278E+01  0.82354434519E+01  0.46700000000E-02 0.  1.
          1   -1    0    0  501    0  0.00000000000E+00 -0.00000000000E+00 -0.24658925111E+03  0.24658925116E+03  0.46700000000E-02 0. -1.
         23    2    1    2    0    0  0.00000000000E+00  0.00000000000E+00 -0.23835380899E+03  0.25482469461E+03  0.90128168321E+02 0.  0.
        -13    1    3    3    0    0  0.37003458862E+02  0.18253890244E+02 -0.67947839441E+02  0.79494531473E+02  0.10570000000E+00 0.  1.
         13    1    3    3    0    0 -0.37003458862E+02 -0.18253890244E+02 -0.17040596954E+03  0.17533016314E+03  0.10570000000E+00 0. -1.
<mgrwt>
<rscale>  0 0.90128168E+02</rscale>
<asrwt>0</asrwt>
<pdfrwt beam="2">  1        1 0.37936802E-01 0.90128168E+02</pdfrwt>
<pdfrwt beam="1">  1       -1 0.12669914E-02 0.90128168E+02</pdfrwt>
<totfact> 0.12720710E+05</totfact>
</mgrwt>
</event>
<event>
 5   1  0.1388354E+00  0.9180122E+02  0.7818608E-02  0.1298547E+00
          1   -1    0    0  501    0  0.00000000000E+00  0.00000000000E+00  0.25448674969E+03  0.25448674974E+03  0.46700000000E-02 0. -1.
         -1   -1    0    0    0  501 -0.00000000000E+00 -0.00000000000E+00 -0.82788827494E+01  0.82788840666E+01  0.46700000000E-02 0.  1.
         23    2    1    2    0    0  0.00000000000E+00  0.00000000000E+00  0.24620786695E+03  0.26276563380E+03  0.91801223100E+02 0.  0.
        -13    1    3    3    0    0  0.34848745843E+02 -0.29200826406E+02  0.14114608084E+03  0.14828806648E+03  0.10570000000E+00 0. -1.
         13    1    3    3    0    0 -0.34848745843E+02  0.29200826406E+02  0.10506178610E+03  0.11447756733E+03  0.10570000000E+00 0.  1.
<mgrwt>
<rscale>  0 0.91801223E+02</rscale>
<asrwt>0</asrwt>
<pdfrwt beam="1">  1        1 0.39151806E-01 0.91801223E+02</pdfrwt>
<pdfrwt beam="2">  1       -1 0.12736744E-02 0.91801223E+02</pdfrwt>
<totfact> 0.12185500E+05</totfact>
</mgrwt>
</event>
<event>
 5   1  0.1388354E+00  0.9176195E+02  0.7818608E-02  0.1298640E+00
          1   -1    0    0  501    0  0.00000000000E+00  0.00000000000E+00  0.22031703077E+03  0.22031703082E+03  0.46700000000E-02 0. -1.
         -1   -1    0    0    0  501 -0.00000000000E+00 -0.00000000000E+00 -0.95547036672E+01  0.95547048085E+01  0.46700000000E-02 0.  1.
         23    2    1    2    0    0  0.00000000000E+00  0.00000000000E+00  0.21076232710E+03  0.22987173562E+03  0.91761954614E+02 0.  0.
        -13    1    3    3    0    0  0.34969943448E+02  0.16981522268E+02  0.44337988520E+02  0.58967257370E+02  0.10570000000E+00 0.  1.
         13    1    3    3    0    0 -0.34969943448E+02 -0.16981522268E+02  0.16642433858E+03  0.17090447825E+03  0.10570000000E+00 0. -1.
<mgrwt>
<rscale>  0 0.91761955E+02</rscale>
<asrwt>0</asrwt>
<pdfrwt beam="1">  1        1 0.33894927E-01 0.91761955E+02</pdfrwt>
<pdfrwt beam="2">  1       -1 0.14699546E-02 0.91761955E+02</pdfrwt>
<totfact> 0.11860615E+05</totfact>
</mgrwt>
</event>
<event>
 5   1  0.1388354E+00  0.9258366E+02  0.7818608E-02  0.1296713E+00
          1   -1    0    0  501    0  0.00000000000E+00  0.00000000000E+00  0.12197420385E+03  0.12197420394E+03  0.46700000000E-02 0. -1.
         -1   -1    0    0    0  501 -0.00000000000E+00 -0.00000000000E+00 -0.17568745048E+02  0.17568745668E+02  0.46700000000E-02 0.  1.
         23    2    1    2    0    0  0.00000000000E+00  0.00000000000E+00  0.10440545880E+03  0.13954294961E+03  0.92583664635E+02 0.  0.
        -13    1    3    3    0    0  0.14364683907E+02 -0.35652661685E+02  0.91083647587E+02  0.98862017273E+02  0.10570000000E+00 0. -1.
         13    1    3    3    0    0 -0.14364683907E+02  0.35652661685E+02  0.13321811214E+02  0.40680932333E+02  0.10570000000E+00 0.  1.
<mgrwt>
<rscale>  0 0.92583665E+02</rscale>
<asrwt>0</asrwt>
<pdfrwt beam="1">  1        1 0.18765262E-01 0.92583665E+02</pdfrwt>
<pdfrwt beam="2">  1       -1 0.27028840E-02 0.92583665E+02</pdfrwt>
<totfact> 0.10364434E+05</totfact>
</mgrwt>
</event>
<event>
 5   1  0.1388354E+00  0.9086999E+02  0.7818608E-02  0.1300758E+00
          1   -1    0    0  501    0  0.00000000000E+00  0.00000000000E+00  0.17243079573E+02  0.17243080206E+02  0.46700000000E-02 0. -1.
         -1   -1    0    0    0  501 -0.00000000000E+00 -0.00000000000E+00 -0.11971983275E+03  0.11971983284E+03  0.46700000000E-02 0.  1.
         23    2    1    2    0    0  0.00000000000E+00  0.00000000000E+00 -0.10247675318E+03  0.13696291305E+03  0.90869987393E+02 0.  0.
        -13    1    3    3    0    0  0.41618151716E+02 -0.13818556668E+02 -0.69155174231E+02  0.81886948630E+02  0.10570000000E+00 0.  1.
         13    1    3    3    0    0 -0.41618151716E+02  0.13818556668E+02 -0.33321578950E+02  0.55075964420E+02  0.10570000000E+00 0. -1.
<mgrwt>
<rscale>  0 0.90869987E+02</rscale>
<asrwt>0</asrwt>
<pdfrwt beam="1">  1        1 0.26527816E-02 0.90869987E+02</pdfrwt>
<pdfrwt beam="2">  1       -1 0.18418435E-01 0.90869987E+02</pdfrwt>
<totfact> 0.79255813E+04</totfact>
</mgrwt>
</event>
<event>
 5   1  0.1388354E+00  0.8792340E+02  0.7818608E-02  0.1307960E+00
          1   -1    0    0  501    0  0.00000000000E+00  0.00000000000E+00  0.18737578302E+03  0.18737578308E+03  0.46700000000E-02 0. -1.
         -1   -1    0    0    0  501 -0.00000000000E+00 -0.00000000000E+00 -0.10314198004E+02  0.10314199061E+02  0.46700000000E-02 0.  1.
         23    2    1    2    0    0  0.00000000000E+00  0.00000000000E+00  0.17706158502E+03  0.19768998214E+03  0.87923399330E+02 0.  0.
        -13    1    3    3    0    0  0.19412962379E+02 -0.20738076007E+02  0.16396865860E+03  0.16641112667E+03  0.10570000000E+00 0. -1.
         13    1    3    3    0    0 -0.19412962379E+02  0.20738076007E+02  0.13092926419E+02  0.31278855470E+02  0.10570000000E+00 0.  1.
<mgrwt>
<rscale>  0 0.87923399E+02</rscale>
<asrwt>0</asrwt>
<pdfrwt beam="1">  1        1 0.28827045E-01 0.87923399E+02</pdfrwt>
<pdfrwt beam="2">  1       -1 0.15867997E-02 0.87923399E+02</pdfrwt>
<totfact> 0.12887220E+05</totfact>
</mgrwt>
</event>
<event>
 5   1  0.1388354E+00  0.8394104E+02  0.7818608E-02  0.1318225E+00
          1   -1    0    0  501    0  0.00000000000E+00  0.00000000000E+00  0.17582691160E+03  0.17582691166E+03  0.46700000000E-02 0. -1.
         -1   -1    0    0    0  501 -0.00000000000E+00 -0.00000000000E+00 -0.10018515100E+02  0.10018516189E+02  0.46700000000E-02 0.  1.
         23    2    1    2    0    0  0.00000000000E+00  0.00000000000E+00  0.16580839650E+03  0.18584542785E+03  0.83941043019E+02 0.  0.
        -13    1    3    3    0    0 -0.38049781084E+02 -0.10832326251E+02  0.11393088517E+03  0.12060424081E+03  0.10570000000E+00 0. -1.
         13    1    3    3    0    0  0.38049781084E+02  0.10832326251E+02  0.51877511327E+02  0.65241187040E+02  0.10570000000E+00 0.  1.
<mgrwt>
<rscale>  0 0.83941043E+02</rscale>
<asrwt>0</asrwt>
<pdfrwt beam="1">  1        1 0.27050293E-01 0.83941043E+02</pdfrwt>
<pdfrwt beam="2">  1       -1 0.15413102E-02 0.83941043E+02</pdfrwt>
<totfact> 0.14409538E+05</totfact>
</mgrwt>
</event>
<event>
 5   1  0.1388354E+00  0.9159259E+02  0.7818608E-02  0.1299040E+00
         -1   -1    0    0    0  501 -0.00000000000E+00  0.00000000000E+00  0.32869842921E+02  0.32869843253E+02  0.46700000000E-02 0.  1.
          1   -1    0    0  501    0  0.00000000000E+00 -0.00000000000E+00 -0.63806218695E+02  0.63806218866E+02  0.46700000000E-02 0. -1.
         23    2    1    2    0    0  0.00000000000E+00  0.00000000000E+00 -0.30936375773E+02  0.96676062119E+02  0.91592585076E+02 0.  0.
        -13    1    3    3    0    0  0.29863081498E+02 -0.29171741557E+02 -0.35341202467E+02  0.54697403104E+02  0.10570000000E+00 0. -1.
         13    1    3    3    0    0 -0.29863081498E+02  0.29171741557E+02  0.44048266937E+01  0.41978659015E+02  0.10570000000E+00 0.  1.
<mgrwt>
<rscale>  0 0.91592585E+02</rscale>
<asrwt>0</asrwt>
<pdfrwt beam="2">  1        1 0.98163414E-02 0.91592585E+02</pdfrwt>
<pdfrwt beam="1">  1       -1 0.50568990E-02 0.91592585E+02</pdfrwt>
<totfact> 0.96056882E+04</totfact>
</mgrwt>
</event>
<event>
 5   1  0.1388354E+00  0.7893011E+02  0.7818608E-02  0.1332115E+00
         -1   -1    0    0    0  501 -0.00000000000E+00  0.00000000000E+00  0.97505437509E+01  0.97505448693E+01  0.46700000000E-02 0.  1.
          1   -1    0    0  501    0  0.00000000000E+00 -0.00000000000E+00 -0.15973368602E+03  0.15973368609E+03  0.46700000000E-02 0. -1.
         23    2    1    2    0    0  0.00000000000E+00  0.00000000000E+00 -0.14998314227E+03  0.16948423096E+03  0.78930105654E+02 0.  0.
        -13    1    3    3    0    0  0.22720880250E+02 -0.24035528198E+02 -0.12122195584E+03  0.12565316855E+03  0.10570000000E+00 0.  1.
         13    1    3    3    0    0 -0.22720880250E+02  0.24035528198E+02 -0.28761186432E+02  0.43831062416E+02  0.10570000000E+00 0. -1.
<mgrwt>
<rscale>  0 0.78930106E+02</rscale>
<asrwt>0</asrwt>
<pdfrwt beam="2">  1        1 0.24574411E-01 0.78930106E+02</pdfrwt>
<pdfrwt beam="1">  1       -1 0.15000839E-02 0.78930106E+02</pdfrwt>
<totfact> 0.16674979E+05</totfact>
</mgrwt>
</event>
<event>
 5   1  0.1388354E+00  0.9903971E+02  0.7818608E-02  0.1282328E+00
         -1   -1    0    0    0  501 -0.00000000000E+00  0.00000000000E+00  0.38659190945E+03  0.38659190947E+03  0.46700000000E-02 0. -1.
          1   -1    0    0  501    0  0.00000000000E+00 -0.00000000000E+00 -0.63431636600E+01  0.63431653791E+01  0.46700000000E-02 0.  1.
         23    2    1    2    0    0  0.00000000000E+00  0.00000000000E+00  0.38024874579E+03  0.39293507485E+03  0.99039711117E+02 0.  0.
        -13    1    3    3    0    0  0.39974079068E+02 -0.25239489855E+02  0.24860168515E+03  0.25305684713E+03  0.10570000000E+00 0. -1.
         13    1    3    3    0    0 -0.39974079068E+02  0.25239489855E+02  0.13164706063E+03  0.13987822772E+03  0.10570000000E+00 0.  1.
<mgrwt>
<rscale>  0 0.99039711E+02</rscale>
<asrwt>0</asrwt>
<pdfrwt beam="2">  1        1 0.97587183E-03 0.99039711E+02</pdfrwt>
<pdfrwt beam="1">  1       -1 0.59475656E-01 0.99039711E+02</pdfrwt>
<totfact> 0.43610800E+04</totfact>
</mgrwt>
</event>
<event>
 5   1  0.1388354E+00  0.9066880E+02  0.7818608E-02  0.1301240E+00
          1   -1    0    0  501    0  0.00000000000E+00  0.00000000000E+00  0.33021097974E+03  0.33021097978E+03  0.46700000000E-02 0. -1.
         -1   -1    0    0    0  501 -0.00000000000E+00 -0.00000000000E+00 -0.62239222420E+01  0.62239239940E+01  0.46700000000E-02 0.  1.
         23    2    1    2    0    0  0.00000000000E+00  0.00000000000E+00  0.32398705750E+03  0.33643490377E+03  0.90668798639E+02 0.  0.
        -13    1    3    3    0    0  0.42553059772E+02  0.11773744398E+01  0.21984158196E+03  0.22392516928E+03  0.10570000000E+00 0. -1.
         13    1    3    3    0    0 -0.42553059772E+02 -0.11773744398E+01  0.10414547554E+03  0.11250973449E+03  0.10570000000E+00 0.  1.
<mgrwt>
<rscale>  0 0.90668799E+02</rscale>
<asrwt>0</asrwt>
<pdfrwt beam="1">  1        1 0.50801702E-01 0.90668799E+02</pdfrwt>
<pdfrwt beam="2">  1       -1 0.95752640E-03 0.90668799E+02</pdfrwt>
<totfact> 0.13240152E+05</totfact>
</mgrwt>
</event>
<event>
 5   1  0.1388354E+00  0.9781737E+02  0.7818608E-02  0.1284954E+00
         -1   -1    0    0    0  501 -0.00000000000E+00  0.00000000000E+00  0.49037764683E+02  0.49037764905E+02  0.46700000000E-02 0.  1.
          1   -1    0    0  501    0  0.00000000000E+00 -0.00000000000E+00 -0.48779949548E+02  0.48779949772E+02  0.46700000000E-02 0. -1.
         23    2    1    2    0    0  0.00000000000E+00  0.00000000000E+00  0.25781513456E+00  0.97817714676E+02  0.97817374918E+02 0.  0.
        -13    1    3    3    0    0  0.18641749381E+02 -0.25595251560E+02  0.37403918849E+02  0.49007101936E+02  0.10570000000E+00 0.  1.
         13    1    3    3    0    0 -0.18641749381E+02  0.25595251560E+02 -0.37146103715E+02  0.48810612740E+02  0.10570000000E+00 0. -1.
<mgrwt>
<rscale>  0 0.97817375E+02</rscale>
<asrwt>0</asrwt>
<pdfrwt beam="2">  1        1 0.75046076E-02 0.97817375E+02</pdfrwt>
<pdfrwt beam="1">  1       -1 0.75442715E-02 0.97817375E+02</pdfrwt>
<totfact> 0.76636260E+04</totfact>
</mgrwt>
</event>
<event>
 5   1  0.1388354E+00  0.8933408E+02  0.7818608E-02  0.1304472E+00
          1   -1    0    0  501    0  0.00000000000E+00  0.00000000000E+00  0.13610825812E+03  0.13610825820E+03  0.46700000000E-02 0. -1.
         -1   -1    0    0    0  501 -0.00000000000E+00 -0.00000000000E+00 -0.14658512017E+02  0.14658512761E+02  0.46700000000E-02 0.  1.
         23    2    1    2    0    0  0.00000000000E+00  0.00000000000E+00  0.12144974610E+03  0.15076677096E+03  0.89334083068E+02 0.  0.
        -13    1    3    3    0    0 -0.65869365236E+01  0.35640122908E+02  0.10478341173E+03  0.11087461675E+03  0.10570000000E+00 0. -1.
         13    1    3    3    0    0  0.65869365236E+01 -0.35640122908E+02  0.16666334375E+02  0.39892154211E+02  0.10570000000E+00 0.  1.
<mgrwt>
<rscale>  0 0.89334083E+02</rscale>
<asrwt>0</asrwt>
<pdfrwt beam="1">  1        1 0.20939733E-01 0.89334083E+02</pdfrwt>
<pdfrwt beam="2">  1       -1 0.22551557E-02 0.89334083E+02</pdfrwt>
<totfact> 0.11640850E+05</totfact>
</mgrwt>
</event>
<event>
 5   1  0.1388354E+00  0.9001443E+02  0.7818608E-02  0.1302817E+00
         -1   -1    0    0    0  501 -0.00000000000E+00  0.00000000000E+00  0.15301532421E+02  0.15301533134E+02  0.46700000000E-02 0.  1.
          1   -1    0    0  501    0  0.00000000000E+00 -0.00000000000E+00 -0.13238212791E+03  0.13238212799E+03  0.46700000000E-02 0. -1.
         23    2    1    2    0    0  0.00000000000E+00  0.00000000000E+00 -0.11708059549E+03  0.14768366113E+03  0.90014431752E+02 0.  0.
        -13    1    3    3    0    0 -0.21703063003E+02 -0.38982017533E+02 -0.48831533572E+02  0.66144920275E+02  0.10570000000E+00 0.  1.
         13    1    3    3    0    0  0.21703063003E+02  0.38982017533E+02 -0.68249061919E+02  0.81538740854E+02  0.10570000000E+00 0. -1.
<mgrwt>
<rscale>  0 0.90014432E+02</rscale>
<asrwt>0</asrwt>
<pdfrwt beam="2">  1        1 0.20366481E-01 0.90014432E+02</pdfrwt>
<pdfrwt beam="1">  1       -1 0.23540821E-02 0.90014432E+02</pdfrwt>
<totfact> 0.11348799E+05</totfact>
</mgrwt>
</event>
<event>
 5   1  0.1388354E+00  0.9205447E+02  0.7818608E-02  0.1297951E+00
          1   -1    0    0  501    0  0.00000000000E+00  0.00000000000E+00  0.45492279756E+02  0.45492279995E+02  0.46700000000E-02 0. -1.
         -1   -1    0    0    0  501 -0.00000000000E+00 -0.00000000000E+00 -0.46568476086E+02  0.46568476320E+02  0.46700000000E-02 0.  1.
         23    2    1    2    0    0  0.00000000000E+00  0.00000000000E+00 -0.10761963304E+01  0.92060756316E+02  0.92054465697E+02 0.  0.
        -13    1    3    3    0    0  0.26902994495E+02  0.26945549770E+02 -0.26398349831E+02  0.46332686210E+02  0.10570000000E+00 0.  1.
         13    1    3    3    0    0 -0.26902994495E+02 -0.26945549770E+02  0.25322153501E+02  0.45728070105E+02  0.10570000000E+00 0. -1.
<mgrwt>
<rscale>  0 0.92054466E+02</rscale>
<asrwt>0</asrwt>
<pdfrwt beam="1">  1        1 0.69988123E-02 0.92054466E+02</pdfrwt>
<pdfrwt beam="2">  1       -1 0.71643810E-02 0.92054466E+02</pdfrwt>
<totfact> 0.89985835E+04</totfact>
</mgrwt>
</event>
<event>
 5   1  0.1388354E+00  0.9056375E+02  0.7818608E-02  0.1301492E+00
         -1   -1    0    0    0  501 -0.00000000000E+00  0.00000000000E+00  0.36774829826E+02  0.36774830122E+02  0.46700000000E-02 0.  1.
          1   -1    0    0  501    0  0.00000000000E+00 -0.00000000000E+00 -0.55756836946E+02  0.55756837141E+02  0.46700000000E-02 0. -1.
         23    2    1    2    0    0  0.00000000000E+00  0.00000000000E+00 -0.18982007120E+02  0.92531667263E+02  0.90563750211E+02 0.  0.
        -13    1    3    3    0    0 -0.41670360775E+02  0.79070222794E+01 -0.25694265620E+02  0.49589781474E+02  0.10570000000E+00 0. -1.
         13    1    3    3    0    0  0.41670360775E+02 -0.79070222794E+01  0.67122584994E+01  0.42941885789E+02  0.10570000000E+00 0.  1.
<mgrwt>
<rscale>  0 0.90563750E+02</rscale>
<asrwt>0</asrwt>
<pdfrwt beam="2">  1        1 0.85779749E-02 0.90563750E+02</pdfrwt>
<pdfrwt beam="1">  1       -1 0.56576662E-02 0.90563750E+02</pdfrwt>
<totfact> 0.97114734E+04</totfact>
</mgrwt>
</event>
<event>
 5   1  0.1388354E+00  0.8590057E+02  0.7818608E-02  0.1313094E+00
         -1   -1    0    0    0  501 -0.00000000000E+00  0.00000000000E+00  0.44903864338E+02  0.44903864581E+02  0.46700000000E-02 0.  1.
          1   -1    0    0  501    0  0.00000000000E+00 -0.00000000000E+00 -0.41081700173E+02  0.41081700439E+02  0.46700000000E-02 0. -1.
         23    2    1    2    0    0  0.00000000000E+00  0.00000000000E+00  0.38221641652E+01  0.85985565020E+02  0.85900573065E+02 0.  0.
        -13    1    3    3    0    0  0.20592911059E+02  0.30610577294E+02 -0.20102505440E+02  0.42014251458E+02  0.10570000000E+00 0. -1.
         13    1    3    3    0    0 -0.20592911059E+02 -0.30610577294E+02  0.23924669605E+02  0.43971313562E+02  0.10570000000E+00 0.  1.
<mgrwt>
<rscale>  0 0.85900573E+02</rscale>
<asrwt>0</asrwt>
<pdfrwt beam="2">  1        1 0.63202616E-02 0.85900573E+02</pdfrwt>
<pdfrwt beam="1">  1       -1 0.69082868E-02 0.85900573E+02</pdfrwt>
<totfact> 0.10759652E+05</totfact>
</mgrwt>
</event>
<event>
 5   1  0.1388354E+00  0.9447487E+02  0.7818608E-02  0.1292363E+00
          1   -1    0    0  501    0  0.00000000000E+00  0.00000000000E+00  0.56973291378E+02  0.56973291570E+02  0.46700000000E-02 0. -1.
         -1   -1    0    0    0  501 -0.00000000000E+00 -0.00000000000E+00 -0.39165288854E+02  0.39165289132E+02  0.46700000000E-02 0.  1.
         23    2    1    2    0    0  0.00000000000E+00  0.00000000000E+00  0.17808002525E+02  0.96138580702E+02  0.94474873620E+02 0.  0.
        -13    1    3    3    0    0 -0.25086682207E+02  0.21540148948E+02 -0.25424989224E+02  0.41710441024E+02  0.10570000000E+00 0.  1.
         13    1    3    3    0    0  0.25086682207E+02 -0.21540148948E+02  0.43232991749E+02  0.54428139679E+02  0.10570000000E+00 0. -1.
<mgrwt>
<rscale>  0 0.94474874E+02</rscale>
<asrwt>0</asrwt>
<pdfrwt beam="1">  1        1 0.87651217E-02 0.94474874E+02</pdfrwt>
<pdfrwt beam="2">  1       -1 0.60254292E-02 0.94474874E+02</pdfrwt>
<totfact> 0.86597524E+04</totfact>
</mgrwt>
</event>
<event>
 5   1  0.1388354E+00  0.9161249E+02  0.7818608E-02  0.1298993E+00
         -1   -1    0    0    0  501 -0.00000000000E+00  0.00000000000E+00  0.10197385123E+02  0.10197386193E+02  0.46700000000E-02 0.  1.
          1   -1    0    0  501    0  0.00000000000E+00 -0.00000000000E+00 -0.20575981029E+03  0.20575981035E+03  0.46700000000E-02 0. -1.
         23    2    1    2    0    0  0.00000000000E+00  0.00000000000E+00 -0.19556242517E+03  0.21595719654E+03  0.91612491499E+02 0.  0.
        -13    1    3    3    0    0 -0.32066452841E+02  0.27201567944E+01 -0.17462106374E+03  0.17756177439E+03  0.10570000000E+00 0.  1.
         13    1    3    3    0    0  0.32066452841E+02 -0.27201567944E+01 -0.20941361428E+02  0.38395422146E+02  0.10570000000E+00 0. -1.
<mgrwt>
<rscale>  0 0.91612491E+02</rscale>
<asrwt>0</asrwt>
<pdfrwt beam="2">  1        1 0.31655352E-01 0.91612491E+02</pdfrwt>
<pdfrwt beam="1">  1       -1 0.15688287E-02 0.91612491E+02</pdfrwt>
<totfact> 0.11754752E+05</totfact>
</mgrwt>
</event>
<event>
 5   1  0.1388354E+00  0.8577055E+02  0.7818608E-02  0.1313430E+00
         -1   -1    0    0    0  501 -0.00000000000E+00  0.00000000000E+00  0.27896235635E+02  0.27896236025E+02  0.46700000000E-02 0.  1.
          1   -1    0    0  501    0  0.00000000000E+00 -0.00000000000E+00 -0.65928135972E+02  0.65928136137E+02  0.46700000000E-02 0. -1.
         23    2    1    2    0    0  0.00000000000E+00  0.00000000000E+00 -0.38031900337E+02  0.93824372163E+02  0.85770550706E+02 0.  0.
        -13    1    3    3    0    0  0.12696276397E+02  0.14883051644E+02 -0.60762734016E+02  0.63834329935E+02  0.10570000000E+00 0. -1.
         13    1    3    3    0    0 -0.12696276397E+02 -0.14883051644E+02  0.22730833679E+02  0.29990042228E+02  0.10570000000E+00 0.  1.
<mgrwt>
<rscale>  0 0.85770551E+02</rscale>
<asrwt>0</asrwt>
<pdfrwt beam="2">  1        1 0.10142790E-01 0.85770551E+02</pdfrwt>
<pdfrwt beam="1">  1       -1 0.42917286E-02 0.85770551E+02</pdfrwt>
<totfact> 0.11565430E+05</totfact>
</mgrwt>
</event>
<event>
 5   1  0.1388354E+00  0.9064155E+02  0.7818608E-02  0.1301305E+00
         -1   -1    0    0    0  501 -0.00000000000E+00  0.00000000000E+00  0.81183235881E+02  0.81183236015E+02  0.46700000000E-02 0.  1.
          1   -1    0    0  501    0  0.00000000000E+00 -0.00000000000E+00 -0.25300452170E+02  0.25300452601E+02  0.46700000000E-02 0. -1.
         23    2    1    2    0    0  0.00000000000E+00  0.00000000000E+00  0.55882783711E+02  0.10648368862E+03  0.90641549115E+02 0.  0.
        -13    1    3    3    0    0  0.76475838533E+01 -0.44665658345E+02  0.27149082931E+02  0.52826039513E+02  0.10570000000E+00 0.  1.
         13    1    3    3    0    0 -0.76475838533E+01  0.44665658345E+02  0.28733700780E+02  0.53657649102E+02  0.10570000000E+00 0. -1.
<mgrwt>
<rscale>  0 0.90641549E+02</rscale>
<asrwt>0</asrwt>
<pdfrwt beam="2">  1        1 0.38923773E-02 0.90641549E+02</pdfrwt>
<pdfrwt beam="1">  1       -1 0.12489729E-01 0.90641549E+02</pdfrwt>
<totfact> 0.85722371E+04</totfact>
</mgrwt>
</event>
<event>
 5   1  0.1388354E+00  0.9231588E+02  0.7818608E-02  0.1297338E+00
         -1   -1    0    0    0  501 -0.00000000000E+00  0.00000000000E+00  0.72390904283E+02  0.72390904434E+02  0.46700000000E-02 0.  1.
          1   -1    0    0  501    0  0.00000000000E+00 -0.00000000000E+00 -0.29431256181E+02  0.29431256552E+02  0.46700000000E-02 0. -1.
         23    2    1    2    0    0  0.00000000000E+00  0.00000000000E+00  0.42959648102E+02  0.10182216099E+03  0.92315876765E+02 0.  0.
        -13    1    3    3    0    0  0.41354000898E+02 -0.23296548689E+01 -0.98850724314E+00  0.41431497694E+02  0.10570000000E+00 0. -1.
         13    1    3    3    0    0 -0.41354000898E+02  0.23296548689E+01  0.43948155345E+02  0.60390663292E+02  0.10570000000E+00 0.  1.
<mgrwt>
<rscale>  0 0.92315877E+02</rscale>
<asrwt>0</asrwt>
<pdfrwt beam="2">  1        1 0.45278856E-02 0.92315877E+02</pdfrwt>
<pdfrwt beam="1">  1       -1 0.11137062E-01 0.92315877E+02</pdfrwt>
<totfact> 0.83380701E+04</totfact>
</mgrwt>
</event>
<event>
 5   1  0.1388354E+00  0.9342213E+02  0.7818608E-02  0.1294770E+00
         -1   -1    0    0    0  501 -0.00000000000E+00  0.00000000000E+00  0.34190515001E+02  0.34190515320E+02  0.46700000000E-02 0.  1.
          1   -1    0    0  501    0  0.00000000000E+00 -0.00000000000E+00 -0.63816630226E+02  0.63816630397E+02  0.46700000000E-02 0. -1.
         23    2    1    2    0    0  0.00000000000E+00  0.00000000000E+00 -0.29626115225E+02  0.98007145717E+02  0.93422127509E+02 0.  0.
        -13    1    3    3    0    0 -0.11702244866E+02  0.44761991023E+02 -0.80683778442E+01  0.46964755602E+02  0.10570000000E+00 0.  1.
         13    1    3    3    0    0  0.11702244866E+02 -0.44761991023E+02 -0.21557737380E+02  0.51042390115E+02  0.10570000000E+00 0. -1.
<mgrwt>
<rscale>  0 0.93422128E+02</rscale>
<asrwt>0</asrwt>
<pdfrwt beam="2">  1        1 0.98179432E-02 0.93422128E+02</pdfrwt>
<pdfrwt beam="1">  1       -1 0.52600793E-02 0.93422128E+02</pdfrwt>
<totfact> 0.90928043E+04</totfact>
</mgrwt>
</event>
<event>
 5   1  0.1388354E+00  0.9093395E+02  0.7818608E-02  0.1300606E+00
         -1   -1    0    0    0  501 -0.00000000000E+00  0.00000000000E+00  0.13587751056E+02  0.13587751858E+02  0.46700000000E-02 0.  1.
          1   -1    0    0  501    0  0.00000000000E+00 -0.00000000000E+00 -0.15214038991E+03  0.15214038998E+03  0.46700000000E-02 0. -1.
         23    2    1    2    0    0  0.00000000000E+00  0.00000000000E+00 -0.13855263885E+03  0.16572814184E+03  0.90933950009E+02 0.  0.
        -13    1    3    3    0    0  0.50363629465E+01  0.40892656700E+02 -0.34235712323E+02  0.53569296192E+02  0.10570000000E+00 0.  1.
         13    1    3    3    0    0 -0.50363629465E+01 -0.40892656700E+02 -0.10431692653E+03  0.11215884565E+03  0.10570000000E+00 0. -1.
<mgrwt>
<rscale>  0 0.90933950E+02</rscale>
<asrwt>0</asrwt>
<pdfrwt beam="2">  1        1 0.23406213E-01 0.90933950E+02</pdfrwt>
<pdfrwt beam="1">  1       -1 0.20904234E-02 0.90933950E+02</pdfrwt>
<totfact> 0.11323734E+05</totfact>
</mgrwt>
</event>
<event>
 5   1  0.1388354E+00  0.9137785E+02  0.7818608E-02  0.1299549E+00
         -1   -1    0    0    0  501 -0.00000000000E+00  0.00000000000E+00  0.22461157588E+02  0.22461158074E+02  0.46700000000E-02 0.  1.
          1   -1    0    0  501    0  0.00000000000E+00 -0.00000000000E+00 -0.92937226262E+02  0.92937226379E+02  0.46700000000E-02 0. -1.
         23    2    1    2    0    0  0.00000000000E+00  0.00000000000E+00 -0.70476068674E+02  0.11539838445E+03  0.91377846761E+02 0.  0.
        -13    1    3    3    0    0 -0.20311585961E+02  0.40704510453E+02 -0.40603205688E+02  0.60975808155E+02  0.10570000000E+00 0.  1.
         13    1    3    3    0    0  0.20311585961E+02 -0.40704510453E+02 -0.29872862986E+02  0.54422576298E+02  0.10570000000E+00 0. -1.
<mgrwt>
<rscale>  0 0.91377847E+02</rscale>
<asrwt>0</asrwt>
<pdfrwt beam="2">  1        1 0.14298035E-01 0.91377847E+02</pdfrwt>
<pdfrwt beam="1">  1       -1 0.34555628E-02 0.91377847E+02</pdfrwt>
<totfact> 0.10257875E+05</totfact>
</mgrwt>
</event>
<event>
 5   1  0.1388354E+00  0.9115059E+02  0.7818608E-02  0.1300089E+00
          1   -1    0    0  501    0  0.00000000000E+00  0.00000000000E+00  0.44640912581E+02  0.44640912826E+02  0.46700000000E-02 0. -1.
         -1   -1    0    0    0  501 -0.00000000000E+00 -0.00000000000E+00 -0.46529232013E+02  0.46529232247E+02  0.46700000000E-02 0.  1.
         23    2    1    2    0    0  0.00000000000E+00  0.00000000000E+00 -0.18883194312E+01  0.91170145073E+02  0.91150587504E+02 0.  0.
        -13    1    3    3    0    0 -0.36524907987E+02 -0.15970532699E+02  0.21150609644E+02  0.45127444853E+02  0.10570000000E+00 0. -1.
         13    1    3    3    0    0  0.36524907987E+02  0.15970532699E+02 -0.23038929075E+02  0.46042700220E+02  0.10570000000E+00 0.  1.
<mgrwt>
<rscale>  0 0.91150588E+02</rscale>
<asrwt>0</asrwt>
<pdfrwt beam="1">  1        1 0.68678327E-02 0.91150588E+02</pdfrwt>
<pdfrwt beam="2">  1       -1 0.71583435E-02 0.91150588E+02</pdfrwt>
<totfact> 0.92255260E+04</totfact>
</mgrwt>
</event>
<event>
 5   1  0.1388354E+00  0.9030503E+02  0.7818608E-02  0.1302115E+00
          1   -1    0    0  501    0  0.00000000000E+00  0.00000000000E+00  0.75985243869E+02  0.75985244013E+02  0.46700000000E-02 0. -1.
         -1   -1    0    0    0  501 -0.00000000000E+00 -0.00000000000E+00 -0.26830863860E+02  0.26830864267E+02  0.46700000000E-02 0.  1.
         23    2    1    2    0    0  0.00000000000E+00  0.00000000000E+00  0.49154380009E+02  0.10281610828E+03  0.90305033347E+02 0.  0.
        -13    1    3    3    0    0  0.54206652315E+01 -0.25300817268E+02 -0.17552318802E+02  0.31266756048E+02  0.10570000000E+00 0.  1.
         13    1    3    3    0    0 -0.54206652315E+01  0.25300817268E+02  0.66706698811E+02  0.71549352231E+02  0.10570000000E+00 0. -1.
<mgrwt>
<rscale>  0 0.90305033E+02</rscale>
<asrwt>0</asrwt>
<pdfrwt beam="1">  1        1 0.11690038E-01 0.90305033E+02</pdfrwt>
<pdfrwt beam="2">  1       -1 0.41278252E-02 0.90305033E+02</pdfrwt>
<totfact> 0.10260426E+05</totfact>
</mgrwt>
</event>
<event>
 5   1  0.1388354E+00  0.8537660E+02  0.7818608E-02  0.1314451E+00
         -1   -1    0    0    0  501 -0.00000000000E+00  0.00000000000E+00  0.56643855865E+01  0.56643875116E+01  0.46700000000E-02 0.  1.
          1   -1    0    0  501    0  0.00000000000E+00 -0.00000000000E+00 -0.32171019402E+03  0.32171019405E+03  0.46700000000E-02 0. -1.
         23    2    1    2    0    0  0.00000000000E+00  0.00000000000E+00 -0.31604580843E+03  0.32737458156E+03  0.85376598824E+02 0.  0.
        -13    1    3    3    0    0  0.41636090601E+02  0.17209611554E+01 -0.19353148098E+03  0.19796709588E+03  0.10570000000E+00 0.  1.
         13    1    3    3    0    0 -0.41636090601E+02 -0.17209611554E+01 -0.12251432745E+03  0.12940748568E+03  0.10570000000E+00 0. -1.
<mgrwt>
<rscale>  0 0.85376599E+02</rscale>
<asrwt>0</asrwt>
<pdfrwt beam="2">  1        1 0.49493862E-01 0.85376599E+02</pdfrwt>
<pdfrwt beam="1">  1       -1 0.87144434E-03 0.85376599E+02</pdfrwt>
<totfact> 0.15453973E+05</totfact>
</mgrwt>
</event>
<event>
 5   1  0.1388354E+00  0.1006667E+03  0.7818608E-02  0.1278900E+00
         -1   -1    0    0    0  501 -0.00000000000E+00  0.00000000000E+00  0.85456391263E+01  0.85456404023E+01  0.46700000000E-02 0.  1.
          1   -1    0    0  501    0  0.00000000000E+00 -0.00000000000E+00 -0.29646064984E+03  0.29646064988E+03  0.46700000000E-02 0. -1.
         23    2    1    2    0    0  0.00000000000E+00  0.00000000000E+00 -0.28791501071E+03  0.30500629028E+03  0.10066669616E+03 0.  0.
        -13    1    3    3    0    0  0.45820374570E+02 -0.12742909412E+02 -0.94029419346E+02  0.10537282069E+03  0.10570000000E+00 0.  1.
         13    1    3    3    0    0 -0.45820374570E+02  0.12742909412E+02 -0.19388559137E+03  0.19963346958E+03  0.10570000000E+00 0. -1.
<mgrwt>
<rscale>  0 0.10066670E+03</rscale>
<asrwt>0</asrwt>
<pdfrwt beam="2">  1        1 0.45609323E-01 0.10066670E+03</pdfrwt>
<pdfrwt beam="1">  1       -1 0.13147140E-02 0.10066670E+03</pdfrwt>
<totfact> 0.98040491E+04</totfact>
</mgrwt>
</event>
<event>
 5   1  0.1388354E+00  0.9349256E+02  0.7818608E-02  0.1294608E+00
          1   -1    0    0  501    0  0.00000000000E+00  0.00000000000E+00  0.63298803391E+02  0.63298803564E+02  0.46700000000E-02 0. -1.
         -1   -1    0    0    0  501 -0.00000000000E+00 -0.00000000000E+00 -0.34522208848E+02  0.34522209164E+02  0.46700000000E-02 0.  1.
         23    2    1    2    0    0  0.00000000000E+00  0.00000000000E+00  0.28776594544E+02  0.97821012727E+02  0.93492556589E+02 0.  0.
        -13    1    3    3    0    0  0.14245225032E+02  0.92765543779E+01 -0.31173386191E+02  0.35507352428E+02  0.10570000000E+00 0.  1.
         13    1    3    3    0    0 -0.14245225032E+02 -0.92765543779E+01  0.59949980735E+02  0.62313660299E+02  0.10570000000E+00 0. -1.
<mgrwt>
<rscale>  0 0.93492557E+02</rscale>
<asrwt>0</asrwt>
<pdfrwt beam="1">  1        1 0.97382776E-02 0.93492557E+02</pdfrwt>
<pdfrwt beam="2">  1       -1 0.53111091E-02 0.93492557E+02</pdfrwt>
<totfact> 0.90623285E+04</totfact>
</mgrwt>
</event>
<event>
 5   1  0.1388354E+00  0.8813729E+02  0.7818608E-02  0.1307426E+00
         -1   -1    0    0    0  501 -0.00000000000E+00  0.00000000000E+00  0.19449813647E+03  0.19449813652E+03  0.46700000000E-02 0.  1.
          1   -1    0    0  501    0  0.00000000000E+00 -0.00000000000E+00 -0.99849057799E+01  0.99849068720E+01  0.46700000000E-02 0. -1.
         23    2    1    2    0    0  0.00000000000E+00  0.00000000000E+00  0.18451323069E+03  0.20448304339E+03  0.88137294816E+02 0.  0.
        -13    1    3    3    0    0 -0.34851779643E+02 -0.60953229029E+01  0.31303476588E+02  0.47241066082E+02  0.10570000000E+00 0. -1.
         13    1    3    3    0    0  0.34851779643E+02  0.60953229029E+01  0.15320975410E+03  0.15724197731E+03  0.10570000000E+00 0.  1.
<mgrwt>
<rscale>  0 0.88137295E+02</rscale>
<asrwt>0</asrwt>
<pdfrwt beam="2">  1        1 0.15361397E-02 0.88137295E+02</pdfrwt>
<pdfrwt beam="1">  1       -1 0.29922785E-01 0.88137295E+02</pdfrwt>
<totfact> 0.76424175E+04</totfact>
</mgrwt>
</event>
<event>
 5   1  0.1388354E+00  0.8804009E+02  0.7818608E-02  0.1307669E+00
          1   -1    0    0  501    0  0.00000000000E+00  0.00000000000E+00  0.19944777239E+03  0.19944777244E+03  0.46700000000E-02 0. -1.
         -1   -1    0    0    0  501 -0.00000000000E+00 -0.00000000000E+00 -0.97156482890E+01  0.97156494114E+01  0.46700000000E-02 0.  1.
         23    2    1    2    0    0  0.00000000000E+00  0.00000000000E+00  0.18973212410E+03  0.20916342185E+03  0.88040093858E+02 0.  0.
        -13    1    3    3    0    0 -0.37341970132E+02 -0.21197185904E+01  0.39717509934E+02  0.54556463486E+02  0.10570000000E+00 0.  1.
         13    1    3    3    0    0  0.37341970132E+02  0.21197185904E+01  0.15001461416E+03  0.15460695837E+03  0.10570000000E+00 0. -1.
<mgrwt>
<rscale>  0 0.88040094E+02</rscale>
<asrwt>0</asrwt>
<pdfrwt beam="1">  1        1 0.30684272E-01 0.88040094E+02</pdfrwt>
<pdfrwt beam="2">  1       -1 0.14947152E-02 0.88040094E+02</pdfrwt>
<totfact> 0.12996093E+05</totfact>
</mgrwt>
</event>
<event>
 5   1  0.1388354E+00  0.9101629E+02  0.7818608E-02  0.1300409E+00
          1   -1    0    0  501    0  0.00000000000E+00  0.00000000000E+00  0.13021288240E+02  0.13021289078E+02  0.46700000000E-02 0. -1.
         -1   -1    0    0    0  501 -0.00000000000E+00 -0.00000000000E+00 -0.15904657186E+03  0.15904657193E+03  0.46700000000E-02 0.  1.
         23    2    1    2    0    0  0.00000000000E+00  0.00000000000E+00 -0.14602528362E+03  0.17206786101E+03  0.91016291593E+02 0.  0.
        -13    1    3    3    0    0 -0.99538383474E+00  0.24721717629E+02 -0.80513025432E+00  0.24755070566E+02  0.10570000000E+00 0. -1.
         13    1    3    3    0    0  0.99538383474E+00 -0.24721717629E+02 -0.14522015337E+03  0.14731279045E+03  0.10570000000E+00 0.  1.
<mgrwt>
<rscale>  0 0.91016292E+02</rscale>
<asrwt>0</asrwt>
<pdfrwt beam="1">  1        1 0.20032753E-02 0.91016292E+02</pdfrwt>
<pdfrwt beam="2">  1       -1 0.24468702E-01 0.91016292E+02</pdfrwt>
<totfact> 0.74089304E+04</totfact>
</mgrwt>
</event>
<event>
 5   1  0.1388354E+00  0.8983941E+02  0.7818608E-02  0.1303241E+00
          1   -1    0    0  501    0  0.00000000000E+00  0.00000000000E+00  0.12034433217E+02  0.12034434123E+02  0.46700000000E-02 0.  1.
         -1   -1    0    0    0  501 -0.00000000000E+00 -0.00000000000E+00 -0.16766721082E+03  0.16766721089E+03  0.46700000000E-02 0. -1.
         23    2    1    2    0    0  0.00000000000E+00  0.00000000000E+00 -0.15563277761E+03  0.17970164501E+03  0.89839410919E+02 0.  0.
        -13    1    3    3    0    0 -0.38323251882E+02  0.50994422870E+01 -0.32068133463E+02  0.50229994055E+02  0.10570000000E+00 0.  1.
         13    1    3    3    0    0  0.38323251882E+02 -0.50994422870E+01 -0.12356464414E+03  0.12947165096E+03  0.10570000000E+00 0. -1.
<mgrwt>
<rscale>  0 0.89839411E+02</rscale>
<asrwt>0</asrwt>
<pdfrwt beam="1">  1        1 0.18514515E-02 0.89839411E+02</pdfrwt>
<pdfrwt beam="2">  1       -1 0.25794954E-01 0.89839411E+02</pdfrwt>
<totfact> 0.75640086E+04</totfact>
</mgrwt>
</event>
<event>
 5   1  0.1388354E+00  0.9503004E+02  0.7818608E-02  0.1291108E+00
          1   -1    0    0  501    0  0.00000000000E+00  0.00000000000E+00  0.15865400369E+03  0.15865400376E+03  0.46700000000E-02 0. -1.
         -1   -1    0    0    0  501 -0.00000000000E+00 -0.00000000000E+00 -0.14230193365E+02  0.14230194132E+02  0.46700000000E-02 0.  1.
         23    2    1    2    0    0  0.00000000000E+00  0.00000000000E+00  0.14442381032E+03  0.17288419789E+03  0.95030042046E+02 0.  0.
        -13    1    3    3    0    0 -0.27760099503E+02  0.79935653214E+01  0.35811019487E+01  0.29109374343E+02  0.10570000000E+00 0.  1.
         13    1    3    3    0    0  0.27760099503E+02 -0.79935653214E+01  0.14084270837E+03  0.14377482354E+03  0.10570000000E+00 0. -1.
<mgrwt>
<rscale>  0 0.95030042E+02</rscale>
<asrwt>0</asrwt>
<pdfrwt beam="1">  1        1 0.24408307E-01 0.95030042E+02</pdfrwt>
<pdfrwt beam="2">  1       -1 0.21892607E-02 0.95030042E+02</pdfrwt>
<totfact> 0.10130883E+05</totfact>
</mgrwt>
</event>
<event>
 5   1  0.1388354E+00  0.9307911E+02  0.7818608E-02  0.1295562E+00
         -1   -1    0    0    0  501 -0.00000000000E+00  0.00000000000E+00  0.59494912195E+02  0.59494912378E+02  0.46700000000E-02 0.  1.
          1   -1    0    0  501    0  0.00000000000E+00 -0.00000000000E+00 -0.36405298336E+02  0.36405298636E+02  0.46700000000E-02 0. -1.
         23    2    1    2    0    0  0.00000000000E+00  0.00000000000E+00  0.23089613858E+02  0.95900211014E+02  0.93079107239E+02 0.  0.
        -13    1    3    3    0    0  0.22664103287E+02 -0.26565469282E+02 -0.20153441609E+02  0.40318210738E+02  0.10570000000E+00 0. -1.
         13    1    3    3    0    0 -0.22664103287E+02  0.26565469282E+02  0.43243055467E+02  0.55582000275E+02  0.10570000000E+00 0.  1.
<mgrwt>
<rscale>  0 0.93079107E+02</rscale>
<asrwt>0</asrwt>
<pdfrwt beam="2">  1        1 0.56008151E-02 0.93079107E+02</pdfrwt>
<pdfrwt beam="1">  1       -1 0.91530635E-02 0.93079107E+02</pdfrwt>
<totfact> 0.84264879E+04</totfact>
</mgrwt>
</event>
<event>
 5   1  0.1388354E+00  0.9078305E+02  0.7818608E-02  0.1300966E+00
         -1   -1    0    0    0  501 -0.00000000000E+00  0.00000000000E+00  0.30758052494E+02  0.30758052848E+02  0.46700000000E-02 0.  1.
          1   -1    0    0  501    0  0.00000000000E+00 -0.00000000000E+00 -0.66987026104E+02  0.66987026267E+02  0.46700000000E-02 0. -1.
         23    2    1    2    0    0  0.00000000000E+00  0.00000000000E+00 -0.36228973610E+02  0.97745079115E+02  0.90783048871E+02 0.  0.
        -13    1    3    3    0    0  0.22244765124E+02  0.28246546516E+02 -0.47946386974E+02  0.59929660118E+02  0.10570000000E+00 0. -1.
         13    1    3    3    0    0 -0.22244765124E+02 -0.28246546516E+02  0.11717413364E+02  0.37815418997E+02  0.10570000000E+00 0.  1.
<mgrwt>
<rscale>  0 0.90783049E+02</rscale>
<asrwt>0</asrwt>
<pdfrwt beam="2">  1        1 0.10305696E-01 0.90783049E+02</pdfrwt>
<pdfrwt beam="1">  1       -1 0.47320081E-02 0.90783049E+02</pdfrwt>
<totfact> 0.99179480E+04</totfact>
</mgrwt>
</event>
<event>
 5   1  0.1388354E+00  0.9003988E+02  0.7818608E-02  0.1302755E+00
          1   -1    0    0  501    0  0.00000000000E+00  0.00000000000E+00  0.12674472415E+03  0.12674472424E+03  0.46700000000E-02 0. -1.
         -1   -1    0    0    0  501 -0.00000000000E+00 -0.00000000000E+00 -0.15991159364E+02  0.15991160046E+02  0.46700000000E-02 0.  1.
         23    2    1    2    0    0  0.00000000000E+00  0.00000000000E+00  0.11075356479E+03  0.14273588428E+03  0.90039883104E+02 0.  0.
        -13    1    3    3    0    0  0.13363077749E+02 -0.41627921789E+02  0.38352606807E+02  0.58158312740E+02  0.10570000000E+00 0.  1.
         13    1    3    3    0    0 -0.13363077749E+02  0.41627921789E+02  0.72400957981E+02  0.84577571545E+02  0.10570000000E+00 0. -1.
<mgrwt>
<rscale>  0 0.90039883E+02</rscale>
<asrwt>0</asrwt>
<pdfrwt beam="1">  1        1 0.19499188E-01 0.90039883E+02</pdfrwt>
<pdfrwt beam="2">  1       -1 0.24601784E-02 0.90039883E+02</pdfrwt>
<totfact> 0.11253184E+05</totfact>
</mgrwt>
</event>
<event>
 5   1  0.1388354E+00  0.9200242E+02  0.7818608E-02  0.1298074E+00
         -1   -1    0    0    0  501 -0.00000000000E+00  0.00000000000E+00  0.88870710782E+01  0.88870723052E+01  0.46700000000E-02 0.  1.
          1   -1    0    0  501    0  0.00000000000E+00 -0.00000000000E+00 -0.23811119144E+03  0.23811119149E+03  0.46700000000E-02 0. -1.
         23    2    1    2    0    0  0.00000000000E+00  0.00000000000E+00 -0.22922412036E+03  0.24699826379E+03  0.92002418230E+02 0.  0.
        -13    1    3    3    0    0  0.23145680507E+02 -0.37869870175E+02 -0.82144975067E+02  0.93368397729E+02  0.10570000000E+00 0.  1.
         13    1    3    3    0    0 -0.23145680507E+02  0.37869870175E+02 -0.14707914529E+03  0.15362986606E+03  0.10570000000E+00 0. -1.
<mgrwt>
<rscale>  0 0.92002418E+02</rscale>
<asrwt>0</asrwt>
<pdfrwt beam="2">  1        1 0.36632486E-01 0.92002418E+02</pdfrwt>
<pdfrwt beam="1">  1       -1 0.13672420E-02 0.92002418E+02</pdfrwt>
<totfact> 0.11958050E+05</totfact>
</mgrwt>
</event>
<event>
 5   1  0.1388354E+00  0.9081808E+02  0.7818608E-02  0.1300883E+00
          1   -1    0    0  501    0  0.00000000000E+00  0.00000000000E+00  0.18856769690E+03  0.18856769696E+03  0.46700000000E-02 0. -1.
         -1   -1    0    0    0  501 -0.00000000000E+00 -0.00000000000E+00 -0.10934963735E+02  0.10934964732E+02  0.46700000000E-02 0.  1.
         23    2    1    2    0    0  0.00000000000E+00  0.00000000000E+00  0.17763273317E+03  0.19950266169E+03  0.90818082614E+02 0.  0.
        -13    1    3    3    0    0 -0.29571021197E+02  0.44324068440E+01  0.13744853964E+02  0.32909325549E+02  0.10570000000E+00 0.  1.
         13    1    3    3    0    0  0.29571021197E+02 -0.44324068440E+01  0.16388787920E+03  0.16659333614E+03  0.10570000000E+00 0. -1.
<mgrwt>
<rscale>  0 0.90818083E+02</rscale>
<asrwt>0</asrwt>
<pdfrwt beam="1">  1        1 0.29010416E-01 0.90818083E+02</pdfrwt>
<pdfrwt beam="2">  1       -1 0.16823021E-02 0.90818083E+02</pdfrwt>
<totfact> 0.11831167E+05</totfact>
</mgrwt>
</event>
<event>
 5   1  0.1388354E+00  0.9098717E+02  0.7818608E-02  0.1300479E+00
          1   -1    0    0  501    0  0.00000000000E+00  0.00000000000E+00  0.35089381767E+02  0.35089382078E+02  0.46700000000E-02 0. -1.
         -1   -1    0    0    0  501 -0.00000000000E+00 -0.00000000000E+00 -0.58982692492E+02  0.58982692676E+02  0.46700000000E-02 0.  1.
         23    2    1    2    0    0  0.00000000000E+00  0.00000000000E+00 -0.23893310725E+02  0.94072074754E+02  0.90987169157E+02 0.  0.
        -13    1    3    3    0    0 -0.41452944201E+02  0.18598701421E+02 -0.14348518413E+02  0.47646085155E+02  0.10570000000E+00 0.  1.
         13    1    3    3    0    0  0.41452944201E+02 -0.18598701421E+02 -0.95447923120E+01  0.46425989599E+02  0.10570000000E+00 0. -1.
<mgrwt>
<rscale>  0 0.90987169E+02</rscale>
<asrwt>0</asrwt>
<pdfrwt beam="1">  1        1 0.53983665E-02 0.90987169E+02</pdfrwt>
<pdfrwt beam="2">  1       -1 0.90742604E-02 0.90987169E+02</pdfrwt>
<totfact> 0.89387336E+04</totfact>
</mgrwt>
</event>
<event>
 5   1  0.1388354E+00  0.8999720E+02  0.7818608E-02  0.1302858E+00
         -1   -1    0    0    0  501 -0.00000000000E+00  0.00000000000E+00  0.14464567099E+03  0.14464567107E+03  0.46700000000E-02 0.  1.
          1   -1    0    0  501    0  0.00000000000E+00 -0.00000000000E+00 -0.13998857419E+02  0.13998858198E+02  0.46700000000E-02 0. -1.
         23    2    1    2    0    0  0.00000000000E+00  0.00000000000E+00  0.13064681357E+03  0.15864452926E+03  0.89997204228E+02 0.  0.
        -13    1    3    3    0    0  0.41070737536E+02  0.15888584519E+02  0.81633610885E+02  0.92754030632E+02  0.10570000000E+00 0. -1.
         13    1    3    3    0    0 -0.41070737536E+02 -0.15888584519E+02  0.49013202686E+02  0.65890498631E+02  0.10570000000E+00 0.  1.
<mgrwt>
<rscale>  0 0.89997204E+02</rscale>
<asrwt>0</asrwt>
<pdfrwt beam="2">  1        1 0.21536703E-02 0.89997204E+02</pdfrwt>
<pdfrwt beam="1">  1       -1 0.22253182E-01 0.89997204E+02</pdfrwt>
<totfact> 0.78008828E+04</totfact>
</mgrwt>
</event>
<event>
 5   1  0.1388354E+00  0.8821564E+02  0.7818608E-02  0.1307231E+00
         -1   -1    0    0    0  501 -0.00000000000E+00  0.00000000000E+00  0.21658505720E+02  0.21658506224E+02  0.46700000000E-02 0. -1.
          1   -1    0    0  501    0  0.00000000000E+00 -0.00000000000E+00 -0.89826121813E+02  0.89826121934E+02  0.46700000000E-02 0.  1.
         23    2    1    2    0    0  0.00000000000E+00  0.00000000000E+00 -0.68167616093E+02  0.11148462816E+03  0.88215635982E+02 0.  0.
        -13    1    3    3    0    0 -0.42592872514E+02 -0.67197361681E+01 -0.45815878474E+02  0.62915924343E+02  0.10570000000E+00 0.  1.
         13    1    3    3    0    0  0.42592872514E+02  0.67197361681E+01 -0.22351737619E+02  0.48568703815E+02  0.10570000000E+00 0. -1.
<mgrwt>
<rscale>  0 0.88215636E+02</rscale>
<asrwt>0</asrwt>
<pdfrwt beam="2">  1        1 0.13819403E-01 0.88215636E+02</pdfrwt>
<pdfrwt beam="1">  1       -1 0.33320779E-02 0.88215636E+02</pdfrwt>
<totfact> 0.11229543E+05</totfact>
</mgrwt>
</event>
<event>
 5   1  0.1388354E+00  0.9126274E+02  0.7818608E-02  0.1299822E+00
         -1   -1    0    0    0  501 -0.00000000000E+00  0.00000000000E+00  0.31742431388E+02  0.31742431732E+02  0.46700000000E-02 0.  1.
          1   -1    0    0  501    0  0.00000000000E+00 -0.00000000000E+00 -0.65597434725E+02  0.65597434891E+02  0.46700000000E-02 0. -1.
         23    2    1    2    0    0  0.00000000000E+00  0.00000000000E+00 -0.33855003337E+02  0.97339866623E+02  0.91262743676E+02 0.  0.
        -13    1    3    3    0    0 -0.16010421626E+02 -0.13117558186E+01 -0.62481687334E+02  0.64513771620E+02  0.10570000000E+00 0. -1.
         13    1    3    3    0    0  0.16010421626E+02  0.13117558186E+01  0.28626683997E+02  0.32826095003E+02  0.10570000000E+00 0.  1.
<mgrwt>
<rscale>  0 0.91262744E+02</rscale>
<asrwt>0</asrwt>
<pdfrwt beam="2">  1        1 0.10091913E-01 0.91262744E+02</pdfrwt>
<pdfrwt beam="1">  1       -1 0.48834511E-02 0.91262744E+02</pdfrwt>
<totfact> 0.97433127E+04</totfact>
</mgrwt>
</event>
<event>
 5   1  0.1388354E+00  0.8232881E+02  0.7818608E-02  0.1322570E+00
          1   -1    0    0  501    0  0.00000000000E+00  0.00000000000E+00  0.31969497562E+03  0.31969497565E+03  0.46700000000E-02 0. -1.
         -1   -1    0    0    0  501 -0.00000000000E+00 -0.00000000000E+00 -0.53003894763E+01  0.53003915336E+01  0.46700000000E-02 0.  1.
         23    2    1    2    0    0  0.00000000000E+00  0.00000000000E+00  0.31439458614E+03  0.32499536718E+03  0.82328809641E+02 0.  0.
        -13    1    3    3    0    0 -0.35059243406E+02 -0.21318010381E+02  0.17022350310E+03  0.17509900141E+03  0.10570000000E+00 0.  1.
         13    1    3    3    0    0  0.35059243406E+02  0.21318010381E+02  0.14417108304E+03  0.14989636578E+03  0.10570000000E+00 0. -1.
<mgrwt>
<rscale>  0 0.82328810E+02</rscale>
<asrwt>0</asrwt>
<pdfrwt beam="1">  1        1 0.49183833E-01 0.82328810E+02</pdfrwt>
<pdfrwt beam="2">  1       -1 0.81544486E-03 0.82328810E+02</pdfrwt>
<totfact> 0.16990039E+05</totfact>
</mgrwt>
</event>
<event>
 5   1  0.1388354E+00  0.9279823E+02  0.7818608E-02  0.1296213E+00
         -1   -1    0    0    0  501 -0.00000000000E+00  0.00000000000E+00  0.96471779774E+01  0.96471791077E+01  0.46700000000E-02 0.  1.
          1   -1    0    0  501    0  0.00000000000E+00 -0.00000000000E+00 -0.22316141999E+03  0.22316142004E+03  0.46700000000E-02 0. -1.
         23    2    1    2    0    0  0.00000000000E+00  0.00000000000E+00 -0.21351424201E+03  0.23280859914E+03  0.92798234327E+02 0.  0.
        -13    1    3    3    0    0  0.25630153887E+02 -0.29479434714E+02 -0.43941578715E+02  0.58794688296E+02  0.10570000000E+00 0.  1.
         13    1    3    3    0    0 -0.25630153887E+02  0.29479434714E+02 -0.16957266329E+03  0.17401391085E+03  0.10570000000E+00 0. -1.
<mgrwt>
<rscale>  0 0.92798234E+02</rscale>
<asrwt>0</asrwt>
<pdfrwt beam="2">  1        1 0.34332522E-01 0.92798234E+02</pdfrwt>
<pdfrwt beam="1">  1       -1 0.14841815E-02 0.92798234E+02</pdfrwt>
<totfact> 0.11537610E+05</totfact>
</mgrwt>
</event>
<event>
 5   1  0.1388354E+00  0.8994037E+02  0.7818608E-02  0.1302996E+00
         -1   -1    0    0    0  501 -0.00000000000E+00  0.00000000000E+00  0.20078062028E+02  0.20078062571E+02  0.46700000000E-02 0.  1.
          1   -1    0    0  501    0  0.00000000000E+00 -0.00000000000E+00 -0.10072273859E+03  0.10072273870E+03  0.46700000000E-02 0. -1.
         23    2    1    2    0    0  0.00000000000E+00  0.00000000000E+00 -0.80644676561E+02  0.12080080127E+03  0.89940367630E+02 0.  0.
        -13    1    3    3    0    0 -0.10377954980E+02  0.16701777467E+02 -0.94642493383E+02  0.96663664561E+02  0.10570000000E+00 0. -1.
         13    1    3    3    0    0  0.10377954980E+02 -0.16701777467E+02  0.13997816823E+02  0.24137136707E+02  0.10570000000E+00 0.  1.
<mgrwt>
<rscale>  0 0.89940368E+02</rscale>
<asrwt>0</asrwt>
<pdfrwt beam="2">  1        1 0.15495806E-01 0.89940368E+02</pdfrwt>
<pdfrwt beam="1">  1       -1 0.30889327E-02 0.89940368E+02</pdfrwt>
<totfact> 0.10853552E+05</totfact>
</mgrwt>
</event>
<event>
 5   1  0.1388354E+00  0.9201098E+02  0.7818608E-02  0.1298054E+00
         -1   -1    0    0    0  501 -0.00000000000E+00  0.00000000000E+00  0.23162383348E+02  0.23162383819E+02  0.46700000000E-02 0.  1.
          1   -1    0    0  501    0  0.00000000000E+00 -0.00000000000E+00 -0.91376821136E+02  0.91376821255E+02  0.46700000000E-02 0. -1.
         23    2    1    2    0    0  0.00000000000E+00  0.00000000000E+00 -0.68214437788E+02  0.11453920507E+03  0.92010977477E+02 0.  0.
        -13    1    3    3    0    0 -0.15628986956E+02 -0.26055735029E+02  0.88953401805E+01  0.31659197883E+02  0.10570000000E+00 0.  1.
         13    1    3    3    0    0  0.15628986956E+02  0.26055735029E+02 -0.77109777969E+02  0.82880007191E+02  0.10570000000E+00 0. -1.
<mgrwt>
<rscale>  0 0.92010977E+02</rscale>
<asrwt>0</asrwt>
<pdfrwt beam="2">  1        1 0.14057972E-01 0.92010977E+02</pdfrwt>
<pdfrwt beam="1">  1       -1 0.35634437E-02 0.92010977E+02</pdfrwt>
<totfact> 0.10037988E+05</totfact>
</mgrwt>
</event>
<event>
 5   1  0.1388354E+00  0.8966959E+02  0.7818608E-02  0.1303654E+00
          1   -1    0    0  501    0  0.00000000000E+00  0.00000000000E+00  0.25629533644E+02  0.25629534070E+02  0.46700000000E-02 0. -1.
         -1   -1    0    0    0  501 -0.00000000000E+00 -0.00000000000E+00 -0.78431352540E+02  0.78431352679E+02  0.46700000000E-02 0.  1.
         23    2    1    2    0    0  0.00000000000E+00  0.00000000000E+00 -0.52801818896E+02  0.10406088675E+03  0.89669593912E+02 0.  0.
        -13    1    3    3    0    0 -0.53956580423E+01 -0.21202074441E+02 -0.71816166680E+02  0.75074723146E+02  0.10570000000E+00 0.  1.
         13    1    3    3    0    0  0.53956580423E+01  0.21202074441E+02  0.19014347784E+02  0.28986163603E+02  0.10570000000E+00 0. -1.
<mgrwt>
<rscale>  0 0.89669594E+02</rscale>
<asrwt>0</asrwt>
<pdfrwt beam="1">  1        1 0.39430053E-02 0.89669594E+02</pdfrwt>
<pdfrwt beam="2">  1       -1 0.12066362E-01 0.89669594E+02</pdfrwt>
<totfact> 0.88629921E+04</totfact>
</mgrwt>
</event>
<event>
 4   1  0.1388354E+00  0.1536464E+03  0.7818608E-02  0.1196063E+00
         -1   -1    0    0    0  501 -0.00000000000E+00  0.00000000000E+00  0.14723287924E+02  0.14723288665E+02  0.46700000000E-02 0.  1.
          1   -1    0    0  501    0  0.00000000000E+00 -0.00000000000E+00 -0.40084843755E+03  0.40084843758E+03  0.46700000000E-02 0. -1.
        -13    1    1    2    0    0 -0.52465779025E+02  0.52410247737E+02 -0.13881246548E+03  0.15737980742E+03  0.10570000000E+00 0.  1.
         13    1    1    2    0    0  0.52465779025E+02 -0.52410247737E+02 -0.24731268414E+03  0.25819191883E+03  0.10570000000E+00 0. -1.
<mgrwt>
<rscale>  0 0.15364644E+03</rscale>
<asrwt>0</asrwt>
<pdfrwt beam="2">  1        1 0.61668982E-01 0.15364644E+03</pdfrwt>
<pdfrwt beam="1">  1       -1 0.22651216E-02 0.15364644E+03</pdfrwt>
<totfact> 0.32506853E+04</totfact>
</mgrwt>
</event>
<event>
 5   1  0.1388354E+00  0.9158518E+02  0.7818608E-02  0.1299058E+00
          1   -1    0    0  501    0  0.00000000000E+00  0.00000000000E+00  0.35280090465E+02  0.35280090774E+02  0.46700000000E-02 0. -1.
         -1   -1    0    0    0  501 -0.00000000000E+00 -0.00000000000E+00 -0.59437522367E+02  0.59437522550E+02  0.46700000000E-02 0.  1.
         23    2    1    2    0    0  0.00000000000E+00  0.00000000000E+00 -0.24157431902E+02  0.94717613324E+02  0.91585177609E+02 0.  0.
        -13    1    3    3    0    0 -0.91854124961E+01  0.51736904026E+01 -0.58165300693E+02  0.59113046380E+02  0.10570000000E+00 0.  1.
         13    1    3    3    0    0  0.91854124961E+01 -0.51736904026E+01  0.34007868791E+02  0.35604566944E+02  0.10570000000E+00 0. -1.
<mgrwt>
<rscale>  0 0.91585178E+02</rscale>
<asrwt>0</asrwt>
<pdfrwt beam="1">  1        1 0.54277063E-02 0.91585178E+02</pdfrwt>
<pdfrwt beam="2">  1       -1 0.91442342E-02 0.91585178E+02</pdfrwt>
<totfact> 0.87809383E+04</totfact>
</mgrwt>
</event>
<event>
 5   1  0.1388354E+00  0.9036018E+02  0.7818608E-02  0.1301982E+00
         -1   -1    0    0    0  501 -0.00000000000E+00  0.00000000000E+00  0.28136507611E+03  0.28136507615E+03  0.46700000000E-02 0.  1.
          1   -1    0    0  501    0  0.00000000000E+00 -0.00000000000E+00 -0.72547747934E+01  0.72547762964E+01  0.46700000000E-02 0. -1.
         23    2    1    2    0    0  0.00000000000E+00  0.00000000000E+00  0.27411030132E+03  0.28861985245E+03  0.90360178938E+02 0.  0.
        -13    1    3    3    0    0 -0.16064996395E+01 -0.38207146052E+02  0.21390390133E+03  0.21729532214E+03  0.10570000000E+00 0.  1.
         13    1    3    3    0    0  0.16064996395E+01  0.38207146052E+02  0.60206399994E+02  0.71324530305E+02  0.10570000000E+00 0. -1.
<mgrwt>
<rscale>  0 0.90360179E+02</rscale>
<asrwt>0</asrwt>
<pdfrwt beam="2">  1        1 0.11161193E-02 0.90360179E+02</pdfrwt>
<pdfrwt beam="1">  1       -1 0.43286937E-01 0.90360179E+02</pdfrwt>
<totfact> 0.63571565E+04</totfact>
</mgrwt>
</event>
<event>
 5   1  0.1388354E+00  0.9184226E+02  0.7818608E-02  0.1298451E+00
          1   -1    0    0  501    0  0.00000000000E+00  0.00000000000E+00  0.46067280672E+03  0.46067280674E+03  0.46700000000E-02 0. -1.
         -1   -1    0    0    0  501 -0.00000000000E+00 -0.00000000000E+00 -0.45775427741E+01  0.45775451563E+01  0.46700000000E-02 0.  1.
         23    2    1    2    0    0  0.00000000000E+00  0.00000000000E+00  0.45609526394E+03  0.46525035190E+03  0.91842256882E+02 0.  0.
        -13    1    3    3    0    0 -0.42324819201E+02  0.17801163263E+02  0.22458534186E+03  0.22923101598E+03  0.10570000000E+00 0.  1.
         13    1    3    3    0    0  0.42324819201E+02 -0.17801163263E+02  0.23150992208E+03  0.23601933592E+03  0.10570000000E+00 0. -1.
<mgrwt>
<rscale>  0 0.91842257E+02</rscale>
<asrwt>0</asrwt>
<pdfrwt beam="1">  1        1 0.70872733E-01 0.91842257E+02</pdfrwt>
<pdfrwt beam="2">  1       -1 0.70423760E-03 0.91842257E+02</pdfrwt>
<totfact> 0.13517593E+05</totfact>
</mgrwt>
</event>
<event>
 5   1  0.1388354E+00  0.9547268E+02  0.7818608E-02  0.1290115E+00
          1   -1    0    0  501    0  0.00000000000E+00  0.00000000000E+00  0.25049359787E+03  0.25049359791E+03  0.46700000000E-02 0. -1.
         -1   -1    0    0    0  501 -0.00000000000E+00 -0.00000000000E+00 -0.90970703177E+01  0.90970715163E+01  0.46700000000E-02 0.  1.
         23    2    1    2    0    0  0.00000000000E+00  0.00000000000E+00  0.24139652755E+03  0.25959066943E+03  0.95472677456E+02 0.  0.
        -13    1    3    3    0    0 -0.28168158228E+02  0.37128793987E+02  0.92604958967E+02  0.10367102815E+03  0.10570000000E+00 0.  1.
         13    1    3    3    0    0  0.28168158228E+02 -0.37128793987E+02  0.14879156858E+03  0.15591964127E+03  0.10570000000E+00 0. -1.
<mgrwt>
<rscale>  0 0.95472677E+02</rscale>
<asrwt>0</asrwt>
<pdfrwt beam="1">  1        1 0.38537478E-01 0.95472677E+02</pdfrwt>
<pdfrwt beam="2">  1       -1 0.13995493E-02 0.95472677E+02</pdfrwt>
<totfact> 0.10935877E+05</totfact>
</mgrwt>
</event>
<event>
 5   1  0.1388354E+00  0.9079483E+02  0.7818608E-02  0.1300938E+00
         -1   -1    0    0    0  501 -0.00000000000E+00  0.00000000000E+00  0.23913919707E+03  0.23913919712E+03  0.46700000000E-02 0.  1.
          1   -1    0    0  501    0  0.00000000000E+00 -0.00000000000E+00 -0.86180978838E+01  0.86180991491E+01  0.46700000000E-02 0. -1.
         23    2    1    2    0    0  0.00000000000E+00  0.00000000000E+00  0.23052109919E+03  0.24775729627E+03  0.90794827399E+02 0.  0.
        -13    1    3    3    0    0 -0.16870560554E+02  0.42071149099E+02  0.12211869946E+03  0.13025968420E+03  0.10570000000E+00 0.  1.
         13    1    3    3    0    0  0.16870560554E+02 -0.42071149099E+02  0.10840239973E+03  0.11749761206E+03  0.10570000000E+00 0. -1.
<mgrwt>
<rscale>  0 0.90794827E+02</rscale>
<asrwt>0</asrwt>
<pdfrwt beam="2">  1        1 0.13258612E-02 0.90794827E+02</pdfrwt>
<pdfrwt beam="1">  1       -1 0.36790648E-01 0.90794827E+02</pdfrwt>
<totfact> 0.66454110E+04</totfact>
</mgrwt>
</event>
<event>
 5   1  0.1388354E+00  0.7890989E+02  0.7818608E-02  0.1332174E+00
          1   -1    0    0  501    0  0.00000000000E+00  0.00000000000E+00  0.36506864486E+02  0.36506864784E+02  0.46700000000E-02 0. -1.
         -1   -1    0    0    0  501 -0.00000000000E+00 -0.00000000000E+00 -0.42641091124E+02  0.42641091380E+02  0.46700000000E-02 0.  1.
         23    2    1    2    0    0  0.00000000000E+00  0.00000000000E+00 -0.61342266384E+01  0.79147956164E+02  0.78909886760E+02 0.  0.
        -13    1    3    3    0    0 -0.74586527109E+01 -0.18887178907E+02 -0.36997034868E+02  0.42203658477E+02  0.10570000000E+00 0.  1.
         13    1    3    3    0    0  0.74586527109E+01  0.18887178907E+02  0.30862808230E+02  0.36944297688E+02  0.10570000000E+00 0. -1.
<mgrwt>
<rscale>  0 0.78909887E+02</rscale>
<asrwt>0</asrwt>
<pdfrwt beam="1">  1        1 0.56164407E-02 0.78909887E+02</pdfrwt>
<pdfrwt beam="2">  1       -1 0.65601679E-02 0.78909887E+02</pdfrwt>
<totfact> 0.13401758E+05</totfact>
</mgrwt>
</event>
<event>
 5   1  0.1388354E+00  0.8904095E+02  0.7818608E-02  0.1305191E+00
         -1   -1    0    0    0  501 -0.00000000000E+00  0.00000000000E+00  0.51323203304E+02  0.51323203516E+02  0.46700000000E-02 0.  1.
          1   -1    0    0  501    0  0.00000000000E+00 -0.00000000000E+00 -0.38619430116E+02  0.38619430398E+02  0.46700000000E-02 0. -1.
         23    2    1    2    0    0  0.00000000000E+00  0.00000000000E+00  0.12703773188E+02  0.89942633914E+02  0.89040954298E+02 0.  0.
        -13    1    3    3    0    0 -0.19535849549E+02  0.18629879477E+01 -0.34014540305E+02  0.39269839144E+02  0.10570000000E+00 0. -1.
         13    1    3    3    0    0  0.19535849549E+02 -0.18629879477E+01  0.46718313493E+02  0.50672794770E+02  0.10570000000E+00 0.  1.
<mgrwt>
<rscale>  0 0.89040954E+02</rscale>
<asrwt>0</asrwt>
<pdfrwt beam="2">  1        1 0.59414509E-02 0.89040954E+02</pdfrwt>
<pdfrwt beam="1">  1       -1 0.78958774E-02 0.89040954E+02</pdfrwt>
<totfact> 0.96417914E+04</totfact>
</mgrwt>
</event>
<event>
 5   1  0.1388354E+00  0.9135300E+02  0.7818608E-02  0.1299608E+00
          1   -1    0    0  501    0  0.00000000000E+00  0.00000000000E+00  0.46208954786E+03  0.46208954788E+03  0.46700000000E-02 0. -1.
         -1   -1    0    0    0  501 -0.00000000000E+00 -0.00000000000E+00 -0.45150172865E+01  0.45150197017E+01  0.46700000000E-02 0.  1.
         23    2    1    2    0    0  0.00000000000E+00  0.00000000000E+00  0.45757453057E+03  0.46660456758E+03  0.91353004668E+02 0.  0.
        -13    1    3    3    0    0 -0.44908461325E+02 -0.12684801559E+01  0.18668265267E+03  0.19201250720E+03  0.10570000000E+00 0. -1.
         13    1    3    3    0    0  0.44908461325E+02  0.12684801559E+01  0.27089187790E+03  0.27459206038E+03  0.10570000000E+00 0.  1.
<mgrwt>
<rscale>  0 0.91353005E+02</rscale>
<asrwt>0</asrwt>
<pdfrwt beam="1">  1        1 0.71090640E-01 0.91353005E+02</pdfrwt>
<pdfrwt beam="2">  1       -1 0.69461882E-03 0.91353005E+02</pdfrwt>
<totfact> 0.13716382E+05</totfact>
</mgrwt>
</event>
<event>
 5   1  0.1388354E+00  0.9105568E+02  0.7818608E-02  0.1300315E+00
          1   -1    0    0  501    0  0.00000000000E+00  0.00000000000E+00  0.71779878278E+01  0.71779893470E+01  0.46700000000E-02 0. -1.
         -1   -1    0    0    0  501 -0.00000000000E+00 -0.00000000000E+00 -0.28876950169E+03  0.28876950173E+03  0.46700000000E-02 0.  1.
         23    2    1    2    0    0  0.00000000000E+00  0.00000000000E+00 -0.28159151386E+03  0.29594749107E+03  0.91055679637E+02 0.  0.
        -13    1    3    3    0    0  0.57685417118E+01 -0.40878422108E+02 -0.20318329117E+03  0.20733495231E+03  0.10570000000E+00 0.  1.
         13    1    3    3    0    0 -0.57685417118E+01  0.40878422108E+02 -0.78408222694E+02  0.88612538763E+02  0.10570000000E+00 0. -1.
<mgrwt>
<rscale>  0 0.91055680E+02</rscale>
<asrwt>0</asrwt>
<pdfrwt beam="1">  1        1 0.11043062E-02 0.91055680E+02</pdfrwt>
<pdfrwt beam="2">  1       -1 0.44426068E-01 0.91055680E+02</pdfrwt>
<totfact> 0.61703298E+04</totfact>
</mgrwt>
</event>
<event>
 5   1  0.1388354E+00  0.9187673E+02  0.7818608E-02  0.1298370E+00
          1   -1    0    0  501    0  0.00000000000E+00  0.00000000000E+00  0.33997265428E+02  0.33997265749E+02  0.46700000000E-02 0. -1.
         -1   -1    0    0    0  501 -0.00000000000E+00 -0.00000000000E+00 -0.62073624357E+02  0.62073624532E+02  0.46700000000E-02 0.  1.
         23    2    1    2    0    0  0.00000000000E+00  0.00000000000E+00 -0.28076358929E+02  0.96070890281E+02  0.91876732793E+02 0.  0.
        -13    1    3    3    0    0 -0.37987002397E+02 -0.80745924885E+01  0.11619922773E+02  0.40536960576E+02  0.10570000000E+00 0. -1.
         13    1    3    3    0    0  0.37987002397E+02  0.80745924885E+01 -0.39696281702E+02  0.55533929705E+02  0.10570000000E+00 0.  1.
<mgrwt>
<rscale>  0 0.91876733E+02</rscale>
<asrwt>0</asrwt>
<pdfrwt beam="1">  1        1 0.52303486E-02 0.91876733E+02</pdfrwt>
<pdfrwt beam="2">  1       -1 0.95497884E-02 0.91876733E+02</pdfrwt>
<totfact> 0.86513100E+04</totfact>
</mgrwt>
</event>
<event>
 5   1  0.1388354E+00  0.8543574E+02  0.7818608E-02  0.1314297E+00
         -1   -1    0    0    0  501 -0.00000000000E+00  0.00000000000E+00  0.14996076764E+03  0.14996076771E+03  0.46700000000E-02 0.  1.
          1   -1    0    0  501    0  0.00000000000E+00 -0.00000000000E+00 -0.12168624139E+02  0.12168625035E+02  0.46700000000E-02 0. -1.
         23    2    1    2    0    0  0.00000000000E+00  0.00000000000E+00  0.13779214350E+03  0.16212939275E+03  0.85435737150E+02 0.  0.
        -13    1    3    3    0    0  0.32559222303E+02  0.26589896405E+02  0.54483774457E+02  0.68815829570E+02  0.10570000000E+00 0. -1.
         13    1    3    3    0    0 -0.32559222303E+02 -0.26589896405E+02  0.83308369043E+02  0.93313563178E+02  0.10570000000E+00 0.  1.
<mgrwt>
<rscale>  0 0.85435737E+02</rscale>
<asrwt>0</asrwt>
<pdfrwt beam="2">  1        1 0.18720962E-02 0.85435737E+02</pdfrwt>
<pdfrwt beam="1">  1       -1 0.23070887E-01 0.85435737E+02</pdfrwt>
<totfact> 0.88509985E+04</totfact>
</mgrwt>
</event>
<event>
 5   1  0.1388354E+00  0.9196377E+02  0.7818608E-02  0.1298165E+00
          1   -1    0    0  501    0  0.00000000000E+00  0.00000000000E+00  0.12725866539E+03  0.12725866547E+03  0.46700000000E-02 0. -1.
         -1   -1    0    0    0  501 -0.00000000000E+00 -0.00000000000E+00 -0.16614456317E+02  0.16614456974E+02  0.46700000000E-02 0.  1.
         23    2    1    2    0    0  0.00000000000E+00  0.00000000000E+00  0.11064420907E+03  0.14387312245E+03  0.91963766571E+02 0.  0.
        -13    1    3    3    0    0  0.26275009197E+02  0.98970077941E+01  0.11229049526E+03  0.11574754153E+03  0.10570000000E+00 0. -1.
         13    1    3    3    0    0 -0.26275009197E+02 -0.98970077941E+01 -0.16462861852E+01  0.28125580923E+02  0.10570000000E+00 0.  1.
<mgrwt>
<rscale>  0 0.91963767E+02</rscale>
<asrwt>0</asrwt>
<pdfrwt beam="1">  1        1 0.19578255E-01 0.91963767E+02</pdfrwt>
<pdfrwt beam="2">  1       -1 0.25560704E-02 0.91963767E+02</pdfrwt>
<totfact> 0.10634718E+05</totfact>
</mgrwt>
</event>
<event>
 5   1  0.1388354E+00  0.9224010E+02  0.7818608E-02  0.1297516E+00
          1   -1    0    0  501    0  0.00000000000E+00  0.00000000000E+00  0.16110181533E+03  0.16110181540E+03  0.46700000000E-02 0. -1.
         -1   -1    0    0    0  501 -0.00000000000E+00 -0.00000000000E+00 -0.13203197834E+02  0.13203198660E+02  0.46700000000E-02 0.  1.
         23    2    1    2    0    0  0.00000000000E+00  0.00000000000E+00  0.14789861750E+03  0.17430501406E+03  0.92240104449E+02 0.  0.
        -13    1    3    3    0    0  0.32721798501E+02  0.28483397590E+02  0.10352929447E+03  0.11225126289E+03  0.10570000000E+00 0. -1.
         13    1    3    3    0    0 -0.32721798501E+02 -0.28483397590E+02  0.44369323030E+02  0.62053751168E+02  0.10570000000E+00 0.  1.
<mgrwt>
<rscale>  0 0.92240104E+02</rscale>
<asrwt>0</asrwt>
<pdfrwt beam="1">  1        1 0.24784893E-01 0.92240104E+02</pdfrwt>
<pdfrwt beam="2">  1       -1 0.20312614E-02 0.92240104E+02</pdfrwt>
<totfact> 0.11012669E+05</totfact>
</mgrwt>
</event>
<event>
 5   1  0.1388354E+00  0.6801320E+02  0.7818608E-02  0.1366983E+00
          1   -1    0    0  501    0  0.00000000000E+00  0.00000000000E+00  0.22517651099E+02  0.22517651583E+02  0.46700000000E-02 0. -1.
         -1   -1    0    0    0  501 -0.00000000000E+00 -0.00000000000E+00 -0.51357443021E+02  0.51357443234E+02  0.46700000000E-02 0.  1.
         23    2    1    2    0    0  0.00000000000E+00  0.00000000000E+00 -0.28839791922E+02  0.73875094817E+02  0.68013204866E+02 0.  0.
        -13    1    3    3    0    0  0.12532964473E+02  0.30149446618E+02 -0.40940562636E+01  0.32906485668E+02  0.10570000000E+00 0. -1.
         13    1    3    3    0    0 -0.12532964473E+02 -0.30149446618E+02 -0.24745735659E+02  0.40968609149E+02  0.10570000000E+00 0.  1.
<mgrwt>
<rscale>  0 0.68013205E+02</rscale>
<asrwt>0</asrwt>
<pdfrwt beam="1">  1        1 0.34642541E-02 0.68013205E+02</pdfrwt>
<pdfrwt beam="2">  1       -1 0.79011451E-02 0.68013205E+02</pdfrwt>
<totfact> 0.18976739E+05</totfact>
</mgrwt>
</event>
<event>
 5   1  0.1388354E+00  0.9061248E+02  0.7818608E-02  0.1301375E+00
         -1   -1    0    0    0  501 -0.00000000000E+00  0.00000000000E+00  0.13887099272E+02  0.13887100057E+02  0.46700000000E-02 0. -1.
          1   -1    0    0  501    0  0.00000000000E+00 -0.00000000000E+00 -0.14781021652E+03  0.14781021659E+03  0.46700000000E-02 0.  1.
         23    2    1    2    0    0  0.00000000000E+00  0.00000000000E+00 -0.13392311724E+03  0.16169731665E+03  0.90612476395E+02 0.  0.
        -13    1    3    3    0    0 -0.95783330651E+01 -0.32051301807E+02 -0.12148690161E+03  0.12600836817E+03  0.10570000000E+00 0.  1.
         13    1    3    3    0    0  0.95783330651E+01  0.32051301807E+02 -0.12436215629E+02  0.35688948478E+02  0.10570000000E+00 0. -1.
<mgrwt>
<rscale>  0 0.90612476E+02</rscale>
<asrwt>0</asrwt>
<pdfrwt beam="2">  1        1 0.22740032E-01 0.90612476E+02</pdfrwt>
<pdfrwt beam="1">  1       -1 0.21364770E-02 0.90612476E+02</pdfrwt>
<totfact> 0.11371852E+05</totfact>
</mgrwt>
</event>
<event>
 5   1  0.1388354E+00  0.9129765E+02  0.7818608E-02  0.1299739E+00
          1   -1    0    0  501    0  0.00000000000E+00  0.00000000000E+00  0.28819128788E+03  0.28819128791E+03  0.46700000000E-02 0. -1.
         -1   -1    0    0    0  501 -0.00000000000E+00 -0.00000000000E+00 -0.72306659092E+01  0.72306674173E+01  0.46700000000E-02 0.  1.
         23    2    1    2    0    0  0.00000000000E+00  0.00000000000E+00  0.28096062197E+03  0.29542195533E+03  0.91297648358E+02 0.  0.
        -13    1    3    3    0    0  0.41044135800E+02  0.12288181025E+02  0.19145676588E+03  0.19619206113E+03  0.10570000000E+00 0. -1.
         13    1    3    3    0    0 -0.41044135800E+02 -0.12288181025E+02  0.89503856092E+02  0.99229894207E+02  0.10570000000E+00 0.  1.
<mgrwt>
<rscale>  0 0.91297648E+02</rscale>
<asrwt>0</asrwt>
<pdfrwt beam="1">  1        1 0.44337121E-01 0.91297648E+02</pdfrwt>
<pdfrwt beam="2">  1       -1 0.11124103E-02 0.91297648E+02</pdfrwt>
<totfact> 0.12669119E+05</totfact>
</mgrwt>
</event>
<event>
 5   1  0.1388354E+00  0.1217520E+03  0.7818608E-02  0.1240235E+00
          1   -1    0    0  501    0  0.00000000000E+00  0.00000000000E+00  0.83835564787E+02  0.83835564917E+02  0.46700000000E-02 0. -1.
         -1   -1    0    0    0  501 -0.00000000000E+00 -0.00000000000E+00 -0.44204207849E+02  0.44204208095E+02  0.46700000000E-02 0.  1.
         23    2    1    2    0    0  0.00000000000E+00  0.00000000000E+00  0.39631356939E+02  0.12803977301E+03  0.12175195695E+03 0.  0.
        -13    1    3    3    0    0 -0.49455248420E+02 -0.65461030532E+01 -0.16874515683E+02  0.52663398234E+02  0.10570000000E+00 0.  1.
         13    1    3    3    0    0  0.49455248420E+02  0.65461030532E+01  0.56505872622E+02  0.75376374779E+02  0.10570000000E+00 0. -1.
<mgrwt>
<rscale>  0 0.12175196E+03</rscale>
<asrwt>0</asrwt>
<pdfrwt beam="1">  1        1 0.12897779E-01 0.12175196E+03</pdfrwt>
<pdfrwt beam="2">  1       -1 0.68006474E-02 0.12175196E+03</pdfrwt>
<totfact> 0.45167123E+04</totfact>
</mgrwt>
</event>
<event>
 5   1  0.1388354E+00  0.9119499E+02  0.7818608E-02  0.1299983E+00
         -1   -1    0    0    0  501 -0.00000000000E+00  0.00000000000E+00  0.10758028484E+02  0.10758029498E+02  0.46700000000E-02 0.  1.
          1   -1    0    0  501    0  0.00000000000E+00 -0.00000000000E+00 -0.19326324834E+03  0.19326324839E+03  0.46700000000E-02 0. -1.
         23    2    1    2    0    0  0.00000000000E+00  0.00000000000E+00 -0.18250521985E+03  0.20402127789E+03  0.91194991961E+02 0.  0.
        -13    1    3    3    0    0  0.30356196650E+02 -0.50225546152E+01 -0.15968453746E+02  0.34665940308E+02  0.10570000000E+00 0.  1.
         13    1    3    3    0    0 -0.30356196650E+02  0.50225546152E+01 -0.16653676611E+03  0.16935533758E+03  0.10570000000E+00 0. -1.
<mgrwt>
<rscale>  0 0.91194992E+02</rscale>
<asrwt>0</asrwt>
<pdfrwt beam="2">  1        1 0.29732805E-01 0.91194992E+02</pdfrwt>
<pdfrwt beam="1">  1       -1 0.16550815E-02 0.91194992E+02</pdfrwt>
<totfact> 0.11756036E+05</totfact>
</mgrwt>
</event>
<event>
 5   1  0.1388354E+00  0.8899926E+02  0.7818608E-02  0.1305293E+00
          1   -1    0    0  501    0  0.00000000000E+00  0.00000000000E+00  0.18853267505E+03  0.18853267511E+03  0.46700000000E-02 0. -1.
         -1   -1    0    0    0  501 -0.00000000000E+00 -0.00000000000E+00 -0.10503309666E+02  0.10503310704E+02  0.46700000000E-02 0.  1.
         23    2    1    2    0    0  0.00000000000E+00  0.00000000000E+00  0.17802936538E+03  0.19903598581E+03  0.88999262408E+02 0.  0.
        -13    1    3    3    0    0  0.29113752283E+02  0.11507653303E+02  0.18288215222E+02  0.36256125620E+02  0.10570000000E+00 0.  1.
         13    1    3    3    0    0 -0.29113752283E+02 -0.11507653303E+02  0.15974115016E+03  0.16277986019E+03  0.10570000000E+00 0. -1.
<mgrwt>
<rscale>  0 0.88999262E+02</rscale>
<asrwt>0</asrwt>
<pdfrwt beam="1">  1        1 0.29005027E-01 0.88999262E+02</pdfrwt>
<pdfrwt beam="2">  1       -1 0.16158939E-02 0.88999262E+02</pdfrwt>
<totfact> 0.12489509E+05</totfact>
</mgrwt>
</event>
<event>
 5   1  0.1388354E+00  0.9147314E+02  0.7818608E-02  0.1299323E+00
          1   -1    0    0  501    0  0.00000000000E+00  0.00000000000E+00  0.49624987714E+02  0.49624987934E+02  0.46700000000E-02 0. -1.
         -1   -1    0    0    0  501 -0.00000000000E+00 -0.00000000000E+00 -0.42152828670E+02  0.42152828929E+02  0.46700000000E-02 0.  1.
         23    2    1    2    0    0  0.00000000000E+00  0.00000000000E+00  0.74721590440E+01  0.91777816862E+02  0.91473135440E+02 0.  0.
        -13    1    3    3    0    0 -0.28631415824E+02 -0.13365845988E+02 -0.29440941989E+02  0.43187776613E+02  0.10570000000E+00 0.  1.
         13    1    3    3    0    0  0.28631415824E+02  0.13365845988E+02  0.36913101033E+02  0.48590040249E+02  0.10570000000E+00 0. -1.
<mgrwt>
<rscale>  0 0.91473135E+02</rscale>
<asrwt>0</asrwt>
<pdfrwt beam="1">  1        1 0.76346135E-02 0.91473135E+02</pdfrwt>
<pdfrwt beam="2">  1       -1 0.64850506E-02 0.91473135E+02</pdfrwt>
<totfact> 0.92811131E+04</totfact>
</mgrwt>
</event>
<event>
 5   1  0.1388354E+00  0.9259667E+02  0.7818608E-02  0.1296683E+00
         -1   -1    0    0    0  501 -0.00000000000E+00  0.00000000000E+00  0.60612756325E+01  0.60612774316E+01  0.46700000000E-02 0.  1.
          1   -1    0    0  501    0  0.00000000000E+00 -0.00000000000E+00 -0.35364430353E+03  0.35364430356E+03  0.46700000000E-02 0. -1.
         23    2    1    2    0    0  0.00000000000E+00  0.00000000000E+00 -0.34758302789E+03  0.35970558099E+03  0.92596672265E+02 0.  0.
        -13    1    3    3    0    0  0.33262008258E+02 -0.31553110254E+02 -0.14874688372E+03  0.15565219738E+03  0.10570000000E+00 0.  1.
         13    1    3    3    0    0 -0.33262008258E+02  0.31553110254E+02 -0.19883614418E+03  0.20405338361E+03  0.10570000000E+00 0. -1.
<mgrwt>
<rscale>  0 0.92596672E+02</rscale>
<asrwt>0</asrwt>
<pdfrwt beam="2">  1        1 0.54406800E-01 0.92596672E+02</pdfrwt>
<pdfrwt beam="1">  1       -1 0.93250436E-03 0.92596672E+02</pdfrwt>
<totfact> 0.12675253E+05</totfact>
</mgrwt>
</event>
<event>
 5   1  0.1388354E+00  0.9005166E+02  0.7818608E-02  0.1302727E+00
          1   -1    0    0  501    0  0.00000000000E+00  0.00000000000E+00  0.11221584363E+03  0.11221584372E+03  0.46700000000E-02 0.  1.
         -1   -1    0    0    0  501 -0.00000000000E+00 -0.00000000000E+00 -0.18066302098E+02  0.18066302701E+02  0.46700000000E-02 0. -1.
         23    2    1    2    0    0  0.00000000000E+00  0.00000000000E+00  0.94149541530E+02  0.13028214643E+03  0.90051660212E+02 0.  0.
        -13    1    3    3    0    0 -0.20261543119E+02  0.40105539686E+02  0.42899261450E+02  0.62123604600E+02  0.10570000000E+00 0. -1.
         13    1    3    3    0    0  0.20261543119E+02 -0.40105539686E+02  0.51250280080E+02  0.68158541826E+02  0.10570000000E+00 0.  1.
<mgrwt>
<rscale>  0 0.90051660E+02</rscale>
<asrwt>0</asrwt>
<pdfrwt beam="1">  1        1 0.17263976E-01 0.90051660E+02</pdfrwt>
<pdfrwt beam="2">  1       -1 0.27794311E-02 0.90051660E+02</pdfrwt>
<totfact> 0.11014988E+05</totfact>
</mgrwt>
</event>
<event>
 5   1  0.1388354E+00  0.9085071E+02  0.7818608E-02  0.1300805E+00
         -1   -1    0    0    0  501 -0.00000000000E+00  0.00000000000E+00  0.68539967889E+02  0.68539968049E+02  0.46700000000E-02 0.  1.
          1   -1    0    0  501    0  0.00000000000E+00 -0.00000000000E+00 -0.30105977428E+02  0.30105977790E+02  0.46700000000E-02 0. -1.
         23    2    1    2    0    0  0.00000000000E+00  0.00000000000E+00  0.38433990462E+02  0.98645945838E+02  0.90850707248E+02 0.  0.
        -13    1    3    3    0    0 -0.26479370744E+02  0.36900169166E+02  0.20107101817E+02  0.49669772250E+02  0.10570000000E+00 0. -1.
         13    1    3    3    0    0  0.26479370744E+02 -0.36900169166E+02  0.18326888645E+02  0.48976173588E+02  0.10570000000E+00 0.  1.
<mgrwt>
<rscale>  0 0.90850707E+02</rscale>
<asrwt>0</asrwt>
<pdfrwt beam="2">  1        1 0.46316889E-02 0.90850707E+02</pdfrwt>
<pdfrwt beam="1">  1       -1 0.10544610E-01 0.90850707E+02</pdfrwt>
<totfact> 0.87630156E+04</totfact>
</mgrwt>
</event>
<event>
 5   1  0.1388354E+00  0.9204912E+02  0.7818608E-02  0.1297964E+00
          1   -1    0    0  501    0  0.00000000000E+00  0.00000000000E+00  0.17456024819E+02  0.17456025443E+02  0.46700000000E-02 0. -1.
         -1   -1    0    0    0  501 -0.00000000000E+00 -0.00000000000E+00 -0.12134836402E+03  0.12134836411E+03  0.46700000000E-02 0.  1.
         23    2    1    2    0    0  0.00000000000E+00  0.00000000000E+00 -0.10389233920E+03  0.13880438955E+03  0.92049119573E+02 0.  0.
        -13    1    3    3    0    0  0.25151079232E+02 -0.20047717481E+01  0.60977616414E+01  0.25957460697E+02  0.10570000000E+00 0. -1.
         13    1    3    3    0    0 -0.25151079232E+02  0.20047717481E+01 -0.10999010084E+03  0.11284692885E+03  0.10570000000E+00 0.  1.
<mgrwt>
<rscale>  0 0.92049120E+02</rscale>
<asrwt>0</asrwt>
<pdfrwt beam="1">  1        1 0.26855424E-02 0.92049120E+02</pdfrwt>
<pdfrwt beam="2">  1       -1 0.18668979E-01 0.92049120E+02</pdfrwt>
<totfact> 0.76443259E+04</totfact>
</mgrwt>
</event>
<event>
 5   1  0.1388354E+00  0.1026128E+03  0.7818608E-02  0.1274896E+00
         -1   -1    0    0    0  501 -0.00000000000E+00  0.00000000000E+00  0.45670819894E+02  0.45670820133E+02  0.46700000000E-02 0.  1.
          1   -1    0    0  501    0  0.00000000000E+00 -0.00000000000E+00 -0.57637415522E+02  0.57637415711E+02  0.46700000000E-02 0. -1.
         23    2    1    2    0    0  0.00000000000E+00  0.00000000000E+00 -0.11966595628E+02  0.10330823584E+03  0.10261282660E+03 0.  0.
        -13    1    3    3    0    0 -0.25606375313E+02  0.43680342793E+02 -0.14326683787E+02  0.52620564840E+02  0.10570000000E+00 0.  1.
         13    1    3    3    0    0  0.25606375313E+02 -0.43680342793E+02  0.23600881591E+01  0.50687671004E+02  0.10570000000E+00 0. -1.
<mgrwt>
<rscale>  0 0.10261283E+03</rscale>
<asrwt>0</asrwt>
<pdfrwt beam="2">  1        1 0.88672947E-02 0.10261283E+03</pdfrwt>
<pdfrwt beam="1">  1       -1 0.70262800E-02 0.10261283E+03</pdfrwt>
<totfact> 0.68759694E+04</totfact>
</mgrwt>
</event>
<event>
 5   1  0.1388354E+00  0.9172468E+02  0.7818608E-02  0.1298728E+00
          1   -1    0    0  501    0  0.00000000000E+00  0.00000000000E+00  0.87211204757E+02  0.87211204882E+02  0.46700000000E-02 0. -1.
         -1   -1    0    0    0  501 -0.00000000000E+00 -0.00000000000E+00 -0.24117934646E+02  0.24117935098E+02  0.46700000000E-02 0.  1.
         23    2    1    2    0    0  0.00000000000E+00  0.00000000000E+00  0.63093270111E+02  0.11132913998E+03  0.91724678661E+02 0.  0.
        -13    1    3    3    0    0  0.42289437595E+02 -0.13191452935E+02  0.45955425151E+02  0.63830425629E+02  0.10570000000E+00 0.  1.
         13    1    3    3    0    0 -0.42289437595E+02  0.13191452935E+02  0.17137844960E+02  0.47498714351E+02  0.10570000000E+00 0. -1.
<mgrwt>
<rscale>  0 0.91724679E+02</rscale>
<asrwt>0</asrwt>
<pdfrwt beam="1">  1        1 0.13417109E-01 0.91724679E+02</pdfrwt>
<pdfrwt beam="2">  1       -1 0.37104515E-02 0.91724679E+02</pdfrwt>
<totfact> 0.10047612E+05</totfact>
</mgrwt>
</event>
<event>
 5   1  0.1388354E+00  0.9449843E+02  0.7818608E-02  0.1292310E+00
          1   -1    0    0  501    0  0.00000000000E+00  0.00000000000E+00  0.44727883460E+02  0.44727883704E+02  0.46700000000E-02 0. -1.
         -1   -1    0    0    0  501 -0.00000000000E+00 -0.00000000000E+00 -0.49912673200E+02  0.49912673419E+02  0.46700000000E-02 0.  1.
         23    2    1    2    0    0  0.00000000000E+00  0.00000000000E+00 -0.51847897397E+01  0.94640557123E+02  0.94498428600E+02 0.  0.
        -13    1    3    3    0    0  0.41048186104E+02  0.13064865764E+02 -0.22033772601E+02  0.48385355299E+02  0.10570000000E+00 0.  1.
         13    1    3    3    0    0 -0.41048186104E+02 -0.13064865764E+02  0.16848982861E+02  0.46255201824E+02  0.10570000000E+00 0. -1.
<mgrwt>
<rscale>  0 0.94498429E+02</rscale>
<asrwt>0</asrwt>
<pdfrwt beam="1">  1        1 0.68812129E-02 0.94498429E+02</pdfrwt>
<pdfrwt beam="2">  1       -1 0.76788728E-02 0.94498429E+02</pdfrwt>
<totfact> 0.83356406E+04</totfact>
</mgrwt>
</event>
<event>
 5   1  0.1388354E+00  0.8948200E+02  0.7818608E-02  0.1304111E+00
          1   -1    0    0  501    0  0.00000000000E+00  0.00000000000E+00  0.29640384268E+02  0.29640384636E+02  0.46700000000E-02 0. -1.
         -1   -1    0    0    0  501 -0.00000000000E+00 -0.00000000000E+00 -0.67534792027E+02  0.67534792188E+02  0.46700000000E-02 0.  1.
         23    2    1    2    0    0  0.00000000000E+00  0.00000000000E+00 -0.37894407758E+02  0.97175176825E+02  0.89482002948E+02 0.  0.
        -13    1    3    3    0    0 -0.20072987075E+01  0.32869574407E+02  0.13943805591E+02  0.35761418549E+02  0.10570000000E+00 0. -1.
         13    1    3    3    0    0  0.20072987075E+01 -0.32869574407E+02 -0.51838213349E+02  0.61413758275E+02  0.10570000000E+00 0.  1.
<mgrwt>
<rscale>  0 0.89482003E+02</rscale>
<asrwt>0</asrwt>
<pdfrwt beam="1">  1        1 0.45600592E-02 0.89482003E+02</pdfrwt>
<pdfrwt beam="2">  1       -1 0.10389968E-01 0.89482003E+02</pdfrwt>
<totfact> 0.91295052E+04</totfact>
</mgrwt>
</event>
<event>
 5   1  0.1388354E+00  0.8996456E+02  0.7818608E-02  0.1302938E+00
          1   -1    0    0  501    0  0.00000000000E+00  0.00000000000E+00  0.61386250705E+02  0.61386250883E+02  0.46700000000E-02 0. -1.
         -1   -1    0    0    0  501 -0.00000000000E+00 -0.00000000000E+00 -0.32961867646E+02  0.32961867976E+02  0.46700000000E-02 0.  1.
         23    2    1    2    0    0  0.00000000000E+00  0.00000000000E+00  0.28424383060E+02  0.94348118859E+02  0.89964559578E+02 0.  0.
        -13    1    3    3    0    0  0.10456055885E+02 -0.43737313991E+02  0.15318376975E+02  0.47507321388E+02  0.10570000000E+00 0.  1.
         13    1    3    3    0    0 -0.10456055885E+02  0.43737313991E+02  0.13106006085E+02  0.46840797472E+02  0.10570000000E+00 0. -1.
<mgrwt>
<rscale>  0 0.89964560E+02</rscale>
<asrwt>0</asrwt>
<pdfrwt beam="1">  1        1 0.94440384E-02 0.89964560E+02</pdfrwt>
<pdfrwt beam="2">  1       -1 0.50710567E-02 0.89964560E+02</pdfrwt>
<totfact> 0.10035343E+05</totfact>
</mgrwt>
</event>
<event>
 5   1  0.1388354E+00  0.9577612E+02  0.7818608E-02  0.1289438E+00
          1   -1    0    0  501    0  0.00000000000E+00  0.00000000000E+00  0.14105164743E+02  0.14105165516E+02  0.46700000000E-02 0. -1.
         -1   -1    0    0    0  501 -0.00000000000E+00 -0.00000000000E+00 -0.16258344153E+03  0.16258344160E+03  0.46700000000E-02 0.  1.
         23    2    1    2    0    0  0.00000000000E+00  0.00000000000E+00 -0.14847827679E+03  0.17668860711E+03  0.95776120229E+02 0.  0.
        -13    1    3    3    0    0 -0.26732040566E+02 -0.99048676656E+01 -0.14522344867E+03  0.14799516753E+03  0.10570000000E+00 0.  1.
         13    1    3    3    0    0  0.26732040566E+02  0.99048676656E+01 -0.32548281117E+01  0.28693439578E+02  0.10570000000E+00 0. -1.
<mgrwt>
<rscale>  0 0.95776120E+02</rscale>
<asrwt>0</asrwt>
<pdfrwt beam="1">  1        1 0.21700255E-02 0.95776120E+02</pdfrwt>
<pdfrwt beam="2">  1       -1 0.25012836E-01 0.95776120E+02</pdfrwt>
<totfact> 0.64531728E+04</totfact>
</mgrwt>
</event>
<event>
 5   1  0.1388354E+00  0.9115472E+02  0.7818608E-02  0.1300079E+00
         -1   -1    0    0    0  501 -0.00000000000E+00  0.00000000000E+00  0.98753474926E+01  0.98753485968E+01  0.46700000000E-02 0.  1.
          1   -1    0    0  501    0  0.00000000000E+00 -0.00000000000E+00 -0.21035163748E+03  0.21035163754E+03  0.46700000000E-02 0. -1.
         23    2    1    2    0    0  0.00000000000E+00  0.00000000000E+00 -0.20047628999E+03  0.22022698613E+03  0.91154717773E+02 0.  0.
        -13    1    3    3    0    0 -0.28112650618E+02  0.35493903765E+02 -0.87650472430E+02  0.98654725275E+02  0.10570000000E+00 0.  1.
         13    1    3    3    0    0  0.28112650618E+02 -0.35493903765E+02 -0.11282581756E+03  0.12157226086E+03  0.10570000000E+00 0. -1.
<mgrwt>
<rscale>  0 0.91154718E+02</rscale>
<asrwt>0</asrwt>
<pdfrwt beam="2">  1        1 0.32361787E-01 0.91154718E+02</pdfrwt>
<pdfrwt beam="1">  1       -1 0.15192845E-02 0.91154718E+02</pdfrwt>
<totfact> 0.11965093E+05</totfact>
</mgrwt>
</event>
<event>
 5   1  0.1388354E+00  0.9186964E+02  0.7818608E-02  0.1298386E+00
         -1   -1    0    0    0  501 -0.00000000000E+00  0.00000000000E+00  0.14916916051E+02  0.14916916782E+02  0.46700000000E-02 0.  1.
          1   -1    0    0  501    0  0.00000000000E+00 -0.00000000000E+00 -0.14145065495E+03  0.14145065503E+03  0.46700000000E-02 0. -1.
         23    2    1    2    0    0  0.00000000000E+00  0.00000000000E+00 -0.12653373890E+03  0.15636757181E+03  0.91869638258E+02 0.  0.
        -13    1    3    3    0    0 -0.27260871703E+02  0.86341311552E+01 -0.12445331104E+03  0.12769628479E+03  0.10570000000E+00 0.  1.
         13    1    3    3    0    0  0.27260871703E+02 -0.86341311552E+01 -0.20804278558E+01  0.28671287020E+02  0.10570000000E+00 0. -1.
<mgrwt>
<rscale>  0 0.91869638E+02</rscale>
<asrwt>0</asrwt>
<pdfrwt beam="2">  1        1 0.21761638E-01 0.91869638E+02</pdfrwt>
<pdfrwt beam="1">  1       -1 0.22949103E-02 0.91869638E+02</pdfrwt>
<totfact> 0.10868871E+05</totfact>
</mgrwt>
</event>
<event>
 5   1  0.1388354E+00  0.8999070E+02  0.7818608E-02  0.1302874E+00
         -1   -1    0    0    0  501 -0.00000000000E+00  0.00000000000E+00  0.33397850634E+02  0.33397850961E+02  0.46700000000E-02 0.  1.
          1   -1    0    0  501    0  0.00000000000E+00 -0.00000000000E+00 -0.60620117526E+02  0.60620117706E+02  0.46700000000E-02 0. -1.
         23    2    1    2    0    0  0.00000000000E+00  0.00000000000E+00 -0.27222266892E+02  0.94017968666E+02  0.89990702950E+02 0.  0.
        -13    1    3    3    0    0  0.27773180278E+02 -0.10608186075E+02 -0.48896653915E+02  0.57225668115E+02  0.10570000000E+00 0. -1.
         13    1    3    3    0    0 -0.27773180278E+02  0.10608186075E+02  0.21674387023E+02  0.36792300552E+02  0.10570000000E+00 0.  1.
<mgrwt>
<rscale>  0 0.89990703E+02</rscale>
<asrwt>0</asrwt>
<pdfrwt beam="2">  1        1 0.93261720E-02 0.89990703E+02</pdfrwt>
<pdfrwt beam="1">  1       -1 0.51381309E-02 0.89990703E+02</pdfrwt>
<totfact> 0.10008391E+05</totfact>
</mgrwt>
</event>
<event>
 5   1  0.1388354E+00  0.9117783E+02  0.7818608E-02  0.1300024E+00
          1   -1    0    0  501    0  0.00000000000E+00  0.00000000000E+00  0.19468154960E+03  0.19468154966E+03  0.46700000000E-02 0. -1.
         -1   -1    0    0    0  501 -0.00000000000E+00 -0.00000000000E+00 -0.10675635336E+02  0.10675636357E+02  0.46700000000E-02 0.  1.
         23    2    1    2    0    0  0.00000000000E+00  0.00000000000E+00  0.18400591427E+03  0.20535718602E+03  0.91177833727E+02 0.  0.
        -13    1    3    3    0    0  0.44125646262E+02  0.57669585284E+01  0.69705736427E+02  0.82699645296E+02  0.10570000000E+00 0.  1.
         13    1    3    3    0    0 -0.44125646262E+02 -0.57669585284E+01  0.11430017784E+03  0.12265754072E+03  0.10570000000E+00 0. -1.
<mgrwt>
<rscale>  0 0.91177834E+02</rscale>
<asrwt>0</asrwt>
<pdfrwt beam="1">  1        1 0.29951008E-01 0.91177834E+02</pdfrwt>
<pdfrwt beam="2">  1       -1 0.16424055E-02 0.91177834E+02</pdfrwt>
<totfact> 0.11778614E+05</totfact>
</mgrwt>
</event>
<event>
 5   1  0.1388354E+00  0.9048200E+02  0.7818608E-02  0.1301689E+00
         -1   -1    0    0    0  501 -0.00000000000E+00  0.00000000000E+00  0.28191716495E+02  0.28191716881E+02  0.46700000000E-02 0.  1.
          1   -1    0    0  501    0  0.00000000000E+00 -0.00000000000E+00 -0.72601038299E+02  0.72601038449E+02  0.46700000000E-02 0. -1.
         23    2    1    2    0    0  0.00000000000E+00  0.00000000000E+00 -0.44409321805E+02  0.10079275533E+03  0.90481996353E+02 0.  0.
        -13    1    3    3    0    0  0.41289903529E+02  0.16239500653E+02 -0.12356451468E+02  0.46057253286E+02  0.10570000000E+00 0.  1.
         13    1    3    3    0    0 -0.41289903529E+02 -0.16239500653E+02 -0.32052870336E+02  0.54735502045E+02  0.10570000000E+00 0. -1.
<mgrwt>
<rscale>  0 0.90481996E+02</rscale>
<asrwt>0</asrwt>
<pdfrwt beam="2">  1        1 0.11169390E-01 0.90481996E+02</pdfrwt>
<pdfrwt beam="1">  1       -1 0.43371872E-02 0.90481996E+02</pdfrwt>
<totfact> 0.10133628E+05</totfact>
</mgrwt>
</event>
<event>
 5   1  0.1388354E+00  0.9104100E+02  0.7818608E-02  0.1300350E+00
          1   -1    0    0  501    0  0.00000000000E+00  0.00000000000E+00  0.24902700272E+02  0.24902700710E+02  0.46700000000E-02 0. -1.
         -1   -1    0    0    0  501 -0.00000000000E+00 -0.00000000000E+00 -0.83208489132E+02  0.83208489264E+02  0.46700000000E-02 0.  1.
         23    2    1    2    0    0  0.00000000000E+00  0.00000000000E+00 -0.58305788860E+02  0.10811118997E+03  0.91041003855E+02 0.  0.
        -13    1    3    3    0    0 -0.21297741170E+02 -0.40143860870E+02 -0.26015201563E+02  0.52363395892E+02  0.10570000000E+00 0.  1.
         13    1    3    3    0    0  0.21297741170E+02  0.40143860870E+02 -0.32290587297E+02  0.55747794082E+02  0.10570000000E+00 0. -1.
<mgrwt>
<rscale>  0 0.91041004E+02</rscale>
<asrwt>0</asrwt>
<pdfrwt beam="1">  1        1 0.38311847E-02 0.91041004E+02</pdfrwt>
<pdfrwt beam="2">  1       -1 0.12801306E-01 0.91041004E+02</pdfrwt>
<totfact> 0.84407805E+04</totfact>
</mgrwt>
</event>
<event>
 5   1  0.1388354E+00  0.8926212E+02  0.7818608E-02  0.1304648E+00
         -1   -1    0    0    0  501 -0.00000000000E+00  0.00000000000E+00  0.19588628340E+02  0.19588628897E+02  0.46700000000E-02 0.  1.
          1   -1    0    0  501    0  0.00000000000E+00 -0.00000000000E+00 -0.10168815894E+03  0.10168815905E+03  0.46700000000E-02 0. -1.
         23    2    1    2    0    0  0.00000000000E+00  0.00000000000E+00 -0.82099530602E+02  0.12127678795E+03  0.89262121695E+02 0.  0.
        -13    1    3    3    0    0  0.25673342385E+02 -0.11036901868E+02 -0.88330059324E+02  0.92645260347E+02  0.10570000000E+00 0. -1.
         13    1    3    3    0    0 -0.25673342385E+02  0.11036901868E+02  0.62305287220E+01  0.28631527600E+02  0.10570000000E+00 0.  1.
<mgrwt>
<rscale>  0 0.89262122E+02</rscale>
<asrwt>0</asrwt>
<pdfrwt beam="2">  1        1 0.15644332E-01 0.89262122E+02</pdfrwt>
<pdfrwt beam="1">  1       -1 0.30136352E-02 0.89262122E+02</pdfrwt>
<totfact> 0.11096545E+05</totfact>
</mgrwt>
</event>
<event>
 5   1  0.1388354E+00  0.8914745E+02  0.7818608E-02  0.1304930E+00
          1   -1    0    0  501    0  0.00000000000E+00  0.00000000000E+00  0.28972673810E+02  0.28972674187E+02  0.46700000000E-02 0. -1.
         -1   -1    0    0    0  501 -0.00000000000E+00 -0.00000000000E+00 -0.68575542340E+02  0.68575542499E+02  0.46700000000E-02 0.  1.
         23    2    1    2    0    0  0.00000000000E+00  0.00000000000E+00 -0.39602868530E+02  0.97548216686E+02  0.89147447427E+02 0.  0.
        -13    1    3    3    0    0 -0.27798346362E+02 -0.34838368305E+02 -0.19158059172E+02  0.48512909316E+02  0.10570000000E+00 0. -1.
         13    1    3    3    0    0  0.27798346362E+02  0.34838368305E+02 -0.20444809358E+02  0.49035307370E+02  0.10570000000E+00 0.  1.
<mgrwt>
<rscale>  0 0.89147447E+02</rscale>
<asrwt>0</asrwt>
<pdfrwt beam="1">  1        1 0.44573345E-02 0.89147447E+02</pdfrwt>
<pdfrwt beam="2">  1       -1 0.10550083E-01 0.89147447E+02</pdfrwt>
<totfact> 0.91945631E+04</totfact>
</mgrwt>
</event>
<event>
 5   1  0.1388354E+00  0.9227540E+02  0.7818608E-02  0.1297433E+00
          1   -1    0    0  501    0  0.00000000000E+00  0.00000000000E+00  0.44093352152E+02  0.44093352400E+02  0.46700000000E-02 0. -1.
         -1   -1    0    0    0  501 -0.00000000000E+00 -0.00000000000E+00 -0.48276833109E+02  0.48276833335E+02  0.46700000000E-02 0.  1.
         23    2    1    2    0    0  0.00000000000E+00  0.00000000000E+00 -0.41834809569E+01  0.92370185735E+02  0.92275401380E+02 0.  0.
        -13    1    3    3    0    0 -0.20184393388E+02 -0.29305474153E+02  0.27306021718E+02  0.44853657001E+02  0.10570000000E+00 0. -1.
         13    1    3    3    0    0  0.20184393388E+02  0.29305474153E+02 -0.31489502675E+02  0.47516528734E+02  0.10570000000E+00 0.  1.
<mgrwt>
<rscale>  0 0.92275401E+02</rscale>
<asrwt>0</asrwt>
<pdfrwt beam="1">  1        1 0.67835927E-02 0.92275401E+02</pdfrwt>
<pdfrwt beam="2">  1       -1 0.74272051E-02 0.92275401E+02</pdfrwt>
<totfact> 0.88957107E+04</totfact>
</mgrwt>
</event>
<event>
 4   1  0.1388354E+00  0.1725517E+03  0.7818608E-02  0.1175213E+00
         -1   -1    0    0    0  501 -0.00000000000E+00  0.00000000000E+00  0.24423213765E+03  0.24423213770E+03  0.46700000000E-02 0.  1.
          1   -1    0    0  501    0  0.00000000000E+00 -0.00000000000E+00 -0.30477248154E+02  0.30477248512E+02  0.46700000000E-02 0. -1.
        -13    1    1    2    0    0  0.59240468266E+02  0.12667776012E+02  0.20467602241E+03  0.21345301814E+03  0.10570000000E+00 0.  1.
         13    1    1    2    0    0 -0.59240468266E+02 -0.12667776012E+02  0.90788670884E+01  0.61256368073E+02  0.10570000000E+00 0. -1.
<mgrwt>
<rscale>  0 0.17255171E+03</rscale>
<asrwt>0</asrwt>
<pdfrwt beam="2">  1        1 0.46888074E-02 0.17255171E+03</pdfrwt>
<pdfrwt beam="1">  1       -1 0.37574175E-01 0.17255171E+03</pdfrwt>
<totfact> 0.12030182E+04</totfact>
</mgrwt>
</event>
<event>
 5   1  0.1388354E+00  0.9283054E+02  0.7818608E-02  0.1296138E+00
          1   -1    0    0  501    0  0.00000000000E+00  0.00000000000E+00  0.25091291540E+02  0.25091291974E+02  0.46700000000E-02 0. -1.
         -1   -1    0    0    0  501 -0.00000000000E+00 -0.00000000000E+00 -0.85861557762E+02  0.85861557889E+02  0.46700000000E-02 0.  1.
         23    2    1    2    0    0  0.00000000000E+00  0.00000000000E+00 -0.60770266223E+02  0.11095284986E+03  0.92830542582E+02 0.  0.
        -13    1    3    3    0    0 -0.74986277951E+01 -0.12233422797E+02 -0.83144013368E+02  0.84373124771E+02  0.10570000000E+00 0.  1.
         13    1    3    3    0    0  0.74986277951E+01  0.12233422797E+02  0.22373747146E+02  0.26579725092E+02  0.10570000000E+00 0. -1.
<mgrwt>
<rscale>  0 0.92830543E+02</rscale>
<asrwt>0</asrwt>
<pdfrwt beam="1">  1        1 0.38601988E-02 0.92830543E+02</pdfrwt>
<pdfrwt beam="2">  1       -1 0.13209470E-01 0.92830543E+02</pdfrwt>
<totfact> 0.79857896E+04</totfact>
</mgrwt>
</event>
<event>
 5   1  0.1388354E+00  0.9117606E+02  0.7818608E-02  0.1300028E+00
          1   -1    0    0  501    0  0.00000000000E+00  0.00000000000E+00  0.56474801915E+02  0.56474802108E+02  0.46700000000E-02 0.  1.
         -1   -1    0    0    0  501 -0.00000000000E+00 -0.00000000000E+00 -0.36799925260E+02  0.36799925557E+02  0.46700000000E-02 0. -1.
         23    2    1    2    0    0  0.00000000000E+00  0.00000000000E+00  0.19674876655E+02  0.93274727665E+02  0.91176060726E+02 0.  0.
        -13    1    3    3    0    0 -0.35709198874E+02 -0.28083996395E+02  0.13719464073E+02  0.47456217767E+02  0.10570000000E+00 0.  1.
         13    1    3    3    0    0  0.35709198874E+02  0.28083996395E+02  0.59554125816E+01  0.45818509898E+02  0.10570000000E+00 0. -1.
<mgrwt>
<rscale>  0 0.91176061E+02</rscale>
<asrwt>0</asrwt>
<pdfrwt beam="1">  1        1 0.86884311E-02 0.91176061E+02</pdfrwt>
<pdfrwt beam="2">  1       -1 0.56615270E-02 0.91176061E+02</pdfrwt>
<totfact> 0.95496813E+04</totfact>
</mgrwt>
</event>
<event>
 5   1  0.1388354E+00  0.1008647E+03  0.7818608E-02  0.1278488E+00
         -1   -1    0    0    0  501 -0.00000000000E+00  0.00000000000E+00  0.49317888764E+02  0.49317888986E+02  0.46700000000E-02 0.  1.
          1   -1    0    0  501    0  0.00000000000E+00 -0.00000000000E+00 -0.51572028230E+02  0.51572028442E+02  0.46700000000E-02 0. -1.
         23    2    1    2    0    0  0.00000000000E+00  0.00000000000E+00 -0.22541394658E+01  0.10088991743E+03  0.10086473266E+03 0.  0.
        -13    1    3    3    0    0  0.40532064458E+02 -0.20188364941E+02  0.21081944054E+02  0.49948752395E+02  0.10570000000E+00 0.  1.
         13    1    3    3    0    0 -0.40532064458E+02  0.20188364941E+02 -0.23336083520E+02  0.50941165032E+02  0.10570000000E+00 0. -1.
<mgrwt>
<rscale>  0 0.10086473E+03</rscale>
<asrwt>0</asrwt>
<pdfrwt beam="2">  1        1 0.79341582E-02 0.10086473E+03</pdfrwt>
<pdfrwt beam="1">  1       -1 0.75873675E-02 0.10086473E+03</pdfrwt>
<totfact> 0.70885583E+04</totfact>
</mgrwt>
</event>
<event>
 5   1  0.1388354E+00  0.9189606E+02  0.7818608E-02  0.1298324E+00
          1   -1    0    0  501    0  0.00000000000E+00  0.00000000000E+00  0.18640751203E+03  0.18640751209E+03  0.46700000000E-02 0. -1.
         -1   -1    0    0    0  501 -0.00000000000E+00 -0.00000000000E+00 -0.11325838615E+02  0.11325839578E+02  0.46700000000E-02 0.  1.
         23    2    1    2    0    0  0.00000000000E+00  0.00000000000E+00  0.17508167342E+03  0.19773335167E+03  0.91896060828E+02 0.  0.
        -13    1    3    3    0    0 -0.13392859986E+02 -0.33474690595E+02  0.26253575350E+02  0.44600280270E+02  0.10570000000E+00 0.  1.
         13    1    3    3    0    0  0.13392859986E+02  0.33474690595E+02  0.14882809807E+03  0.15313307140E+03  0.10570000000E+00 0. -1.
<mgrwt>
<rscale>  0 0.91896061E+02</rscale>
<asrwt>0</asrwt>
<pdfrwt beam="1">  1        1 0.28678079E-01 0.91896061E+02</pdfrwt>
<pdfrwt beam="2">  1       -1 0.17424368E-02 0.91896061E+02</pdfrwt>
<totfact> 0.11436540E+05</totfact>
</mgrwt>
</event>
<event>
 5   1  0.1388354E+00  0.9309558E+02  0.7818608E-02  0.1295524E+00
         -1   -1    0    0    0  501 -0.00000000000E+00  0.00000000000E+00  0.11027837971E+03  0.11027837981E+03  0.46700000000E-02 0.  1.
          1   -1    0    0  501    0  0.00000000000E+00 -0.00000000000E+00 -0.19647522414E+02  0.19647522969E+02  0.46700000000E-02 0. -1.
         23    2    1    2    0    0  0.00000000000E+00  0.00000000000E+00  0.90630857297E+02  0.12992590278E+03  0.93095584850E+02 0.  0.
        -13    1    3    3    0    0 -0.13650912034E+02 -0.15480971509E+02  0.10354262374E+03  0.10557979912E+03  0.10570000000E+00 0.  1.
         13    1    3    3    0    0  0.13650912034E+02  0.15480971509E+02 -0.12911766444E+02  0.24346103660E+02  0.10570000000E+00 0. -1.
<mgrwt>
<rscale>  0 0.93095585E+02</rscale>
<asrwt>0</asrwt>
<pdfrwt beam="2">  1        1 0.30226957E-02 0.93095585E+02</pdfrwt>
<pdfrwt beam="1">  1       -1 0.16965905E-01 0.93095585E+02</pdfrwt>
<totfact> 0.75683051E+04</totfact>
</mgrwt>
</event>
<event>
 5   1  0.1388354E+00  0.1128248E+03  0.7818608E-02  0.1255427E+00
          1   -1    0    0  501    0  0.00000000000E+00  0.00000000000E+00  0.19550057944E+03  0.19550057950E+03  0.46700000000E-02 0. -1.
         -1   -1    0    0    0  501 -0.00000000000E+00 -0.00000000000E+00 -0.16277989390E+02  0.16277990060E+02  0.46700000000E-02 0.  1.
         23    2    1    2    0    0  0.00000000000E+00  0.00000000000E+00  0.17922259005E+03  0.21177856955E+03  0.11282475676E+03 0.  0.
        -13    1    3    3    0    0  0.43880005871E+02 -0.16403643055E+02  0.30616391014E+02  0.55963461222E+02  0.10570000000E+00 0.  1.
         13    1    3    3    0    0 -0.43880005871E+02  0.16403643055E+02  0.14860619904E+03  0.15581510833E+03  0.10570000000E+00 0. -1.
<mgrwt>
<rscale>  0 0.11282476E+03</rscale>
<asrwt>0</asrwt>
<pdfrwt beam="1">  1        1 0.30077013E-01 0.11282476E+03</pdfrwt>
<pdfrwt beam="2">  1       -1 0.25043061E-02 0.11282476E+03</pdfrwt>
<totfact> 0.66087954E+04</totfact>
</mgrwt>
</event>
<event>
 5   1  0.1388354E+00  0.8112822E+02  0.7818608E-02  0.1325880E+00
          1   -1    0    0  501    0  0.00000000000E+00  0.00000000000E+00  0.16187232532E+02  0.16187233206E+02  0.46700000000E-02 0.  1.
         -1   -1    0    0    0  501 -0.00000000000E+00 -0.00000000000E+00 -0.10165092274E+03  0.10165092285E+03  0.46700000000E-02 0. -1.
         23    2    1    2    0    0  0.00000000000E+00  0.00000000000E+00 -0.85463690207E+02  0.11783815605E+03  0.81128223684E+02 0.  0.
        -13    1    3    3    0    0 -0.17104568979E+02  0.23287249437E+02 -0.13785392696E+01  0.28927042872E+02  0.10570000000E+00 0.  1.
         13    1    3    3    0    0  0.17104568979E+02 -0.23287249437E+02 -0.84085150938E+02  0.88911113181E+02  0.10570000000E+00 0. -1.
<mgrwt>
<rscale>  0 0.81128224E+02</rscale>
<asrwt>0</asrwt>
<pdfrwt beam="1">  1        1 0.24903436E-02 0.81128224E+02</pdfrwt>
<pdfrwt beam="2">  1       -1 0.15638603E-01 0.81128224E+02</pdfrwt>
<totfact> 0.10949844E+05</totfact>
</mgrwt>
</event>
<event>
 5   1  0.1388354E+00  0.9481769E+02  0.7818608E-02  0.1291587E+00
         -1   -1    0    0    0  501 -0.00000000000E+00  0.00000000000E+00  0.52592996372E+02  0.52592996579E+02  0.46700000000E-02 0.  1.
          1   -1    0    0  501    0  0.00000000000E+00 -0.00000000000E+00 -0.42735697035E+02  0.42735697290E+02  0.46700000000E-02 0. -1.
         23    2    1    2    0    0  0.00000000000E+00  0.00000000000E+00  0.98572993367E+01  0.95328693869E+02  0.94817685716E+02 0.  0.
        -13    1    3    3    0    0  0.18086257415E+02  0.14921543502E+02  0.46355353100E+02  0.51948003824E+02  0.10570000000E+00 0.  1.
         13    1    3    3    0    0 -0.18086257415E+02 -0.14921543502E+02 -0.36498053763E+02  0.43380690045E+02  0.10570000000E+00 0. -1.
<mgrwt>
<rscale>  0 0.94817686E+02</rscale>
<asrwt>0</asrwt>
<pdfrwt beam="2">  1        1 0.65747227E-02 0.94817686E+02</pdfrwt>
<pdfrwt beam="1">  1       -1 0.80912302E-02 0.94817686E+02</pdfrwt>
<totfact> 0.81979573E+04</totfact>
</mgrwt>
</event>
<event>
 5   1  0.1388354E+00  0.8987483E+02  0.7818608E-02  0.1303155E+00
         -1   -1    0    0    0  501 -0.00000000000E+00  0.00000000000E+00  0.10371754547E+03  0.10371754558E+03  0.46700000000E-02 0.  1.
          1   -1    0    0  501    0  0.00000000000E+00 -0.00000000000E+00 -0.19469911120E+02  0.19469911681E+02  0.46700000000E-02 0. -1.
         23    2    1    2    0    0  0.00000000000E+00  0.00000000000E+00  0.84247634353E+02  0.12318745726E+03  0.89874833696E+02 0.  0.
        -13    1    3    3    0    0  0.18930492962E+02 -0.21470824107E+02 -0.53570987604E+01  0.29121633389E+02  0.10570000000E+00 0. -1.
         13    1    3    3    0    0 -0.18930492962E+02  0.21470824107E+02  0.89604733113E+02  0.94065823870E+02  0.10570000000E+00 0.  1.
<mgrwt>
<rscale>  0 0.89874834E+02</rscale>
<asrwt>0</asrwt>
<pdfrwt beam="2">  1        1 0.29953710E-02 0.89874834E+02</pdfrwt>
<pdfrwt beam="1">  1       -1 0.15956545E-01 0.89874834E+02</pdfrwt>
<totfact> 0.83864053E+04</totfact>
</mgrwt>
</event>
<event>
 5   1  0.1388354E+00  0.8205337E+02  0.7818608E-02  0.1323323E+00
         -1   -1    0    0    0  501 -0.00000000000E+00  0.00000000000E+00  0.24106138097E+02  0.24106138550E+02  0.46700000000E-02 0.  1.
          1   -1    0    0  501    0  0.00000000000E+00 -0.00000000000E+00 -0.69824077666E+02  0.69824077822E+02  0.46700000000E-02 0. -1.
         23    2    1    2    0    0  0.00000000000E+00  0.00000000000E+00 -0.45717939569E+02  0.93930216372E+02  0.82053370127E+02 0.  0.
        -13    1    3    3    0    0  0.95691191031E-01  0.19108806720E+02  0.18700523111E+02  0.26737172404E+02  0.10570000000E+00 0.  1.
         13    1    3    3    0    0 -0.95691191031E-01 -0.19108806720E+02 -0.64418462680E+02  0.67193043967E+02  0.10570000000E+00 0. -1.
<mgrwt>
<rscale>  0 0.82053370E+02</rscale>
<asrwt>0</asrwt>
<pdfrwt beam="2">  1        1 0.10742166E-01 0.82053370E+02</pdfrwt>
<pdfrwt beam="1">  1       -1 0.37086367E-02 0.82053370E+02</pdfrwt>
<totfact> 0.13160045E+05</totfact>
</mgrwt>
</event>
<event>
 5   1  0.1388354E+00  0.8980019E+02  0.7818608E-02  0.1303336E+00
         -1   -1    0    0    0  501 -0.00000000000E+00  0.00000000000E+00  0.81575124147E+01  0.81575137515E+01  0.46700000000E-02 0.  1.
          1   -1    0    0  501    0  0.00000000000E+00 -0.00000000000E+00 -0.24713643950E+03  0.24713643954E+03  0.46700000000E-02 0. -1.
         23    2    1    2    0    0  0.00000000000E+00  0.00000000000E+00 -0.23897892708E+03  0.25529395329E+03  0.89800194868E+02 0.  0.
        -13    1    3    3    0    0  0.28725465515E+02 -0.23824854254E+02 -0.19046161277E+03  0.19408352109E+03  0.10570000000E+00 0. -1.
         13    1    3    3    0    0 -0.28725465515E+02  0.23824854254E+02 -0.48517314315E+02  0.61210432200E+02  0.10570000000E+00 0.  1.
<mgrwt>
<rscale>  0 0.89800195E+02</rscale>
<asrwt>0</asrwt>
<pdfrwt beam="2">  1        1 0.38020985E-01 0.89800195E+02</pdfrwt>
<pdfrwt beam="1">  1       -1 0.12550022E-02 0.89800195E+02</pdfrwt>
<totfact> 0.12850500E+05</totfact>
</mgrwt>
</event>
<event>
 5   1  0.1388354E+00  0.9553926E+02  0.7818608E-02  0.1289966E+00
         -1   -1    0    0    0  501 -0.00000000000E+00  0.00000000000E+00  0.49522898805E+01  0.49522920824E+01  0.46700000000E-02 0.  1.
          1   -1    0    0  501    0  0.00000000000E+00 -0.00000000000E+00 -0.46078424992E+03  0.46078424994E+03  0.46700000000E-02 0. -1.
         23    2    1    2    0    0  0.00000000000E+00  0.00000000000E+00 -0.45583196004E+03  0.46573654202E+03  0.95539263054E+02 0.  0.
        -13    1    3    3    0    0 -0.29711903944E+02  0.36563039045E+02 -0.18944706498E+03  0.19521745481E+03  0.10570000000E+00 0. -1.
         13    1    3    3    0    0  0.29711903944E+02 -0.36563039045E+02 -0.26638489506E+03  0.27051908721E+03  0.10570000000E+00 0.  1.
<mgrwt>
<rscale>  0 0.95539263E+02</rscale>
<asrwt>0</asrwt>
<pdfrwt beam="2">  1        1 0.70889851E-01 0.95539263E+02</pdfrwt>
<pdfrwt beam="1">  1       -1 0.76189129E-03 0.95539263E+02</pdfrwt>
<totfact> 0.12170993E+05</totfact>
</mgrwt>
</event>
<event>
 5   1  0.1388354E+00  0.8994783E+02  0.7818608E-02  0.1302978E+00
          1   -1    0    0  501    0  0.00000000000E+00  0.00000000000E+00  0.34614775156E+03  0.34614775159E+03  0.46700000000E-02 0. -1.
         -1   -1    0    0    0  501 -0.00000000000E+00 -0.00000000000E+00 -0.58433221636E+01  0.58433240298E+01  0.46700000000E-02 0.  1.
         23    2    1    2    0    0  0.00000000000E+00  0.00000000000E+00  0.34030442939E+03  0.35199107562E+03  0.89947832938E+02 0.  0.
        -13    1    3    3    0    0  0.51549205995E+01 -0.40345242056E+02  0.24525561988E+03  0.24860539418E+03  0.10570000000E+00 0. -1.
         13    1    3    3    0    0 -0.51549205995E+01  0.40345242056E+02  0.95048809518E+02  0.10338568144E+03  0.10570000000E+00 0.  1.
<mgrwt>
<rscale>  0 0.89947833E+02</rscale>
<asrwt>0</asrwt>
<pdfrwt beam="1">  1        1 0.53253507E-01 0.89947833E+02</pdfrwt>
<pdfrwt beam="2">  1       -1 0.89897267E-03 0.89947833E+02</pdfrwt>
<totfact> 0.13640131E+05</totfact>
</mgrwt>
</event>
<event>
 5   1  0.1388354E+00  0.8989680E+02  0.7818608E-02  0.1303102E+00
          1   -1    0    0  501    0  0.00000000000E+00  0.00000000000E+00  0.35167202592E+03  0.35167202595E+03  0.46700000000E-02 0. -1.
         -1   -1    0    0    0  501 -0.00000000000E+00 -0.00000000000E+00 -0.57450070813E+01  0.57450089794E+01  0.46700000000E-02 0.  1.
         23    2    1    2    0    0  0.00000000000E+00  0.00000000000E+00  0.34592701884E+03  0.35741703493E+03  0.89896799141E+02 0.  0.
        -13    1    3    3    0    0  0.18479043471E+02 -0.36917559034E+02  0.24363615667E+03  0.24710922528E+03  0.10570000000E+00 0.  1.
         13    1    3    3    0    0 -0.18479043471E+02  0.36917559034E+02  0.10229086217E+03  0.11030780965E+03  0.10570000000E+00 0. -1.
<mgrwt>
<rscale>  0 0.89896799E+02</rscale>
<asrwt>0</asrwt>
<pdfrwt beam="1">  1        1 0.54103382E-01 0.89896799E+02</pdfrwt>
<pdfrwt beam="2">  1       -1 0.88384751E-03 0.89896799E+02</pdfrwt>
<totfact> 0.13699347E+05</totfact>
</mgrwt>
</event>
<event>
 5   1  0.1388354E+00  0.8944234E+02  0.7818608E-02  0.1304208E+00
          1   -1    0    0  501    0  0.00000000000E+00  0.00000000000E+00  0.11855718275E+03  0.11855718285E+03  0.46700000000E-02 0. -1.
         -1   -1    0    0    0  501 -0.00000000000E+00 -0.00000000000E+00 -0.16869354923E+02  0.16869355570E+02  0.46700000000E-02 0.  1.
         23    2    1    2    0    0  0.00000000000E+00  0.00000000000E+00  0.10168782783E+03  0.13542653841E+03  0.89442344436E+02 0.  0.
        -13    1    3    3    0    0  0.25959589884E+02  0.17789064946E+02  0.98954403542E+02  0.10383802912E+03  0.10570000000E+00 0. -1.
         13    1    3    3    0    0 -0.25959589884E+02 -0.17789064946E+02  0.27334242880E+01  0.31588509295E+02  0.10570000000E+00 0.  1.
<mgrwt>
<rscale>  0 0.89442344E+02</rscale>
<asrwt>0</asrwt>
<pdfrwt beam="1">  1        1 0.18239567E-01 0.89442344E+02</pdfrwt>
<pdfrwt beam="2">  1       -1 0.25952854E-02 0.89442344E+02</pdfrwt>
<totfact> 0.11325216E+05</totfact>
</mgrwt>
</event>
<event>
 5   1  0.1388354E+00  0.8974014E+02  0.7818608E-02  0.1303482E+00
          1   -1    0    0  501    0  0.00000000000E+00  0.00000000000E+00  0.23670268668E+02  0.23670269129E+02  0.46700000000E-02 0. -1.
         -1   -1    0    0    0  501 -0.00000000000E+00 -0.00000000000E+00 -0.85057048525E+02  0.85057048653E+02  0.46700000000E-02 0.  1.
         23    2    1    2    0    0  0.00000000000E+00  0.00000000000E+00 -0.61386779856E+02  0.10872731778E+03  0.89740140912E+02 0.  0.
        -13    1    3    3    0    0 -0.22431279255E+01 -0.44645684769E+02 -0.35392578700E+02  0.57016792183E+02  0.10570000000E+00 0.  1.
         13    1    3    3    0    0  0.22431279255E+01  0.44645684769E+02 -0.25994201157E+02  0.51710525598E+02  0.10570000000E+00 0. -1.
<mgrwt>
<rscale>  0 0.89740141E+02</rscale>
<asrwt>0</asrwt>
<pdfrwt beam="1">  1        1 0.36415799E-02 0.89740141E+02</pdfrwt>
<pdfrwt beam="2">  1       -1 0.13085700E-01 0.89740141E+02</pdfrwt>
<totfact> 0.87245997E+04</totfact>
</mgrwt>
</event>
<event>
 5   1  0.1388354E+00  0.8991162E+02  0.7818608E-02  0.1303066E+00
         -1   -1    0    0    0  501 -0.00000000000E+00  0.00000000000E+00  0.26005128244E+02  0.26005128664E+02  0.46700000000E-02 0.  1.
          1   -1    0    0  501    0  0.00000000000E+00 -0.00000000000E+00 -0.77716394101E+02  0.77716394241E+02  0.46700000000E-02 0. -1.
         23    2    1    2    0    0  0.00000000000E+00  0.00000000000E+00 -0.51711265856E+02  0.10372152290E+03  0.89911619367E+02 0.  0.
        -13    1    3    3    0    0  0.54522950228E+01 -0.33856020221E+02 -0.59390440332E+02  0.68579830866E+02  0.10570000000E+00 0. -1.
         13    1    3    3    0    0 -0.54522950228E+01  0.33856020221E+02  0.76791744759E+01  0.35141692039E+02  0.10570000000E+00 0.  1.
<mgrwt>
<rscale>  0 0.89911619E+02</rscale>
<asrwt>0</asrwt>
<pdfrwt beam="2">  1        1 0.11956368E-01 0.89911619E+02</pdfrwt>
<pdfrwt beam="1">  1       -1 0.40007890E-02 0.89911619E+02</pdfrwt>
<totfact> 0.10420411E+05</totfact>
</mgrwt>
</event>
<event>
 5   1  0.1388354E+00  0.8906542E+02  0.7818608E-02  0.1305131E+00
         -1   -1    0    0    0  501 -0.00000000000E+00  0.00000000000E+00  0.16753966508E+02  0.16753967159E+02  0.46700000000E-02 0.  1.
          1   -1    0    0  501    0  0.00000000000E+00 -0.00000000000E+00 -0.11836972609E+03  0.11836972618E+03  0.46700000000E-02 0. -1.
         23    2    1    2    0    0  0.00000000000E+00  0.00000000000E+00 -0.10161575958E+03  0.13512369334E+03  0.89065424868E+02 0.  0.
        -13    1    3    3    0    0  0.13598186732E+02 -0.40581897762E+02 -0.69472272214E+02  0.81597848547E+02  0.10570000000E+00 0. -1.
         13    1    3    3    0    0 -0.13598186732E+02  0.40581897762E+02 -0.32143487368E+02  0.53525844795E+02  0.10570000000E+00 0.  1.
<mgrwt>
<rscale>  0 0.89065425E+02</rscale>
<asrwt>0</asrwt>
<pdfrwt beam="2">  1        1 0.18210727E-01 0.89065425E+02</pdfrwt>
<pdfrwt beam="1">  1       -1 0.25775334E-02 0.89065425E+02</pdfrwt>
<totfact> 0.11452149E+05</totfact>
</mgrwt>
</event>
<event>
 5   1  0.1388354E+00  0.9521884E+02  0.7818608E-02  0.1290684E+00
         -1   -1    0    0    0  501 -0.00000000000E+00  0.00000000000E+00  0.18922174599E+02  0.18922175175E+02  0.46700000000E-02 0.  1.
          1   -1    0    0  501    0  0.00000000000E+00 -0.00000000000E+00 -0.11978838611E+03  0.11978838620E+03  0.46700000000E-02 0. -1.
         23    2    1    2    0    0  0.00000000000E+00  0.00000000000E+00 -0.10086621151E+03  0.13871056138E+03  0.95218838538E+02 0.  0.
        -13    1    3    3    0    0 -0.36189934074E+02  0.14729199055E+01 -0.95445783711E+02  0.10208716678E+03  0.10570000000E+00 0. -1.
         13    1    3    3    0    0  0.36189934074E+02 -0.14729199055E+01 -0.54204277989E+01  0.36623394591E+02  0.10570000000E+00 0.  1.
<mgrwt>
<rscale>  0 0.95218839E+02</rscale>
<asrwt>0</asrwt>
<pdfrwt beam="2">  1        1 0.18428982E-01 0.95218839E+02</pdfrwt>
<pdfrwt beam="1">  1       -1 0.29111039E-02 0.95218839E+02</pdfrwt>
<totfact> 0.95711956E+04</totfact>
</mgrwt>
</event>
<event>
 5   1  0.1388354E+00  0.8931145E+02  0.7818608E-02  0.1304528E+00
          1   -1    0    0  501    0  0.00000000000E+00  0.00000000000E+00  0.74903268303E+02  0.74903268449E+02  0.46700000000E-02 0. -1.
         -1   -1    0    0    0  501 -0.00000000000E+00 -0.00000000000E+00 -0.26622784276E+02  0.26622784685E+02  0.46700000000E-02 0.  1.
         23    2    1    2    0    0  0.00000000000E+00  0.00000000000E+00  0.48280484027E+02  0.10152605313E+03  0.89311445667E+02 0.  0.
        -13    1    3    3    0    0 -0.14813080888E+02 -0.32048151329E+02  0.55222190545E+02  0.65543976612E+02  0.10570000000E+00 0. -1.
         13    1    3    3    0    0  0.14813080888E+02  0.32048151329E+02 -0.69417065176E+01  0.35982076522E+02  0.10570000000E+00 0.  1.
<mgrwt>
<rscale>  0 0.89311446E+02</rscale>
<asrwt>0</asrwt>
<pdfrwt beam="1">  1        1 0.11523579E-01 0.89311446E+02</pdfrwt>
<pdfrwt beam="2">  1       -1 0.40958131E-02 0.89311446E+02</pdfrwt>
<totfact> 0.10552997E+05</totfact>
</mgrwt>
</event>
<event>
 5   1  0.1388354E+00  0.9244481E+02  0.7818608E-02  0.1297037E+00
         -1   -1    0    0    0  501 -0.00000000000E+00  0.00000000000E+00  0.19874973260E+02  0.19874973809E+02  0.46700000000E-02 0.  1.
          1   -1    0    0  501    0  0.00000000000E+00 -0.00000000000E+00 -0.10749754351E+03  0.10749754361E+03  0.46700000000E-02 0. -1.
         23    2    1    2    0    0  0.00000000000E+00  0.00000000000E+00 -0.87622570247E+02  0.12737251742E+03  0.92444812599E+02 0.  0.
        -13    1    3    3    0    0 -0.30764996502E+02  0.23874881835E+02 -0.95036589241E+01  0.40085230421E+02  0.10570000000E+00 0.  1.
         13    1    3    3    0    0  0.30764996502E+02 -0.23874881835E+02 -0.78118911323E+02  0.87287286997E+02  0.10570000000E+00 0. -1.
<mgrwt>
<rscale>  0 0.92444813E+02</rscale>
<asrwt>0</asrwt>
<pdfrwt beam="2">  1        1 0.16538083E-01 0.92444813E+02</pdfrwt>
<pdfrwt beam="1">  1       -1 0.30576883E-02 0.92444813E+02</pdfrwt>
<totfact> 0.10182054E+05</totfact>
</mgrwt>
</event>
<event>
 5   1  0.1388354E+00  0.1050806E+03  0.7818608E-02  0.1269961E+00
         -1   -1    0    0    0  501 -0.00000000000E+00  0.00000000000E+00  0.16040988640E+03  0.16040988647E+03  0.46700000000E-02 0.  1.
          1   -1    0    0  501    0  0.00000000000E+00 -0.00000000000E+00 -0.17208924871E+02  0.17208925505E+02  0.46700000000E-02 0. -1.
         23    2    1    2    0    0  0.00000000000E+00  0.00000000000E+00  0.14320096153E+03  0.17761881198E+03  0.10508057377E+03 0.  0.
        -13    1    3    3    0    0 -0.39456690168E+01  0.44903213152E+02  0.11722646195E+03  0.12559427299E+03  0.10570000000E+00 0.  1.
         13    1    3    3    0    0  0.39456690168E+01 -0.44903213152E+02  0.25974499586E+02  0.52024538985E+02  0.10570000000E+00 0. -1.
<mgrwt>
<rscale>  0 0.10508057E+03</rscale>
<asrwt>0</asrwt>
<pdfrwt beam="2">  1        1 0.26475269E-02 0.10508057E+03</pdfrwt>
<pdfrwt beam="1">  1       -1 0.24678444E-01 0.10508057E+03</pdfrwt>
<totfact> 0.50829107E+04</totfact>
</mgrwt>
</event>
<event>
 5   1  0.1388354E+00  0.7772561E+02  0.7818608E-02  0.1335633E+00
          1   -1    0    0  501    0  0.00000000000E+00  0.00000000000E+00  0.77965589038E+01  0.77965603024E+01  0.46700000000E-02 0. -1.
         -1   -1    0    0    0  501 -0.00000000000E+00 -0.00000000000E+00 -0.19371589116E+03  0.19371589122E+03  0.46700000000E-02 0.  1.
         23    2    1    2    0    0  0.00000000000E+00  0.00000000000E+00 -0.18591933226E+03  0.20151245152E+03  0.77725607174E+02 0.  0.
        -13    1    3    3    0    0 -0.15679822926E+02  0.35558409098E+02 -0.92385617043E+02  0.10022659684E+03  0.10570000000E+00 0.  1.
         13    1    3    3    0    0  0.15679822926E+02 -0.35558409098E+02 -0.93533715217E+02  0.10128585469E+03  0.10570000000E+00 0. -1.
<mgrwt>
<rscale>  0 0.77725607E+02</rscale>
<asrwt>0</asrwt>
<pdfrwt beam="1">  1        1 0.11994709E-02 0.77725607E+02</pdfrwt>
<pdfrwt beam="2">  1       -1 0.29802441E-01 0.77725607E+02</pdfrwt>
<totfact> 0.10592999E+05</totfact>
</mgrwt>
</event>
<event>
 5   1  0.1388354E+00  0.9072189E+02  0.7818608E-02  0.1301113E+00
         -1   -1    0    0    0  501 -0.00000000000E+00  0.00000000000E+00  0.15397320566E+02  0.15397321275E+02  0.46700000000E-02 0.  1.
          1   -1    0    0  501    0  0.00000000000E+00 -0.00000000000E+00 -0.13363463838E+03  0.13363463846E+03  0.46700000000E-02 0. -1.
         23    2    1    2    0    0  0.00000000000E+00  0.00000000000E+00 -0.11823731781E+03  0.14903195973E+03  0.90721892060E+02 0.  0.
        -13    1    3    3    0    0  0.25653794262E+02  0.21267268660E+02 -0.85611168740E+01  0.34405199766E+02  0.10570000000E+00 0.  1.
         13    1    3    3    0    0 -0.25653794262E+02 -0.21267268660E+02 -0.10967620094E+03  0.11462675997E+03  0.10570000000E+00 0. -1.
<mgrwt>
<rscale>  0 0.90721892E+02</rscale>
<asrwt>0</asrwt>
<pdfrwt beam="2">  1        1 0.20559174E-01 0.90721892E+02</pdfrwt>
<pdfrwt beam="1">  1       -1 0.23688187E-02 0.90721892E+02</pdfrwt>
<totfact> 0.11130108E+05</totfact>
</mgrwt>
</event>
<event>
 5   1  0.1388354E+00  0.8801887E+02  0.7818608E-02  0.1307721E+00
         -1   -1    0    0    0  501 -0.00000000000E+00  0.00000000000E+00  0.48471039778E+02  0.48471040003E+02  0.46700000000E-02 0.  1.
          1   -1    0    0  501    0  0.00000000000E+00 -0.00000000000E+00 -0.39958506759E+02  0.39958507032E+02  0.46700000000E-02 0. -1.
         23    2    1    2    0    0  0.00000000000E+00  0.00000000000E+00  0.85125330186E+01  0.88429547035E+02  0.88018870536E+02 0.  0.
        -13    1    3    3    0    0  0.82311654362E+01  0.39663301212E+02  0.21537968538E+02  0.45878369726E+02  0.10570000000E+00 0.  1.
         13    1    3    3    0    0 -0.82311654362E+01 -0.39663301212E+02 -0.13025435520E+02  0.42551177310E+02  0.10570000000E+00 0. -1.
<mgrwt>
<rscale>  0 0.88018871E+02</rscale>
<asrwt>0</asrwt>
<pdfrwt beam="2">  1        1 0.61474626E-02 0.88018871E+02</pdfrwt>
<pdfrwt beam="1">  1       -1 0.74570831E-02 0.88018871E+02</pdfrwt>
<totfact> 0.10010230E+05</totfact>
</mgrwt>
</event>
<event>
 5   1  0.1388354E+00  0.9033312E+02  0.7818608E-02  0.1302047E+00
         -1   -1    0    0    0  501 -0.00000000000E+00  0.00000000000E+00  0.66753647163E+02  0.66753647327E+02  0.46700000000E-02 0.  1.
          1   -1    0    0  501    0  0.00000000000E+00 -0.00000000000E+00 -0.30560396299E+02  0.30560396656E+02  0.46700000000E-02 0. -1.
         23    2    1    2    0    0  0.00000000000E+00  0.00000000000E+00  0.36193250865E+02  0.97314043983E+02  0.90333115457E+02 0.  0.
        -13    1    3    3    0    0  0.74953022769E+01  0.22120499338E+02  0.59743081303E+02  0.64146262426E+02  0.10570000000E+00 0.  1.
         13    1    3    3    0    0 -0.74953022769E+01 -0.22120499338E+02 -0.23549830438E+02  0.33167781556E+02  0.10570000000E+00 0. -1.
<mgrwt>
<rscale>  0 0.90333115E+02</rscale>
<asrwt>0</asrwt>
<pdfrwt beam="2">  1        1 0.47015995E-02 0.90333115E+02</pdfrwt>
<pdfrwt beam="1">  1       -1 0.10269792E-01 0.90333115E+02</pdfrwt>
<totfact> 0.89288504E+04</totfact>
</mgrwt>
</event>
<event>
 5   1  0.1388354E+00  0.9445868E+02  0.7818608E-02  0.1292400E+00
         -1   -1    0    0    0  501 -0.00000000000E+00  0.00000000000E+00  0.83660239340E+01  0.83660252374E+01  0.46700000000E-02 0.  1.
          1   -1    0    0  501    0  0.00000000000E+00 -0.00000000000E+00 -0.26662730353E+03  0.26662730357E+03  0.46700000000E-02 0. -1.
         23    2    1    2    0    0  0.00000000000E+00  0.00000000000E+00 -0.25826127960E+03  0.27499332881E+03  0.94458680652E+02 0.  0.
        -13    1    3    3    0    0 -0.23776144503E+02  0.39811169343E+02 -0.15522905876E+03  0.16200711746E+03  0.10570000000E+00 0. -1.
         13    1    3    3    0    0  0.23776144503E+02 -0.39811169343E+02 -0.10303222083E+03  0.11298621135E+03  0.10570000000E+00 0.  1.
<mgrwt>
<rscale>  0 0.94458681E+02</rscale>
<asrwt>0</asrwt>
<pdfrwt beam="2">  1        1 0.41019579E-01 0.94458681E+02</pdfrwt>
<pdfrwt beam="1">  1       -1 0.12870809E-02 0.94458681E+02</pdfrwt>
<totfact> 0.11392949E+05</totfact>
</mgrwt>
</event>
<event>
 5   1  0.1388354E+00  0.8924190E+02  0.7818608E-02  0.1304698E+00
          1   -1    0    0  501    0  0.00000000000E+00  0.00000000000E+00  0.22777577932E+03  0.22777577937E+03  0.46700000000E-02 0. -1.
         -1   -1    0    0    0  501 -0.00000000000E+00 -0.00000000000E+00 -0.87411791498E+01  0.87411803973E+01  0.46700000000E-02 0.  1.
         23    2    1    2    0    0  0.00000000000E+00  0.00000000000E+00  0.21903460017E+03  0.23651695976E+03  0.89241897026E+02 0.  0.
        -13    1    3    3    0    0  0.69586500517E+00  0.40330434367E+02  0.58953693094E+02  0.71432326479E+02  0.10570000000E+00 0.  1.
         13    1    3    3    0    0 -0.69586500517E+00 -0.40330434367E+02  0.16008090708E+03  0.16508463329E+03  0.10570000000E+00 0. -1.
<mgrwt>
<rscale>  0 0.89241897E+02</rscale>
<asrwt>0</asrwt>
<pdfrwt beam="1">  1        1 0.35042428E-01 0.89241897E+02</pdfrwt>
<pdfrwt beam="2">  1       -1 0.13447969E-02 0.89241897E+02</pdfrwt>
<totfact> 0.12860499E+05</totfact>
</mgrwt>
</event>
<event>
 5   1  0.1388354E+00  0.7293659E+02  0.7818608E-02  0.1350382E+00
          1   -1    0    0  501    0  0.00000000000E+00  0.00000000000E+00  0.79832013295E+01  0.79832026955E+01  0.46700000000E-02 0.  1.
         -1   -1    0    0    0  501 -0.00000000000E+00 -0.00000000000E+00 -0.16659186284E+03  0.16659186291E+03  0.46700000000E-02 0. -1.
         23    2    1    2    0    0  0.00000000000E+00  0.00000000000E+00 -0.15860866151E+03  0.17457506560E+03  0.72936589059E+02 0.  0.
        -13    1    3    3    0    0 -0.33380924780E+02  0.81060301309E+00 -0.44209921835E+02  0.55402812000E+02  0.10570000000E+00 0.  1.
         13    1    3    3    0    0  0.33380924780E+02 -0.81060301309E+00 -0.11439873968E+03  0.11917225360E+03  0.10570000000E+00 0. -1.
<mgrwt>
<rscale>  0 0.72936589E+02</rscale>
<asrwt>0</asrwt>
<pdfrwt beam="1">  1        1 0.12281851E-02 0.72936589E+02</pdfrwt>
<pdfrwt beam="2">  1       -1 0.25629515E-01 0.72936589E+02</pdfrwt>
<totfact> 0.12971523E+05</totfact>
</mgrwt>
</event>
<event>
 4   1  0.1388354E+00  0.5117262E+02  0.7818608E-02  0.1439117E+00
         -1   -1    0    0    0  501 -0.00000000000E+00  0.00000000000E+00  0.14611234309E+03  0.14611234316E+03  0.46700000000E-02 0. -1.
          1   -1    0    0  501    0  0.00000000000E+00 -0.00000000000E+00 -0.44805181468E+01  0.44805205805E+01  0.46700000000E-02 0.  1.
        -13    1    1    2    0    0  0.22509364833E+02 -0.63516459401E+01  0.10134681936E+03  0.10401059503E+03  0.10570000000E+00 0. -1.
         13    1    1    2    0    0 -0.22509364833E+02  0.63516459401E+01  0.40285005575E+02  0.46582268708E+02  0.10570000000E+00 0.  1.
<mgrwt>
<rscale>  0 0.51172617E+02</rscale>
<asrwt>0</asrwt>
<pdfrwt beam="2">  1        1 0.68931073E-03 0.51172617E+02</pdfrwt>
<pdfrwt beam="1">  1       -1 0.22478821E-01 0.51172617E+02</pdfrwt>
<totfact> 0.32697328E+05</totfact>
</mgrwt>
</event>
<event>
 5   1  0.1388354E+00  0.8919127E+02  0.7818608E-02  0.1304822E+00
          1   -1    0    0  501    0  0.00000000000E+00  0.00000000000E+00  0.13339093564E+03  0.13339093572E+03  0.46700000000E-02 0. -1.
         -1   -1    0    0    0  501 -0.00000000000E+00 -0.00000000000E+00 -0.14909337685E+02  0.14909338416E+02  0.46700000000E-02 0.  1.
         23    2    1    2    0    0  0.00000000000E+00  0.00000000000E+00  0.11848159795E+03  0.14830027414E+03  0.89191267820E+02 0.  0.
        -13    1    3    3    0    0  0.27165762314E+02 -0.91009847524E+00  0.11802577780E+03  0.12111524396E+03  0.10570000000E+00 0. -1.
         13    1    3    3    0    0 -0.27165762314E+02  0.91009847524E+00  0.45582015497E+00  0.27185030179E+02  0.10570000000E+00 0.  1.
<mgrwt>
<rscale>  0 0.89191268E+02</rscale>
<asrwt>0</asrwt>
<pdfrwt beam="1">  1        1 0.20521682E-01 0.89191268E+02</pdfrwt>
<pdfrwt beam="2">  1       -1 0.22937444E-02 0.89191268E+02</pdfrwt>
<totfact> 0.11649247E+05</totfact>
</mgrwt>
</event>
<event>
 5   1  0.1388354E+00  0.9058787E+02  0.7818608E-02  0.1301434E+00
         -1   -1    0    0    0  501 -0.00000000000E+00  0.00000000000E+00  0.39558312871E+02  0.39558313147E+02  0.46700000000E-02 0.  1.
          1   -1    0    0  501    0  0.00000000000E+00 -0.00000000000E+00 -0.51861171814E+02  0.51861172024E+02  0.46700000000E-02 0. -1.
         23    2    1    2    0    0  0.00000000000E+00  0.00000000000E+00 -0.12302858943E+02  0.91419485171E+02  0.90587868563E+02 0.  0.
        -13    1    3    3    0    0  0.32951351205E+02  0.29368733400E+02  0.41013281489E+01  0.44329968563E+02  0.10570000000E+00 0. -1.
         13    1    3    3    0    0 -0.32951351205E+02 -0.29368733400E+02 -0.16404187092E+02  0.47089516608E+02  0.10570000000E+00 0.  1.
<mgrwt>
<rscale>  0 0.90587869E+02</rscale>
<asrwt>0</asrwt>
<pdfrwt beam="2">  1        1 0.79786418E-02 0.90587869E+02</pdfrwt>
<pdfrwt beam="1">  1       -1 0.60858943E-02 0.90587869E+02</pdfrwt>
<totfact> 0.95998435E+04</totfact>
</mgrwt>
</event>
<event>
 5   1  0.1388354E+00  0.9129332E+02  0.7818608E-02  0.1299750E+00
         -1   -1    0    0    0  501 -0.00000000000E+00  0.00000000000E+00  0.12825210910E+02  0.12825211760E+02  0.46700000000E-02 0.  1.
          1   -1    0    0  501    0  0.00000000000E+00 -0.00000000000E+00 -0.16246263718E+03  0.16246263725E+03  0.46700000000E-02 0. -1.
         23    2    1    2    0    0  0.00000000000E+00  0.00000000000E+00 -0.14963742627E+03  0.17528784901E+03  0.91293322149E+02 0.  0.
        -13    1    3    3    0    0 -0.12720601204E+02  0.43825653735E+02 -0.72800489553E+02  0.85921033932E+02  0.10570000000E+00 0.  1.
         13    1    3    3    0    0  0.12720601204E+02 -0.43825653735E+02 -0.76836936722E+02  0.89366815080E+02  0.10570000000E+00 0. -1.
<mgrwt>
<rscale>  0 0.91293322E+02</rscale>
<asrwt>0</asrwt>
<pdfrwt beam="2">  1        1 0.24994251E-01 0.91293322E+02</pdfrwt>
<pdfrwt beam="1">  1       -1 0.19731096E-02 0.91293322E+02</pdfrwt>
<totfact> 0.11341275E+05</totfact>
</mgrwt>
</event>
<event>
 5   1  0.1388354E+00  0.9069944E+02  0.7818608E-02  0.1301167E+00
          1   -1    0    0  501    0  0.00000000000E+00  0.00000000000E+00  0.72872385983E+02  0.72872386133E+02  0.46700000000E-02 0. -1.
         -1   -1    0    0    0  501 -0.00000000000E+00 -0.00000000000E+00 -0.28221896140E+02  0.28221896526E+02  0.46700000000E-02 0.  1.
         23    2    1    2    0    0  0.00000000000E+00  0.00000000000E+00  0.44650489844E+02  0.10109428266E+03  0.90699436289E+02 0.  0.
        -13    1    3    3    0    0  0.59496979270E+01 -0.25173763695E+02 -0.19192482174E+02  0.32209933693E+02  0.10570000000E+00 0.  1.
         13    1    3    3    0    0 -0.59496979270E+01  0.25173763695E+02  0.63842972018E+02  0.68884348967E+02  0.10570000000E+00 0. -1.
<mgrwt>
<rscale>  0 0.90699436E+02</rscale>
<asrwt>0</asrwt>
<pdfrwt beam="1">  1        1 0.11211136E-01 0.90699436E+02</pdfrwt>
<pdfrwt beam="2">  1       -1 0.43418303E-02 0.90699436E+02</pdfrwt>
<totfact> 0.10072799E+05</totfact>
</mgrwt>
</event>
<event>
 5   1  0.1388354E+00  0.9264051E+02  0.7818608E-02  0.1296580E+00
          1   -1    0    0  501    0  0.00000000000E+00  0.00000000000E+00  0.71614137319E+02  0.71614137471E+02  0.46700000000E-02 0. -1.
         -1   -1    0    0    0  501 -0.00000000000E+00 -0.00000000000E+00 -0.29960086887E+02  0.29960087251E+02  0.46700000000E-02 0.  1.
         23    2    1    2    0    0  0.00000000000E+00  0.00000000000E+00  0.41654050432E+02  0.10157422472E+03  0.92640505237E+02 0.  0.
        -13    1    3    3    0    0  0.29282858861E+02 -0.28897867144E+01  0.60049927897E+02  0.66871830417E+02  0.10570000000E+00 0. -1.
         13    1    3    3    0    0 -0.29282858861E+02  0.28897867144E+01 -0.18395877466E+02  0.34702394305E+02  0.10570000000E+00 0.  1.
<mgrwt>
<rscale>  0 0.92640505E+02</rscale>
<asrwt>0</asrwt>
<pdfrwt beam="1">  1        1 0.11017560E-01 0.92640505E+02</pdfrwt>
<pdfrwt beam="2">  1       -1 0.46092442E-02 0.92640505E+02</pdfrwt>
<totfact> 0.94755351E+04</totfact>
</mgrwt>
</event>
<event>
 5   1  0.1388354E+00  0.9041665E+02  0.7818608E-02  0.1301846E+00
          1   -1    0    0  501    0  0.00000000000E+00  0.00000000000E+00  0.11462710952E+02  0.11462711903E+02  0.46700000000E-02 0. -1.
         -1   -1    0    0    0  501 -0.00000000000E+00 -0.00000000000E+00 -0.17829924561E+03  0.17829924567E+03  0.46700000000E-02 0.  1.
         23    2    1    2    0    0  0.00000000000E+00  0.00000000000E+00 -0.16683653466E+03  0.18976195757E+03  0.90416653586E+02 0.  0.
        -13    1    3    3    0    0  0.25310091594E+02 -0.37458701581E+02 -0.83760423346E+02  0.95181798430E+02  0.10570000000E+00 0.  1.
         13    1    3    3    0    0 -0.25310091594E+02  0.37458701581E+02 -0.83076111312E+02  0.94580159145E+02  0.10570000000E+00 0. -1.
<mgrwt>
<rscale>  0 0.90416654E+02</rscale>
<asrwt>0</asrwt>
<pdfrwt beam="1">  1        1 0.17634942E-02 0.90416654E+02</pdfrwt>
<pdfrwt beam="2">  1       -1 0.27430651E-01 0.90416654E+02</pdfrwt>
<totfact> 0.73225559E+04</totfact>
</mgrwt>
</event>
<event>
 5   1  0.1388354E+00  0.8893093E+02  0.7818608E-02  0.1305461E+00
         -1   -1    0    0    0  501 -0.00000000000E+00  0.00000000000E+00  0.10659026512E+03  0.10659026522E+03  0.46700000000E-02 0.  1.
          1   -1    0    0  501    0  0.00000000000E+00 -0.00000000000E+00 -0.18549326649E+02  0.18549327237E+02  0.46700000000E-02 0. -1.
         23    2    1    2    0    0  0.00000000000E+00  0.00000000000E+00  0.88040938467E+02  0.12513959245E+03  0.88930932491E+02 0.  0.
        -13    1    3    3    0    0 -0.14805767560E+02  0.23518840849E+02 -0.48226008322E+01  0.28206653102E+02  0.10570000000E+00 0. -1.
         13    1    3    3    0    0  0.14805767560E+02 -0.23518840849E+02  0.92863539299E+02  0.96932939353E+02  0.10570000000E+00 0.  1.
<mgrwt>
<rscale>  0 0.88930932E+02</rscale>
<asrwt>0</asrwt>
<pdfrwt beam="2">  1        1 0.28537427E-02 0.88930932E+02</pdfrwt>
<pdfrwt beam="1">  1       -1 0.16398502E-01 0.88930932E+02</pdfrwt>
<totfact> 0.85729214E+04</totfact>
</mgrwt>
</event>
<event>
 5   1  0.1388354E+00  0.9102491E+02  0.7818608E-02  0.1300389E+00
          1   -1    0    0  501    0  0.00000000000E+00  0.00000000000E+00  0.18738132925E+02  0.18738133507E+02  0.46700000000E-02 0. -1.
         -1   -1    0    0    0  501 -0.00000000000E+00 -0.00000000000E+00 -0.11054376259E+03  0.11054376269E+03  0.46700000000E-02 0.  1.
         23    2    1    2    0    0  0.00000000000E+00  0.00000000000E+00 -0.91805629668E+02  0.12928189620E+03  0.91024914424E+02 0.  0.
        -13    1    3    3    0    0 -0.32749343220E+02 -0.14993675510E+00 -0.10155276341E+01  0.32765598289E+02  0.10570000000E+00 0. -1.
         13    1    3    3    0    0  0.32749343220E+02  0.14993675510E+00 -0.90790102034E+02  0.96516297910E+02  0.10570000000E+00 0.  1.
<mgrwt>
<rscale>  0 0.91024914E+02</rscale>
<asrwt>0</asrwt>
<pdfrwt beam="1">  1        1 0.28827898E-02 0.91024914E+02</pdfrwt>
<pdfrwt beam="2">  1       -1 0.17006732E-01 0.91024914E+02</pdfrwt>
<totfact> 0.80175065E+04</totfact>
</mgrwt>
</event>
<event>
 5   1  0.1388354E+00  0.8683355E+02  0.7818608E-02  0.1310706E+00
          1   -1    0    0  501    0  0.00000000000E+00  0.00000000000E+00  0.22248826115E+02  0.22248826605E+02  0.46700000000E-02 0. -1.
         -1   -1    0    0    0  501 -0.00000000000E+00 -0.00000000000E+00 -0.84724308714E+02  0.84724308843E+02  0.46700000000E-02 0.  1.
         23    2    1    2    0    0  0.00000000000E+00  0.00000000000E+00 -0.62475482599E+02  0.10697313545E+03  0.86833552165E+02 0.  0.
        -13    1    3    3    0    0 -0.22149477487E+01 -0.29419305458E+02  0.80028360626E+01  0.30568907155E+02  0.10570000000E+00 0.  1.
         13    1    3    3    0    0  0.22149477487E+01  0.29419305458E+02 -0.70478318662E+02  0.76404228293E+02  0.10570000000E+00 0. -1.
<mgrwt>
<rscale>  0 0.86833552E+02</rscale>
<asrwt>0</asrwt>
<pdfrwt beam="1">  1        1 0.34228964E-02 0.86833552E+02</pdfrwt>
<pdfrwt beam="2">  1       -1 0.13034509E-01 0.86833552E+02</pdfrwt>
<totfact> 0.94981580E+04</totfact>
</mgrwt>
</event>
<event>
 5   1  0.1388354E+00  0.9020256E+02  0.7818608E-02  0.1302362E+00
         -1   -1    0    0    0  501 -0.00000000000E+00  0.00000000000E+00  0.14876526428E+02  0.14876527161E+02  0.46700000000E-02 0.  1.
          1   -1    0    0  501    0  0.00000000000E+00 -0.00000000000E+00 -0.13673388498E+03  0.13673388506E+03  0.46700000000E-02 0. -1.
         23    2    1    2    0    0  0.00000000000E+00  0.00000000000E+00 -0.12185735856E+03  0.15161041223E+03  0.90202556842E+02 0.  0.
        -13    1    3    3    0    0  0.50761133266E+01  0.29970544913E+02 -0.11692943692E+03  0.12081599596E+03  0.10570000000E+00 0. -1.
         13    1    3    3    0    0 -0.50761133266E+01 -0.29970544913E+02 -0.49279216349E+01  0.30794416264E+02  0.10570000000E+00 0.  1.
<mgrwt>
<rscale>  0 0.90202557E+02</rscale>
<asrwt>0</asrwt>
<pdfrwt beam="2">  1        1 0.21035982E-01 0.90202557E+02</pdfrwt>
<pdfrwt beam="1">  1       -1 0.22886965E-02 0.90202557E+02</pdfrwt>
<totfact> 0.11350425E+05</totfact>
</mgrwt>
</event>
<event>
 5   1  0.1388354E+00  0.1054101E+03  0.7818608E-02  0.1269314E+00
         -1   -1    0    0    0  501 -0.00000000000E+00  0.00000000000E+00  0.28655186483E+02  0.28655186864E+02  0.46700000000E-02 0.  1.
          1   -1    0    0  501    0  0.00000000000E+00 -0.00000000000E+00 -0.96939575279E+02  0.96939575392E+02  0.46700000000E-02 0. -1.
         23    2    1    2    0    0  0.00000000000E+00  0.00000000000E+00 -0.68284388796E+02  0.12559476226E+03  0.10541008753E+03 0.  0.
        -13    1    3    3    0    0  0.29365277851E+02 -0.26827404755E+02 -0.75343903233E+02  0.85198263574E+02  0.10570000000E+00 0. -1.
         13    1    3    3    0    0 -0.29365277851E+02  0.26827404755E+02  0.70595144367E+01  0.40396498682E+02  0.10570000000E+00 0.  1.
<mgrwt>
<rscale>  0 0.10541009E+03</rscale>
<asrwt>0</asrwt>
<pdfrwt beam="2">  1        1 0.14913781E-01 0.10541009E+03</pdfrwt>
<pdfrwt beam="1">  1       -1 0.44084903E-02 0.10541009E+03</pdfrwt>
<totfact> 0.69668543E+04</totfact>
</mgrwt>
</event>
<event>
 5   1  0.1388354E+00  0.8961031E+02  0.7818608E-02  0.1303798E+00
         -1   -1    0    0    0  501 -0.00000000000E+00  0.00000000000E+00  0.86864844330E+02  0.86864844455E+02  0.46700000000E-02 0.  1.
          1   -1    0    0  501    0  0.00000000000E+00 -0.00000000000E+00 -0.23110638017E+02  0.23110638489E+02  0.46700000000E-02 0. -1.
         23    2    1    2    0    0  0.00000000000E+00  0.00000000000E+00  0.63754206313E+02  0.10997548294E+03  0.89610312053E+02 0.  0.
        -13    1    3    3    0    0 -0.13338487351E+02  0.28755755642E+02  0.70738599648E+02  0.77516252360E+02  0.10570000000E+00 0.  1.
         13    1    3    3    0    0  0.13338487351E+02 -0.28755755642E+02 -0.69843933350E+01  0.32459230584E+02  0.10570000000E+00 0. -1.
<mgrwt>
<rscale>  0 0.89610312E+02</rscale>
<asrwt>0</asrwt>
<pdfrwt beam="2">  1        1 0.35554828E-02 0.89610312E+02</pdfrwt>
<pdfrwt beam="1">  1       -1 0.13363822E-01 0.89610312E+02</pdfrwt>
<totfact> 0.87252347E+04</totfact>
</mgrwt>
</event>
<event>
 5   1  0.1388354E+00  0.9135302E+02  0.7818608E-02  0.1299608E+00
          1   -1    0    0  501    0  0.00000000000E+00  0.00000000000E+00  0.14932487714E+03  0.14932487721E+03  0.46700000000E-02 0. -1.
         -1   -1    0    0    0  501 -0.00000000000E+00 -0.00000000000E+00 -0.13971842284E+02  0.13971843065E+02  0.46700000000E-02 0.  1.
         23    2    1    2    0    0  0.00000000000E+00  0.00000000000E+00  0.13535303485E+03  0.16329672028E+03  0.91353022987E+02 0.  0.
        -13    1    3    3    0    0 -0.28851969943E+02 -0.18574425358E+02  0.12156668134E+03  0.12631672349E+03  0.10570000000E+00 0. -1.
         13    1    3    3    0    0  0.28851969943E+02  0.18574425358E+02  0.13786353511E+02  0.36979996790E+02  0.10570000000E+00 0.  1.
<mgrwt>
<rscale>  0 0.91353023E+02</rscale>
<asrwt>0</asrwt>
<pdfrwt beam="1">  1        1 0.22973057E-01 0.91353023E+02</pdfrwt>
<pdfrwt beam="2">  1       -1 0.21495143E-02 0.91353023E+02</pdfrwt>
<totfact> 0.11145717E+05</totfact>
</mgrwt>
</event>
<event>
 5   1  0.1388354E+00  0.8921776E+02  0.7818608E-02  0.1304757E+00
         -1   -1    0    0    0  501 -0.00000000000E+00  0.00000000000E+00  0.28124631135E+02  0.28124631523E+02  0.46700000000E-02 0.  1.
          1   -1    0    0  501    0  0.00000000000E+00 -0.00000000000E+00 -0.70754785331E+02  0.70754785485E+02  0.46700000000E-02 0. -1.
         23    2    1    2    0    0  0.00000000000E+00  0.00000000000E+00 -0.42630154196E+02  0.98879417008E+02  0.89217762026E+02 0.  0.
        -13    1    3    3    0    0 -0.42551460365E+01  0.38673094723E+02  0.28707744585E+01  0.39012396001E+02  0.10570000000E+00 0.  1.
         13    1    3    3    0    0  0.42551460365E+01 -0.38673094723E+02 -0.45500928655E+02  0.59867021006E+02  0.10570000000E+00 0. -1.
<mgrwt>
<rscale>  0 0.89217762E+02</rscale>
<asrwt>0</asrwt>
<pdfrwt beam="2">  1        1 0.10885352E-01 0.89217762E+02</pdfrwt>
<pdfrwt beam="1">  1       -1 0.43268664E-02 0.89217762E+02</pdfrwt>
<totfact> 0.10491443E+05</totfact>
</mgrwt>
</event>
<event>
 5   1  0.1388354E+00  0.9198967E+02  0.7818608E-02  0.1298104E+00
         -1   -1    0    0    0  501 -0.00000000000E+00  0.00000000000E+00  0.31336970483E+03  0.31336970487E+03  0.46700000000E-02 0.  1.
          1   -1    0    0  501    0  0.00000000000E+00 -0.00000000000E+00 -0.67508911014E+01  0.67508927167E+01  0.46700000000E-02 0. -1.
         23    2    1    2    0    0  0.00000000000E+00  0.00000000000E+00  0.30661881373E+03  0.32012059759E+03  0.91989673680E+02 0.  0.
        -13    1    3    3    0    0 -0.40830651799E+02 -0.83071589983E+01  0.85529350312E+02  0.95139013839E+02  0.10570000000E+00 0. -1.
         13    1    3    3    0    0  0.40830651799E+02  0.83071589983E+01  0.22108946342E+03  0.22498158375E+03  0.10570000000E+00 0.  1.
<mgrwt>
<rscale>  0 0.91989674E+02</rscale>
<asrwt>0</asrwt>
<pdfrwt beam="2">  1        1 0.10385990E-02 0.91989674E+02</pdfrwt>
<pdfrwt beam="1">  1       -1 0.48210711E-01 0.91989674E+02</pdfrwt>
<totfact> 0.58168866E+04</totfact>
</mgrwt>
</event>
<event>
 5   1  0.1388354E+00  0.9008881E+02  0.7818608E-02  0.1302637E+00
         -1   -1    0    0    0  501 -0.00000000000E+00  0.00000000000E+00  0.12226542722E+03  0.12226542731E+03  0.46700000000E-02 0.  1.
          1   -1    0    0  501    0  0.00000000000E+00 -0.00000000000E+00 -0.16595028311E+02  0.16595028968E+02  0.46700000000E-02 0. -1.
         23    2    1    2    0    0  0.00000000000E+00  0.00000000000E+00  0.10567039891E+03  0.13886045628E+03  0.90088806809E+02 0.  0.
        -13    1    3    3    0    0 -0.29509453927E+02 -0.23309892522E+02  0.91054666185E+02  0.98514579465E+02  0.10570000000E+00 0.  1.
         13    1    3    3    0    0  0.29509453927E+02  0.23309892522E+02  0.14615732729E+02  0.40345876818E+02  0.10570000000E+00 0. -1.
<mgrwt>
<rscale>  0 0.90088807E+02</rscale>
<asrwt>0</asrwt>
<pdfrwt beam="2">  1        1 0.25530813E-02 0.90088807E+02</pdfrwt>
<pdfrwt beam="1">  1       -1 0.18810066E-01 0.90088807E+02</pdfrwt>
<totfact> 0.80693611E+04</totfact>
</mgrwt>
</event>
<event>
 5   1  0.1388354E+00  0.9174588E+02  0.7818608E-02  0.1298678E+00
          1   -1    0    0  501    0  0.00000000000E+00  0.00000000000E+00  0.16512362749E+02  0.16512363409E+02  0.46700000000E-02 0. -1.
         -1   -1    0    0    0  501 -0.00000000000E+00 -0.00000000000E+00 -0.12743945454E+03  0.12743945462E+03  0.46700000000E-02 0.  1.
         23    2    1    2    0    0  0.00000000000E+00  0.00000000000E+00 -0.11092709179E+03  0.14395181803E+03  0.91745878501E+02 0.  0.
        -13    1    3    3    0    0 -0.41943674940E+02  0.13803981371E+02 -0.35961244825E+02  0.56947731044E+02  0.10570000000E+00 0. -1.
         13    1    3    3    0    0  0.41943674940E+02 -0.13803981371E+02 -0.74965846962E+02  0.87004086987E+02  0.10570000000E+00 0.  1.
<mgrwt>
<rscale>  0 0.91745879E+02</rscale>
<asrwt>0</asrwt>
<pdfrwt beam="1">  1        1 0.25403636E-02 0.91745879E+02</pdfrwt>
<pdfrwt beam="2">  1       -1 0.19606069E-01 0.91745879E+02</pdfrwt>
<totfact> 0.76312842E+04</totfact>
</mgrwt>
</event>
<event>
 5   1  0.1388354E+00  0.9386020E+02  0.7818608E-02  0.1293764E+00
          1   -1    0    0  501    0  0.00000000000E+00  0.00000000000E+00  0.25835496363E+03  0.25835496367E+03  0.46700000000E-02 0. -1.
         -1   -1    0    0    0  501 -0.00000000000E+00 -0.00000000000E+00 -0.85248378901E+01  0.85248391693E+01  0.46700000000E-02 0.  1.
         23    2    1    2    0    0  0.00000000000E+00  0.00000000000E+00  0.24983012574E+03  0.26687980284E+03  0.93860201563E+02 0.  0.
        -13    1    3    3    0    0  0.31077676729E+02 -0.27856562894E+02  0.18593930128E+03  0.19056559244E+03  0.10570000000E+00 0. -1.
         13    1    3    3    0    0 -0.31077676729E+02  0.27856562894E+02  0.63890824456E+02  0.76314210402E+02  0.10570000000E+00 0.  1.
<mgrwt>
<rscale>  0 0.93860202E+02</rscale>
<asrwt>0</asrwt>
<pdfrwt beam="1">  1        1 0.39746915E-01 0.93860202E+02</pdfrwt>
<pdfrwt beam="2">  1       -1 0.13115137E-02 0.93860202E+02</pdfrwt>
<totfact> 0.11516964E+05</totfact>
</mgrwt>
</event>
<event>
 5   1  0.1388354E+00  0.9266202E+02  0.7818608E-02  0.1296530E+00
         -1   -1    0    0    0  501 -0.00000000000E+00  0.00000000000E+00  0.17916306930E+02  0.17916307539E+02  0.46700000000E-02 0.  1.
          1   -1    0    0  501    0  0.00000000000E+00 -0.00000000000E+00 -0.11981053388E+03  0.11981053397E+03  0.46700000000E-02 0. -1.
         23    2    1    2    0    0  0.00000000000E+00  0.00000000000E+00 -0.10189422695E+03  0.13772684151E+03  0.92662016957E+02 0.  0.
        -13    1    3    3    0    0 -0.20675845327E+01 -0.39406563805E+02 -0.14862543415E+02  0.42167031505E+02  0.10570000000E+00 0.  1.
         13    1    3    3    0    0  0.20675845327E+01  0.39406563805E+02 -0.87031683535E+02  0.95559810005E+02  0.10570000000E+00 0. -1.
<mgrwt>
<rscale>  0 0.92662017E+02</rscale>
<asrwt>0</asrwt>
<pdfrwt beam="2">  1        1 0.18432389E-01 0.92662017E+02</pdfrwt>
<pdfrwt beam="1">  1       -1 0.27563550E-02 0.92662017E+02</pdfrwt>
<totfact> 0.10308242E+05</totfact>
</mgrwt>
</event>
<event>
 5   1  0.1388354E+00  0.9043579E+02  0.7818608E-02  0.1301800E+00
          1   -1    0    0  501    0  0.00000000000E+00  0.00000000000E+00  0.44124892747E+03  0.44124892749E+03  0.46700000000E-02 0. -1.
         -1   -1    0    0    0  501 -0.00000000000E+00 -0.00000000000E+00 -0.46337956734E+01  0.46337980266E+01  0.46700000000E-02 0.  1.
         23    2    1    2    0    0  0.00000000000E+00  0.00000000000E+00  0.43661513179E+03  0.44588272552E+03  0.90435787189E+02 0.  0.
        -13    1    3    3    0    0  0.14650025492E+02  0.42738294678E+02  0.22748078748E+03  0.23192392055E+03  0.10570000000E+00 0.  1.
         13    1    3    3    0    0 -0.14650025492E+02 -0.42738294678E+02  0.20913434431E+03  0.21395880496E+03  0.10570000000E+00 0. -1.
<mgrwt>
<rscale>  0 0.90435787E+02</rscale>
<asrwt>0</asrwt>
<pdfrwt beam="1">  1        1 0.67884449E-01 0.90435787E+02</pdfrwt>
<pdfrwt beam="2">  1       -1 0.71289184E-03 0.90435787E+02</pdfrwt>
<totfact> 0.13996298E+05</totfact>
</mgrwt>
</event>
<event>
 5   1  0.1388354E+00  0.8984466E+02  0.7818608E-02  0.1303228E+00
          1   -1    0    0  501    0  0.00000000000E+00  0.00000000000E+00  0.10707208496E+03  0.10707208506E+03  0.46700000000E-02 0. -1.
         -1   -1    0    0    0  501 -0.00000000000E+00 -0.00000000000E+00 -0.18847260513E+02  0.18847261092E+02  0.46700000000E-02 0.  1.
         23    2    1    2    0    0  0.00000000000E+00  0.00000000000E+00  0.88224824443E+02  0.12591934615E+03  0.89844655305E+02 0.  0.
        -13    1    3    3    0    0  0.17125703345E+02  0.18253190474E+01  0.10226097008E+03  0.10370119903E+03  0.10570000000E+00 0. -1.
         13    1    3    3    0    0 -0.17125703345E+02 -0.18253190474E+01 -0.14036145640E+02  0.22218147123E+02  0.10570000000E+00 0.  1.
<mgrwt>
<rscale>  0 0.89844655E+02</rscale>
<asrwt>0</asrwt>
<pdfrwt beam="1">  1        1 0.16472628E-01 0.89844655E+02</pdfrwt>
<pdfrwt beam="2">  1       -1 0.28995786E-02 0.89844655E+02</pdfrwt>
<totfact> 0.10996478E+05</totfact>
</mgrwt>
</event>
<event>
 5   1  0.1388354E+00  0.9097311E+02  0.7818608E-02  0.1300512E+00
          1   -1    0    0  501    0  0.00000000000E+00  0.00000000000E+00  0.12147573910E+02  0.12147574808E+02  0.46700000000E-02 0. -1.
         -1   -1    0    0    0  501 -0.00000000000E+00 -0.00000000000E+00 -0.17032426067E+03  0.17032426074E+03  0.46700000000E-02 0.  1.
         23    2    1    2    0    0  0.00000000000E+00  0.00000000000E+00 -0.15817668676E+03  0.18247183554E+03  0.90973108838E+02 0.  0.
        -13    1    3    3    0    0  0.40979822523E+02  0.16943140530E+02 -0.99405158500E+02  0.10884765764E+03  0.10570000000E+00 0. -1.
         13    1    3    3    0    0 -0.40979822523E+02 -0.16943140530E+02 -0.58771528261E+02  0.73624177902E+02  0.10570000000E+00 0.  1.
<mgrwt>
<rscale>  0 0.90973109E+02</rscale>
<asrwt>0</asrwt>
<pdfrwt beam="1">  1        1 0.18688577E-02 0.90973109E+02</pdfrwt>
<pdfrwt beam="2">  1       -1 0.26203731E-01 0.90973109E+02</pdfrwt>
<totfact> 0.72926237E+04</totfact>
</mgrwt>
</event>
<event>
 5   1  0.1388354E+00  0.9198523E+02  0.7818608E-02  0.1298114E+00
         -1   -1    0    0    0  501 -0.00000000000E+00  0.00000000000E+00  0.25297724420E+02  0.25297724852E+02  0.46700000000E-02 0.  1.
          1   -1    0    0  501    0  0.00000000000E+00 -0.00000000000E+00 -0.83617039273E+02  0.83617039403E+02  0.46700000000E-02 0. -1.
         23    2    1    2    0    0  0.00000000000E+00  0.00000000000E+00 -0.58319314852E+02  0.10891476425E+03  0.91985234619E+02 0.  0.
        -13    1    3    3    0    0  0.15841093159E+02 -0.30736269920E+02 -0.65066746192E+02  0.73684130948E+02  0.10570000000E+00 0. -1.
         13    1    3    3    0    0 -0.15841093159E+02  0.30736269920E+02  0.67474313394E+01  0.35230633307E+02  0.10570000000E+00 0.  1.
<mgrwt>
<rscale>  0 0.91985235E+02</rscale>
<asrwt>0</asrwt>
<pdfrwt beam="2">  1        1 0.12864160E-01 0.91985235E+02</pdfrwt>
<pdfrwt beam="1">  1       -1 0.38919577E-02 0.91985235E+02</pdfrwt>
<totfact> 0.99024199E+04</totfact>
</mgrwt>
</event>
<event>
 5   1  0.1388354E+00  0.9306432E+02  0.7818608E-02  0.1295596E+00
          1   -1    0    0  501    0  0.00000000000E+00  0.00000000000E+00  0.30327920151E+03  0.30327920155E+03  0.46700000000E-02 0. -1.
         -1   -1    0    0    0  501 -0.00000000000E+00 -0.00000000000E+00 -0.71394339983E+01  0.71394355256E+01  0.46700000000E-02 0.  1.
         23    2    1    2    0    0  0.00000000000E+00  0.00000000000E+00  0.29613976752E+03  0.31041863708E+03  0.93064323667E+02 0.  0.
        -13    1    3    3    0    0 -0.12447637145E+02 -0.43992414265E+02  0.11919208526E+03  0.12765986270E+03  0.10570000000E+00 0.  1.
         13    1    3    3    0    0  0.12447637145E+02  0.43992414265E+02  0.17694768225E+03  0.18275877437E+03  0.10570000000E+00 0. -1.
<mgrwt>
<rscale>  0 0.93064324E+02</rscale>
<asrwt>0</asrwt>
<pdfrwt beam="1">  1        1 0.46658339E-01 0.93064324E+02</pdfrwt>
<pdfrwt beam="2">  1       -1 0.10983746E-02 0.93064324E+02</pdfrwt>
<totfact> 0.12155567E+05</totfact>
</mgrwt>
</event>
<event>
 5   1  0.1388354E+00  0.9263100E+02  0.7818608E-02  0.1296603E+00
          1   -1    0    0  501    0  0.00000000000E+00  0.00000000000E+00  0.98224839118E+02  0.98224839229E+02  0.46700000000E-02 0. -1.
         -1   -1    0    0    0  501 -0.00000000000E+00 -0.00000000000E+00 -0.21838930815E+02  0.21838931314E+02  0.46700000000E-02 0.  1.
         23    2    1    2    0    0  0.00000000000E+00  0.00000000000E+00  0.76385908303E+02  0.12006377054E+03  0.92630999183E+02 0.  0.
        -13    1    3    3    0    0  0.25461625632E+02  0.36376051421E+02  0.55270837139E+02  0.70897024672E+02  0.10570000000E+00 0. -1.
         13    1    3    3    0    0 -0.25461625632E+02 -0.36376051421E+02  0.21115071164E+02  0.49166745871E+02  0.10570000000E+00 0.  1.
<mgrwt>
<rscale>  0 0.92630999E+02</rscale>
<asrwt>0</asrwt>
<pdfrwt beam="1">  1        1 0.15111514E-01 0.92630999E+02</pdfrwt>
<pdfrwt beam="2">  1       -1 0.33598356E-02 0.92630999E+02</pdfrwt>
<totfact> 0.99734618E+04</totfact>
</mgrwt>
</event>
<event>
 5   1  0.1388354E+00  0.8790526E+02  0.7818608E-02  0.1308005E+00
          1   -1    0    0  501    0  0.00000000000E+00  0.00000000000E+00  0.20281880698E+02  0.20281881235E+02  0.46700000000E-02 0. -1.
         -1   -1    0    0    0  501 -0.00000000000E+00 -0.00000000000E+00 -0.95249228953E+02  0.95249229067E+02  0.46700000000E-02 0.  1.
         23    2    1    2    0    0  0.00000000000E+00  0.00000000000E+00 -0.74967348255E+02  0.11553111030E+03  0.87905256631E+02 0.  0.
        -13    1    3    3    0    0  0.38780395533E+01 -0.21167637498E+02 -0.87851448624E+02  0.90448859948E+02  0.10570000000E+00 0.  1.
         13    1    3    3    0    0 -0.38780395533E+01  0.21167637498E+02  0.12884100369E+02  0.25082250354E+02  0.10570000000E+00 0. -1.
<mgrwt>
<rscale>  0 0.87905257E+02</rscale>
<asrwt>0</asrwt>
<pdfrwt beam="1">  1        1 0.31202895E-02 0.87905257E+02</pdfrwt>
<pdfrwt beam="2">  1       -1 0.14653727E-01 0.87905257E+02</pdfrwt>
<totfact> 0.90180655E+04</totfact>
</mgrwt>
</event>
<event>
 5   1  0.1388354E+00  0.9204784E+02  0.7818608E-02  0.1297967E+00
         -1   -1    0    0    0  501 -0.00000000000E+00  0.00000000000E+00  0.71503904019E+02  0.71503904171E+02  0.46700000000E-02 0.  1.
          1   -1    0    0  501    0  0.00000000000E+00 -0.00000000000E+00 -0.29623576042E+02  0.29623576410E+02  0.46700000000E-02 0. -1.
         23    2    1    2    0    0  0.00000000000E+00  0.00000000000E+00  0.41880327977E+02  0.10112748058E+03  0.92047843306E+02 0.  0.
        -13    1    3    3    0    0 -0.39705387342E+02  0.29904248332E+01  0.46297816867E+02  0.61065206492E+02  0.10570000000E+00 0.  1.
         13    1    3    3    0    0  0.39705387342E+02 -0.29904248332E+01 -0.44174888908E+01  0.40062274090E+02  0.10570000000E+00 0. -1.
<mgrwt>
<rscale>  0 0.92047843E+02</rscale>
<asrwt>0</asrwt>
<pdfrwt beam="2">  1        1 0.45574733E-02 0.92047843E+02</pdfrwt>
<pdfrwt beam="1">  1       -1 0.11000601E-01 0.92047843E+02</pdfrwt>
<totfact> 0.84172371E+04</totfact>
</mgrwt>
</event>
<event>
 5   1  0.1388354E+00  0.9141316E+02  0.7818608E-02  0.1299465E+00
         -1   -1    0    0    0  501 -0.00000000000E+00  0.00000000000E+00  0.22322704474E+02  0.22322704962E+02  0.46700000000E-02 0.  1.
          1   -1    0    0  501    0  0.00000000000E+00 -0.00000000000E+00 -0.93585938667E+02  0.93585938783E+02  0.46700000000E-02 0. -1.
         23    2    1    2    0    0  0.00000000000E+00  0.00000000000E+00 -0.71263234193E+02  0.11590864375E+03  0.91413156314E+02 0.  0.
        -13    1    3    3    0    0  0.31149377681E+02 -0.10519887920E+02 -0.75890807021E+02  0.82706574917E+02  0.10570000000E+00 0. -1.
         13    1    3    3    0    0 -0.31149377681E+02  0.10519887920E+02  0.46275728276E+01  0.33202068829E+02  0.10570000000E+00 0.  1.
<mgrwt>
<rscale>  0 0.91413156E+02</rscale>
<asrwt>0</asrwt>
<pdfrwt beam="2">  1        1 0.14397837E-01 0.91413156E+02</pdfrwt>
<pdfrwt beam="1">  1       -1 0.34342623E-02 0.91413156E+02</pdfrwt>
<totfact> 0.10258716E+05</totfact>
</mgrwt>
</event>
<event>
 5   1  0.1388354E+00  0.9237543E+02  0.7818608E-02  0.1297199E+00
         -1   -1    0    0    0  501 -0.00000000000E+00  0.00000000000E+00  0.86514554014E+02  0.86514554140E+02  0.46700000000E-02 0.  1.
          1   -1    0    0  501    0  0.00000000000E+00 -0.00000000000E+00 -0.24658335909E+02  0.24658336351E+02  0.46700000000E-02 0. -1.
         23    2    1    2    0    0  0.00000000000E+00  0.00000000000E+00  0.61856218105E+02  0.11117289049E+03  0.92375428886E+02 0.  0.
        -13    1    3    3    0    0 -0.21983798499E+02  0.19688385206E+02 -0.11831766286E+02  0.31794996059E+02  0.10570000000E+00 0. -1.
         13    1    3    3    0    0  0.21983798499E+02 -0.19688385206E+02  0.73687984391E+02  0.79377894432E+02  0.10570000000E+00 0.  1.
<mgrwt>
<rscale>  0 0.92375429E+02</rscale>
<asrwt>0</asrwt>
<pdfrwt beam="2">  1        1 0.37935902E-02 0.92375429E+02</pdfrwt>
<pdfrwt beam="1">  1       -1 0.13309931E-01 0.92375429E+02</pdfrwt>
<totfact> 0.80765068E+04</totfact>
</mgrwt>
</event>
<event>
 5   1  0.1388354E+00  0.9184291E+02  0.7818608E-02  0.1298449E+00
         -1   -1    0    0    0  501 -0.00000000000E+00  0.00000000000E+00  0.12263504717E+02  0.12263505606E+02  0.46700000000E-02 0.  1.
          1   -1    0    0  501    0  0.00000000000E+00 -0.00000000000E+00 -0.17195572499E+03  0.17195572506E+03  0.46700000000E-02 0. -1.
         23    2    1    2    0    0  0.00000000000E+00  0.00000000000E+00 -0.15969222028E+03  0.18421923066E+03  0.91842907887E+02 0.  0.
        -13    1    3    3    0    0  0.16776467490E+02  0.21267244055E+02 -0.54681341370E+01  0.27634348094E+02  0.10570000000E+00 0.  1.
         13    1    3    3    0    0 -0.16776467490E+02 -0.21267244055E+02 -0.15422408614E+03  0.15658488257E+03  0.10570000000E+00 0. -1.
<mgrwt>
<rscale>  0 0.91842908E+02</rscale>
<asrwt>0</asrwt>
<pdfrwt beam="2">  1        1 0.26454725E-01 0.91842908E+02</pdfrwt>
<pdfrwt beam="1">  1       -1 0.18866932E-02 0.91842908E+02</pdfrwt>
<totfact> 0.11279062E+05</totfact>
</mgrwt>
</event>
<event>
 5   1  0.1388354E+00  0.9146826E+02  0.7818608E-02  0.1299335E+00
         -1   -1    0    0    0  501 -0.00000000000E+00  0.00000000000E+00  0.58034495815E+02  0.58034496003E+02  0.46700000000E-02 0.  1.
          1   -1    0    0  501    0  0.00000000000E+00 -0.00000000000E+00 -0.36040819244E+02  0.36040819547E+02  0.46700000000E-02 0. -1.
         23    2    1    2    0    0  0.00000000000E+00  0.00000000000E+00  0.21993676571E+02  0.94075315550E+02  0.91468263276E+02 0.  0.
        -13    1    3    3    0    0  0.17744608491E+02 -0.41515263863E+01 -0.32145041273E+02  0.36951605550E+02  0.10570000000E+00 0. -1.
         13    1    3    3    0    0 -0.17744608491E+02  0.41515263863E+01  0.54138717844E+02  0.57123710000E+02  0.10570000000E+00 0.  1.
<mgrwt>
<rscale>  0 0.91468263E+02</rscale>
<asrwt>0</asrwt>
<pdfrwt beam="2">  1        1 0.55447415E-02 0.91468263E+02</pdfrwt>
<pdfrwt beam="1">  1       -1 0.89283839E-02 0.91468263E+02</pdfrwt>
<totfact> 0.88422110E+04</totfact>
</mgrwt>
</event>
<event>
 5   1  0.1388354E+00  0.8437554E+02  0.7818608E-02  0.1317074E+00
          1   -1    0    0  501    0  0.00000000000E+00  0.00000000000E+00  0.10137698628E+03  0.10137698639E+03  0.46700000000E-02 0. -1.
         -1   -1    0    0    0  501 -0.00000000000E+00 -0.00000000000E+00 -0.17556328987E+02  0.17556329608E+02  0.46700000000E-02 0.  1.
         23    2    1    2    0    0  0.00000000000E+00  0.00000000000E+00  0.83820657295E+02  0.11893331600E+03  0.84375535937E+02 0.  0.
        -13    1    3    3    0    0 -0.35733644801E+02 -0.21745475477E+02  0.34184963535E+02  0.54022050857E+02  0.10570000000E+00 0.  1.
         13    1    3    3    0    0  0.35733644801E+02  0.21745475477E+02  0.49635693761E+02  0.64911265140E+02  0.10570000000E+00 0. -1.
<mgrwt>
<rscale>  0 0.84375536E+02</rscale>
<asrwt>0</asrwt>
<pdfrwt beam="1">  1        1 0.15596459E-01 0.84375536E+02</pdfrwt>
<pdfrwt beam="2">  1       -1 0.27009738E-02 0.84375536E+02</pdfrwt>
<totfact> 0.12915829E+05</totfact>
</mgrwt>
</event>
<event>
 5   1  0.1388354E+00  0.8723245E+02  0.7818608E-02  0.1309696E+00
          1   -1    0    0  501    0  0.00000000000E+00  0.00000000000E+00  0.15819962548E+03  0.15819962555E+03  0.46700000000E-02 0. -1.
         -1   -1    0    0    0  501 -0.00000000000E+00 -0.00000000000E+00 -0.12025153684E+02  0.12025154591E+02  0.46700000000E-02 0.  1.
         23    2    1    2    0    0  0.00000000000E+00  0.00000000000E+00  0.14617447180E+03  0.17022478014E+03  0.87232445620E+02 0.  0.
        -13    1    3    3    0    0 -0.45936492448E+01  0.35346478010E+02  0.12214017038E+03  0.12723485181E+03  0.10570000000E+00 0. -1.
         13    1    3    3    0    0  0.45936492448E+01 -0.35346478010E+02  0.24034301417E+02  0.42989928334E+02  0.10570000000E+00 0.  1.
<mgrwt>
<rscale>  0 0.87232446E+02</rscale>
<asrwt>0</asrwt>
<pdfrwt beam="1">  1        1 0.24338403E-01 0.87232446E+02</pdfrwt>
<pdfrwt beam="2">  1       -1 0.18500238E-02 0.87232446E+02</pdfrwt>
<totfact> 0.12752205E+05</totfact>
</mgrwt>
</event>
<event>
 5   1  0.1388354E+00  0.9127008E+02  0.7818608E-02  0.1299805E+00
          1   -1    0    0  501    0  0.00000000000E+00  0.00000000000E+00  0.13446289008E+02  0.13446289818E+02  0.46700000000E-02 0. -1.
         -1   -1    0    0    0  501 -0.00000000000E+00 -0.00000000000E+00 -0.15487965978E+03  0.15487965985E+03  0.46700000000E-02 0.  1.
         23    2    1    2    0    0  0.00000000000E+00  0.00000000000E+00 -0.14143337077E+03  0.16832594967E+03  0.91270077045E+02 0.  0.
        -13    1    3    3    0    0  0.12130056679E+02 -0.41975641588E+02 -0.95005891600E+02  0.10457161839E+03  0.10570000000E+00 0. -1.
         13    1    3    3    0    0 -0.12130056679E+02  0.41975641588E+02 -0.46427479170E+02  0.63754331276E+02  0.10570000000E+00 0.  1.
<mgrwt>
<rscale>  0 0.91270077E+02</rscale>
<asrwt>0</asrwt>
<pdfrwt beam="1">  1        1 0.20686600E-02 0.91270077E+02</pdfrwt>
<pdfrwt beam="2">  1       -1 0.23827639E-01 0.91270077E+02</pdfrwt>
<totfact> 0.74027323E+04</totfact>
</mgrwt>
</event>
<event>
 5   1  0.1388354E+00  0.9036466E+02  0.7818608E-02  0.1301971E+00
         -1   -1    0    0    0  501 -0.00000000000E+00  0.00000000000E+00  0.25122240758E+02  0.25122241192E+02  0.46700000000E-02 0.  1.
          1   -1    0    0  501    0  0.00000000000E+00 -0.00000000000E+00 -0.81260385217E+02  0.81260385351E+02  0.46700000000E-02 0. -1.
         23    2    1    2    0    0  0.00000000000E+00  0.00000000000E+00 -0.56138144459E+02  0.10638262654E+03  0.90364661052E+02 0.  0.
        -13    1    3    3    0    0  0.15774351282E+02  0.28982023417E+02 -0.64405095778E+02  0.72365843976E+02  0.10570000000E+00 0. -1.
         13    1    3    3    0    0 -0.15774351282E+02 -0.28982023417E+02  0.82669513187E+01  0.34016782568E+02  0.10570000000E+00 0.  1.
<mgrwt>
<rscale>  0 0.90364661E+02</rscale>
<asrwt>0</asrwt>
<pdfrwt beam="2">  1        1 0.12501598E-01 0.90364661E+02</pdfrwt>
<pdfrwt beam="1">  1       -1 0.38649602E-02 0.90364661E+02</pdfrwt>
<totfact> 0.10349999E+05</totfact>
</mgrwt>
</event>
<event>
 5   1  0.1388354E+00  0.5606147E+02  0.7818608E-02  0.1415145E+00
          1   -1    0    0  501    0  0.00000000000E+00  0.00000000000E+00  0.45876983726E+02  0.45876983964E+02  0.46700000000E-02 0. -1.
         -1   -1    0    0    0  501 -0.00000000000E+00 -0.00000000000E+00 -0.17126713628E+02  0.17126714264E+02  0.46700000000E-02 0.  1.
         23    2    1    2    0    0  0.00000000000E+00  0.00000000000E+00  0.28750270098E+02  0.63003698228E+02  0.56061465907E+02 0.  0.
        -13    1    3    3    0    0 -0.14575729553E+02  0.35679716612E+01  0.40982412853E+02  0.43643460558E+02  0.10570000000E+00 0. -1.
         13    1    3    3    0    0  0.14575729553E+02 -0.35679716612E+01 -0.12232142754E+02  0.19360237670E+02  0.10570000000E+00 0.  1.
<mgrwt>
<rscale>  0 0.56061466E+02</rscale>
<asrwt>0</asrwt>
<pdfrwt beam="1">  1        1 0.70579975E-02 0.56061466E+02</pdfrwt>
<pdfrwt beam="2">  1       -1 0.26348791E-02 0.56061466E+02</pdfrwt>
<totfact> 0.34412160E+05</totfact>
</mgrwt>
</event>
<event>
 5   1  0.1388354E+00  0.9161204E+02  0.7818608E-02  0.1298994E+00
         -1   -1    0    0    0  501 -0.00000000000E+00  0.00000000000E+00  0.64666087592E+02  0.64666087761E+02  0.46700000000E-02 0.  1.
          1   -1    0    0  501    0  0.00000000000E+00 -0.00000000000E+00 -0.32446550926E+02  0.32446551262E+02  0.46700000000E-02 0. -1.
         23    2    1    2    0    0  0.00000000000E+00  0.00000000000E+00  0.32219536666E+02  0.97112639023E+02  0.91612041321E+02 0.  0.
        -13    1    3    3    0    0  0.34332482094E+02  0.29854333167E+02  0.21736967783E+02  0.50423283079E+02  0.10570000000E+00 0. -1.
         13    1    3    3    0    0 -0.34332482094E+02 -0.29854333167E+02  0.10482568884E+02  0.46689355944E+02  0.10570000000E+00 0.  1.
<mgrwt>
<rscale>  0 0.91612041E+02</rscale>
<asrwt>0</asrwt>
<pdfrwt beam="2">  1        1 0.49917771E-02 0.91612041E+02</pdfrwt>
<pdfrwt beam="1">  1       -1 0.99486289E-02 0.91612041E+02</pdfrwt>
<totfact> 0.86587989E+04</totfact>
</mgrwt>
</event>
<event>
 5   1  0.1388354E+00  0.9059094E+02  0.7818608E-02  0.1301427E+00
          1   -1    0    0  501    0  0.00000000000E+00  0.00000000000E+00  0.10306354095E+03  0.10306354106E+03  0.46700000000E-02 0. -1.
         -1   -1    0    0    0  501 -0.00000000000E+00 -0.00000000000E+00 -0.19906940548E+02  0.19906941096E+02  0.46700000000E-02 0.  1.
         23    2    1    2    0    0  0.00000000000E+00  0.00000000000E+00  0.83156600401E+02  0.12297048215E+03  0.90590944858E+02 0.  0.
        -13    1    3    3    0    0 -0.31572603611E+02  0.23307058266E+02  0.10874650176E+02  0.40722444091E+02  0.10570000000E+00 0.  1.
         13    1    3    3    0    0  0.31572603611E+02 -0.23307058266E+02  0.72281950226E+02  0.82248038060E+02  0.10570000000E+00 0. -1.
<mgrwt>
<rscale>  0 0.90590945E+02</rscale>
<asrwt>0</asrwt>
<pdfrwt beam="1">  1        1 0.15855930E-01 0.90590945E+02</pdfrwt>
<pdfrwt beam="2">  1       -1 0.30626063E-02 0.90590945E+02</pdfrwt>
<totfact> 0.10683691E+05</totfact>
</mgrwt>
</event>
<event>
 5   1  0.1388354E+00  0.9190063E+02  0.7818608E-02  0.1298313E+00
         -1   -1    0    0    0  501 -0.00000000000E+00  0.00000000000E+00  0.39474407164E+02  0.39474407440E+02  0.46700000000E-02 0.  1.
          1   -1    0    0  501    0  0.00000000000E+00 -0.00000000000E+00 -0.53488619254E+02  0.53488619458E+02  0.46700000000E-02 0. -1.
         23    2    1    2    0    0  0.00000000000E+00  0.00000000000E+00 -0.14014212091E+02  0.92963026898E+02  0.91900632367E+02 0.  0.
        -13    1    3    3    0    0 -0.16111180669E+02  0.28342759731E+00  0.36522553231E+02  0.39919400556E+02  0.10570000000E+00 0.  1.
         13    1    3    3    0    0  0.16111180669E+02 -0.28342759731E+00 -0.50536765322E+02  0.53043626342E+02  0.10570000000E+00 0. -1.
<mgrwt>
<rscale>  0 0.91900632E+02</rscale>
<asrwt>0</asrwt>
<pdfrwt beam="2">  1        1 0.82290184E-02 0.91900632E+02</pdfrwt>
<pdfrwt beam="1">  1       -1 0.60729857E-02 0.91900632E+02</pdfrwt>
<totfact> 0.92650361E+04</totfact>
</mgrwt>
</event>
<event>
 5   1  0.1388354E+00  0.9356231E+02  0.7818608E-02  0.1294447E+00
         -1   -1    0    0    0  501 -0.00000000000E+00  0.00000000000E+00  0.30228789329E+02  0.30228789690E+02  0.46700000000E-02 0.  1.
          1   -1    0    0  501    0  0.00000000000E+00 -0.00000000000E+00 -0.72397088820E+02  0.72397088971E+02  0.46700000000E-02 0. -1.
         23    2    1    2    0    0  0.00000000000E+00  0.00000000000E+00 -0.42168299491E+02  0.10262587866E+03  0.93562308057E+02 0.  0.
        -13    1    3    3    0    0  0.23632913625E+02 -0.39549536235E+02 -0.12187660357E+02  0.47657430273E+02  0.10570000000E+00 0. -1.
         13    1    3    3    0    0 -0.23632913625E+02  0.39549536235E+02 -0.29980639134E+02  0.54968448388E+02  0.10570000000E+00 0.  1.
<mgrwt>
<rscale>  0 0.93562308E+02</rscale>
<asrwt>0</asrwt>
<pdfrwt beam="2">  1        1 0.11138014E-01 0.93562308E+02</pdfrwt>
<pdfrwt beam="1">  1       -1 0.46505830E-02 0.93562308E+02</pdfrwt>
<totfact> 0.92353435E+04</totfact>
</mgrwt>
</event>
<event>
 5   1  0.1388354E+00  0.9040534E+02  0.7818608E-02  0.1301873E+00
         -1   -1    0    0    0  501 -0.00000000000E+00  0.00000000000E+00  0.85015443995E+01  0.85015456821E+01  0.46700000000E-02 0.  1.
          1   -1    0    0  501    0  0.00000000000E+00 -0.00000000000E+00 -0.24034236094E+03  0.24034236098E+03  0.46700000000E-02 0. -1.
         23    2    1    2    0    0  0.00000000000E+00  0.00000000000E+00 -0.23184081654E+03  0.24884390666E+03  0.90405340944E+02 0.  0.
        -13    1    3    3    0    0 -0.32873038947E+02 -0.20745765240E+02 -0.52418109941E+02  0.65258661397E+02  0.10570000000E+00 0.  1.
         13    1    3    3    0    0  0.32873038947E+02  0.20745765240E+02 -0.17942270660E+03  0.18358524527E+03  0.10570000000E+00 0. -1.
<mgrwt>
<rscale>  0 0.90405341E+02</rscale>
<asrwt>0</asrwt>
<pdfrwt beam="2">  1        1 0.36975743E-01 0.90405341E+02</pdfrwt>
<pdfrwt beam="1">  1       -1 0.13079302E-02 0.90405341E+02</pdfrwt>
<totfact> 0.12554096E+05</totfact>
</mgrwt>
</event>
<event>
 5   1  0.1388354E+00  0.9014034E+02  0.7818608E-02  0.1302512E+00
          1   -1    0    0  501    0  0.00000000000E+00  0.00000000000E+00  0.48275979597E+02  0.48275979823E+02  0.46700000000E-02 0. -1.
         -1   -1    0    0    0  501 -0.00000000000E+00 -0.00000000000E+00 -0.42077243653E+02  0.42077243912E+02  0.46700000000E-02 0.  1.
         23    2    1    2    0    0  0.00000000000E+00  0.00000000000E+00  0.61987359444E+01  0.90353223735E+02  0.90140338984E+02 0.  0.
        -13    1    3    3    0    0 -0.18728398453E+02  0.37833430855E+01  0.44015404519E+02  0.47983680569E+02  0.10570000000E+00 0. -1.
         13    1    3    3    0    0  0.18728398453E+02 -0.37833430855E+01 -0.37816668575E+02  0.42369543166E+02  0.10570000000E+00 0.  1.
<mgrwt>
<rscale>  0 0.90140339E+02</rscale>
<asrwt>0</asrwt>
<pdfrwt beam="1">  1        1 0.74270739E-02 0.90140339E+02</pdfrwt>
<pdfrwt beam="2">  1       -1 0.64734221E-02 0.90140339E+02</pdfrwt>
<totfact> 0.96300012E+04</totfact>
</mgrwt>
</event>
<event>
 5   1  0.1388354E+00  0.9398349E+02  0.7818608E-02  0.1293482E+00
          1   -1    0    0  501    0  0.00000000000E+00  0.00000000000E+00  0.12104624314E+03  0.12104624323E+03  0.46700000000E-02 0. -1.
         -1   -1    0    0    0  501 -0.00000000000E+00 -0.00000000000E+00 -0.18242815190E+02  0.18242815788E+02  0.46700000000E-02 0.  1.
         23    2    1    2    0    0  0.00000000000E+00  0.00000000000E+00  0.10280342795E+03  0.13928905902E+03  0.93983494104E+02 0.  0.
        -13    1    3    3    0    0  0.42178896419E+02  0.17864073389E+02  0.35855723300E+02  0.58170684086E+02  0.10570000000E+00 0. -1.
         13    1    3    3    0    0 -0.42178896419E+02 -0.17864073389E+02  0.66947704653E+02  0.81118374935E+02  0.10570000000E+00 0.  1.
<mgrwt>
<rscale>  0 0.93983494E+02</rscale>
<asrwt>0</asrwt>
<pdfrwt beam="1">  1        1 0.18622500E-01 0.93983494E+02</pdfrwt>
<pdfrwt beam="2">  1       -1 0.28065869E-02 0.93983494E+02</pdfrwt>
<totfact> 0.99363797E+04</totfact>
</mgrwt>
</event>
<event>
 5   1  0.1388354E+00  0.9200275E+02  0.7818608E-02  0.1298073E+00
          1   -1    0    0  501    0  0.00000000000E+00  0.00000000000E+00  0.18153763695E+03  0.18153763701E+03  0.46700000000E-02 0. -1.
         -1   -1    0    0    0  501 -0.00000000000E+00 -0.00000000000E+00 -0.11656681082E+02  0.11656682017E+02  0.46700000000E-02 0.  1.
         23    2    1    2    0    0  0.00000000000E+00  0.00000000000E+00  0.16988095587E+03  0.19319431903E+03  0.92002748533E+02 0.  0.
        -13    1    3    3    0    0  0.37517397410E+01 -0.33277676883E+02  0.18714920582E+02  0.38363247447E+02  0.10570000000E+00 0.  1.
         13    1    3    3    0    0 -0.37517397410E+01  0.33277676883E+02  0.15116603529E+03  0.15483107158E+03  0.10570000000E+00 0. -1.
<mgrwt>
<rscale>  0 0.92002749E+02</rscale>
<asrwt>0</asrwt>
<pdfrwt beam="1">  1        1 0.27928864E-01 0.92002749E+02</pdfrwt>
<pdfrwt beam="2">  1       -1 0.17933358E-02 0.92002749E+02</pdfrwt>
<totfact> 0.11342982E+05</totfact>
</mgrwt>
</event>
<event>
 5   1  0.1388354E+00  0.9535143E+02  0.7818608E-02  0.1290387E+00
          1   -1    0    0  501    0  0.00000000000E+00  0.00000000000E+00  0.23366663878E+03  0.23366663882E+03  0.46700000000E-02 0. -1.
         -1   -1    0    0    0  501 -0.00000000000E+00 -0.00000000000E+00 -0.97274198287E+01  0.97274209497E+01  0.46700000000E-02 0.  1.
         23    2    1    2    0    0  0.00000000000E+00  0.00000000000E+00  0.22393921895E+03  0.24339405977E+03  0.95351426575E+02 0.  0.
        -13    1    3    3    0    0 -0.17332807414E+02 -0.42238584123E+02  0.76929348959E+02  0.89457588305E+02  0.10570000000E+00 0.  1.
         13    1    3    3    0    0  0.17332807414E+02  0.42238584123E+02  0.14700986999E+03  0.15393647147E+03  0.10570000000E+00 0. -1.
<mgrwt>
<rscale>  0 0.95351427E+02</rscale>
<asrwt>0</asrwt>
<pdfrwt beam="1">  1        1 0.35948719E-01 0.95351427E+02</pdfrwt>
<pdfrwt beam="2">  1       -1 0.14965260E-02 0.95351427E+02</pdfrwt>
<totfact> 0.10823858E+05</totfact>
</mgrwt>
</event>
<event>
 5   1  0.1388354E+00  0.9176645E+02  0.7818608E-02  0.1298629E+00
         -1   -1    0    0    0  501 -0.00000000000E+00  0.00000000000E+00  0.22248360006E+02  0.22248360497E+02  0.46700000000E-02 0.  1.
          1   -1    0    0  501    0  0.00000000000E+00 -0.00000000000E+00 -0.94625873063E+02  0.94625873179E+02  0.46700000000E-02 0. -1.
         23    2    1    2    0    0  0.00000000000E+00  0.00000000000E+00 -0.72377513057E+02  0.11687423368E+03  0.91766454115E+02 0.  0.
        -13    1    3    3    0    0 -0.30220235523E+02  0.27667785532E+02 -0.62490796647E+02  0.74725362692E+02  0.10570000000E+00 0. -1.
         13    1    3    3    0    0  0.30220235523E+02 -0.27667785532E+02 -0.98867164098E+01  0.42148870983E+02  0.10570000000E+00 0.  1.
<mgrwt>
<rscale>  0 0.91766454E+02</rscale>
<asrwt>0</asrwt>
<pdfrwt beam="2">  1        1 0.14557826E-01 0.91766454E+02</pdfrwt>
<pdfrwt beam="1">  1       -1 0.34228247E-02 0.91766454E+02</pdfrwt>
<totfact> 0.10169491E+05</totfact>
</mgrwt>
</event>
<event>
 5   1  0.1388354E+00  0.9259010E+02  0.7818608E-02  0.1296698E+00
          1   -1    0    0  501    0  0.00000000000E+00  0.00000000000E+00  0.35797725702E+02  0.35797726007E+02  0.46700000000E-02 0. -1.
         -1   -1    0    0    0  501 -0.00000000000E+00 -0.00000000000E+00 -0.59870603989E+02  0.59870604171E+02  0.46700000000E-02 0.  1.
         23    2    1    2    0    0  0.00000000000E+00  0.00000000000E+00 -0.24072878287E+02  0.95668330178E+02  0.92590096285E+02 0.  0.
        -13    1    3    3    0    0  0.19727259316E+02 -0.37167584096E+02 -0.31981730121E+02  0.52852968712E+02  0.10570000000E+00 0.  1.
         13    1    3    3    0    0 -0.19727259316E+02  0.37167584096E+02  0.79088518344E+01  0.42815361466E+02  0.10570000000E+00 0. -1.
<mgrwt>
<rscale>  0 0.92590096E+02</rscale>
<asrwt>0</asrwt>
<pdfrwt beam="1">  1        1 0.55073425E-02 0.92590096E+02</pdfrwt>
<pdfrwt beam="2">  1       -1 0.92108621E-02 0.92590096E+02</pdfrwt>
<totfact> 0.85314177E+04</totfact>
</mgrwt>
</event>
<event>
 5   1  0.1388354E+00  0.9071928E+02  0.7818608E-02  0.1301119E+00
          1   -1    0    0  501    0  0.00000000000E+00  0.00000000000E+00  0.41466662627E+02  0.41466662890E+02  0.46700000000E-02 0. -1.
         -1   -1    0    0    0  501 -0.00000000000E+00 -0.00000000000E+00 -0.49618093734E+02  0.49618093954E+02  0.46700000000E-02 0.  1.
         23    2    1    2    0    0  0.00000000000E+00  0.00000000000E+00 -0.81514311070E+01  0.91084756844E+02  0.90719276343E+02 0.  0.
        -13    1    3    3    0    0  0.36811350243E+02  0.19527393182E+02  0.13915487289E+02  0.43932295071E+02  0.10570000000E+00 0. -1.
         13    1    3    3    0    0 -0.36811350243E+02 -0.19527393182E+02 -0.22066918396E+02  0.47152461773E+02  0.10570000000E+00 0.  1.
<mgrwt>
<rscale>  0 0.90719276E+02</rscale>
<asrwt>0</asrwt>
<pdfrwt beam="1">  1        1 0.63794866E-02 0.90719276E+02</pdfrwt>
<pdfrwt beam="2">  1       -1 0.76335529E-02 0.90719276E+02</pdfrwt>
<totfact> 0.92461569E+04</totfact>
</mgrwt>
</event>
<event>
 5   1  0.1388354E+00  0.9057860E+02  0.7818608E-02  0.1301457E+00
          1   -1    0    0  501    0  0.00000000000E+00  0.00000000000E+00  0.23868045482E+03  0.23868045487E+03  0.46700000000E-02 0. -1.
         -1   -1    0    0    0  501 -0.00000000000E+00 -0.00000000000E+00 -0.85935834933E+01  0.85935847623E+01  0.46700000000E-02 0.  1.
         23    2    1    2    0    0  0.00000000000E+00  0.00000000000E+00  0.23008687133E+03  0.24727403963E+03  0.90578597457E+02 0.  0.
        -13    1    3    3    0    0  0.45258251307E+02  0.15805433563E+01  0.11654360648E+03  0.12503291892E+03  0.10570000000E+00 0.  1.
         13    1    3    3    0    0 -0.45258251307E+02 -0.15805433563E+01  0.11354326485E+03  0.12224112071E+03  0.10570000000E+00 0. -1.
<mgrwt>
<rscale>  0 0.90578597E+02</rscale>
<asrwt>0</asrwt>
<pdfrwt beam="1">  1        1 0.36720067E-01 0.90578597E+02</pdfrwt>
<pdfrwt beam="2">  1       -1 0.13220900E-02 0.90578597E+02</pdfrwt>
<totfact> 0.12473233E+05</totfact>
</mgrwt>
</event>
<event>
 5   1  0.1388354E+00  0.9102069E+02  0.7818608E-02  0.1300399E+00
         -1   -1    0    0    0  501 -0.00000000000E+00  0.00000000000E+00  0.13299071241E+03  0.13299071249E+03  0.46700000000E-02 0.  1.
          1   -1    0    0  501    0  0.00000000000E+00 -0.00000000000E+00 -0.15573955497E+02  0.15573956197E+02  0.46700000000E-02 0. -1.
         23    2    1    2    0    0  0.00000000000E+00  0.00000000000E+00  0.11741675691E+03  0.14856466869E+03  0.91020689839E+02 0.  0.
        -13    1    3    3    0    0 -0.27874976601E+02  0.34399579528E+01  0.11715720187E+03  0.12047683907E+03  0.10570000000E+00 0.  1.
         13    1    3    3    0    0  0.27874976601E+02 -0.34399579528E+01  0.25955504530E+00  0.28087829616E+02  0.10570000000E+00 0. -1.
<mgrwt>
<rscale>  0 0.91020690E+02</rscale>
<asrwt>0</asrwt>
<pdfrwt beam="2">  1        1 0.23959931E-02 0.91020690E+02</pdfrwt>
<pdfrwt beam="1">  1       -1 0.20460110E-01 0.91020690E+02</pdfrwt>
<totfact> 0.77188744E+04</totfact>
</mgrwt>
</event>
<event>
 5   1  0.1388354E+00  0.9390379E+02  0.7818608E-02  0.1293664E+00
          1   -1    0    0  501    0  0.00000000000E+00  0.00000000000E+00  0.61383812439E+02  0.61383812616E+02  0.46700000000E-02 0. -1.
         -1   -1    0    0    0  501 -0.00000000000E+00 -0.00000000000E+00 -0.35913057095E+02  0.35913057399E+02  0.46700000000E-02 0.  1.
         23    2    1    2    0    0  0.00000000000E+00  0.00000000000E+00  0.25470755343E+02  0.97296870015E+02  0.93903788726E+02 0.  0.
        -13    1    3    3    0    0  0.14870237955E+01 -0.39037206276E+02 -0.14250969865E+02  0.41583843355E+02  0.10570000000E+00 0.  1.
         13    1    3    3    0    0 -0.14870237955E+01  0.39037206276E+02  0.39721725208E+02  0.55713026660E+02  0.10570000000E+00 0. -1.
<mgrwt>
<rscale>  0 0.93903789E+02</rscale>
<asrwt>0</asrwt>
<pdfrwt beam="1">  1        1 0.94436634E-02 0.93903789E+02</pdfrwt>
<pdfrwt beam="2">  1       -1 0.55250858E-02 0.93903789E+02</pdfrwt>
<totfact> 0.89098043E+04</totfact>
</mgrwt>
</event>
<event>
 5   1  0.1388354E+00  0.8370085E+02  0.7818608E-02  0.1318865E+00
         -1   -1    0    0    0  501 -0.00000000000E+00  0.00000000000E+00  0.86092164706E+01  0.86092177372E+01  0.46700000000E-02 0.  1.
          1   -1    0    0  501    0  0.00000000000E+00 -0.00000000000E+00 -0.20343989954E+03  0.20343989960E+03  0.46700000000E-02 0. -1.
         23    2    1    2    0    0  0.00000000000E+00  0.00000000000E+00 -0.19483068307E+03  0.21204911733E+03  0.83700854808E+02 0.  0.
        -13    1    3    3    0    0  0.38338687006E+02  0.16281039121E+02 -0.10771234544E+03  0.11548544362E+03  0.10570000000E+00 0. -1.
         13    1    3    3    0    0 -0.38338687006E+02 -0.16281039121E+02 -0.87118337633E+02  0.96563673712E+02  0.10570000000E+00 0.  1.
<mgrwt>
<rscale>  0 0.83700855E+02</rscale>
<asrwt>0</asrwt>
<pdfrwt beam="2">  1        1 0.31298442E-01 0.83700855E+02</pdfrwt>
<pdfrwt beam="1">  1       -1 0.13244951E-02 0.83700855E+02</pdfrwt>
<totfact> 0.14924545E+05</totfact>
</mgrwt>
</event>
<event>
 5   1  0.1388354E+00  0.9498301E+02  0.7818608E-02  0.1291214E+00
         -1   -1    0    0    0  501 -0.00000000000E+00  0.00000000000E+00  0.46481941702E+02  0.46481941936E+02  0.46700000000E-02 0.  1.
          1   -1    0    0  501    0  0.00000000000E+00 -0.00000000000E+00 -0.48522996022E+02  0.48522996247E+02  0.46700000000E-02 0. -1.
         23    2    1    2    0    0  0.00000000000E+00  0.00000000000E+00 -0.20410543206E+01  0.95004938183E+02  0.94983010988E+02 0.  0.
        -13    1    3    3    0    0  0.35824246309E+02 -0.68627119126E+01 -0.31440678261E+02  0.48156005445E+02  0.10570000000E+00 0.  1.
         13    1    3    3    0    0 -0.35824246309E+02  0.68627119126E+01  0.29399623940E+02  0.46848932738E+02  0.10570000000E+00 0. -1.
<mgrwt>
<rscale>  0 0.94983011E+02</rscale>
<asrwt>0</asrwt>
<pdfrwt beam="2">  1        1 0.74650763E-02 0.94983011E+02</pdfrwt>
<pdfrwt beam="1">  1       -1 0.71510680E-02 0.94983011E+02</pdfrwt>
<totfact> 0.83206931E+04</totfact>
</mgrwt>
</event>
<event>
 5   1  0.1388354E+00  0.9100304E+02  0.7818608E-02  0.1300441E+00
         -1   -1    0    0    0  501 -0.00000000000E+00  0.00000000000E+00  0.76063073890E+02  0.76063074033E+02  0.46700000000E-02 0.  1.
          1   -1    0    0  501    0  0.00000000000E+00 -0.00000000000E+00 -0.27219361223E+02  0.27219361624E+02  0.46700000000E-02 0. -1.
         23    2    1    2    0    0  0.00000000000E+00  0.00000000000E+00  0.48843712666E+02  0.10328243566E+03  0.91003039775E+02 0.  0.
        -13    1    3    3    0    0  0.71909471633E+01  0.25078457883E+02  0.66731278667E+02  0.71649937166E+02  0.10570000000E+00 0.  1.
         13    1    3    3    0    0 -0.71909471633E+01 -0.25078457883E+02 -0.17887566001E+02  0.31632498491E+02  0.10570000000E+00 0. -1.
<mgrwt>
<rscale>  0 0.91003040E+02</rscale>
<asrwt>0</asrwt>
<pdfrwt beam="2">  1        1 0.41875941E-02 0.91003040E+02</pdfrwt>
<pdfrwt beam="1">  1       -1 0.11702011E-01 0.91003040E+02</pdfrwt>
<totfact> 0.85787190E+04</totfact>
</mgrwt>
</event>
<event>
 5   1  0.1388354E+00  0.8900619E+02  0.7818608E-02  0.1305276E+00
          1   -1    0    0  501    0  0.00000000000E+00  0.00000000000E+00  0.32646091756E+02  0.32646092090E+02  0.46700000000E-02 0. -1.
         -1   -1    0    0    0  501 -0.00000000000E+00 -0.00000000000E+00 -0.60666543816E+02  0.60666543996E+02  0.46700000000E-02 0.  1.
         23    2    1    2    0    0  0.00000000000E+00  0.00000000000E+00 -0.28020452059E+02  0.93312636086E+02  0.89006192592E+02 0.  0.
        -13    1    3    3    0    0  0.17212554300E+02  0.25403784348E+02 -0.47801537183E+02  0.56803366223E+02  0.10570000000E+00 0.  1.
         13    1    3    3    0    0 -0.17212554300E+02 -0.25403784348E+02  0.19781085124E+02  0.36509269863E+02  0.10570000000E+00 0. -1.
<mgrwt>
<rscale>  0 0.89006193E+02</rscale>
<asrwt>0</asrwt>
<pdfrwt beam="1">  1        1 0.50224757E-02 0.89006193E+02</pdfrwt>
<pdfrwt beam="2">  1       -1 0.93333144E-02 0.89006193E+02</pdfrwt>
<totfact> 0.94101295E+04</totfact>
</mgrwt>
</event>
<event>
 5   1  0.1388354E+00  0.8818442E+02  0.7818608E-02  0.1307309E+00
          1   -1    0    0  501    0  0.00000000000E+00  0.00000000000E+00  0.31165601894E+03  0.31165601898E+03  0.46700000000E-02 0. -1.
         -1   -1    0    0    0  501 -0.00000000000E+00 -0.00000000000E+00 -0.62380405394E+01  0.62380422875E+01  0.46700000000E-02 0.  1.
         23    2    1    2    0    0  0.00000000000E+00  0.00000000000E+00  0.30541797840E+03  0.31789406127E+03  0.88184424111E+02 0.  0.
        -13    1    3    3    0    0 -0.39343228384E+02  0.10336119160E+02  0.21403292917E+03  0.21786424883E+03  0.10570000000E+00 0. -1.
         13    1    3    3    0    0  0.39343228384E+02 -0.10336119160E+02  0.91385049236E+02  0.10002981243E+03  0.10570000000E+00 0.  1.
<mgrwt>
<rscale>  0 0.88184424E+02</rscale>
<asrwt>0</asrwt>
<pdfrwt beam="1">  1        1 0.47947089E-01 0.88184424E+02</pdfrwt>
<pdfrwt beam="2">  1       -1 0.95969850E-03 0.88184424E+02</pdfrwt>
<totfact> 0.14101697E+05</totfact>
</mgrwt>
</event>
<event>
 5   1  0.1388354E+00  0.9071394E+02  0.7818608E-02  0.1301132E+00
         -1   -1    0    0    0  501 -0.00000000000E+00  0.00000000000E+00  0.66585398024E+02  0.66585398188E+02  0.46700000000E-02 0.  1.
          1   -1    0    0  501    0  0.00000000000E+00 -0.00000000000E+00 -0.30896482952E+02  0.30896483305E+02  0.46700000000E-02 0. -1.
         23    2    1    2    0    0  0.00000000000E+00  0.00000000000E+00  0.35688915072E+02  0.97481881493E+02  0.90713938072E+02 0.  0.
        -13    1    3    3    0    0 -0.17998520480E+02 -0.31738447414E+02 -0.11109539548E+02  0.38140645317E+02  0.10570000000E+00 0. -1.
         13    1    3    3    0    0  0.17998520480E+02  0.31738447414E+02  0.46798454620E+02  0.59341236177E+02  0.10570000000E+00 0.  1.
<mgrwt>
<rscale>  0 0.90713938E+02</rscale>
<asrwt>0</asrwt>
<pdfrwt beam="2">  1        1 0.47533052E-02 0.90713938E+02</pdfrwt>
<pdfrwt beam="1">  1       -1 0.10243907E-01 0.90713938E+02</pdfrwt>
<totfact> 0.88374165E+04</totfact>
</mgrwt>
</event>
<event>
 5   1  0.1388354E+00  0.9410449E+02  0.7818608E-02  0.1293206E+00
          1   -1    0    0  501    0  0.00000000000E+00  0.00000000000E+00  0.22678135678E+02  0.22678136159E+02  0.46700000000E-02 0. -1.
         -1   -1    0    0    0  501 -0.00000000000E+00 -0.00000000000E+00 -0.97623273888E+02  0.97623274000E+02  0.46700000000E-02 0.  1.
         23    2    1    2    0    0  0.00000000000E+00  0.00000000000E+00 -0.74945138210E+02  0.12030141016E+03  0.94104492692E+02 0.  0.
        -13    1    3    3    0    0  0.14057199800E+02 -0.91025563063E+01  0.18739019322E+02  0.25132119194E+02  0.10570000000E+00 0. -1.
         13    1    3    3    0    0 -0.14057199800E+02  0.91025563063E+01 -0.93684157533E+02  0.95169290964E+02  0.10570000000E+00 0.  1.
<mgrwt>
<rscale>  0 0.94104493E+02</rscale>
<asrwt>0</asrwt>
<pdfrwt beam="1">  1        1 0.34889440E-02 0.94104493E+02</pdfrwt>
<pdfrwt beam="2">  1       -1 0.15018965E-01 0.94104493E+02</pdfrwt>
<totfact> 0.75339730E+04</totfact>
</mgrwt>
</event>
<event>
 5   1  0.1388354E+00  0.9006875E+02  0.7818608E-02  0.1302685E+00
          1   -1    0    0  501    0  0.00000000000E+00  0.00000000000E+00  0.28472587559E+02  0.28472587942E+02  0.46700000000E-02 0. -1.
         -1   -1    0    0    0  501 -0.00000000000E+00 -0.00000000000E+00 -0.71229737498E+02  0.71229737651E+02  0.46700000000E-02 0.  1.
         23    2    1    2    0    0  0.00000000000E+00  0.00000000000E+00 -0.42757149938E+02  0.99702325593E+02  0.90068750729E+02 0.  0.
        -13    1    3    3    0    0 -0.89974431783E+01  0.35092571523E+02 -0.50991330878E+02  0.62550536025E+02  0.10570000000E+00 0.  1.
         13    1    3    3    0    0  0.89974431783E+01 -0.35092571523E+02  0.82341809393E+01  0.37151789568E+02  0.10570000000E+00 0. -1.
<mgrwt>
<rscale>  0 0.90068751E+02</rscale>
<asrwt>0</asrwt>
<pdfrwt beam="1">  1        1 0.43803981E-02 0.90068751E+02</pdfrwt>
<pdfrwt beam="2">  1       -1 0.10958421E-01 0.90068751E+02</pdfrwt>
<totfact> 0.89026706E+04</totfact>
</mgrwt>
</event>
<event>
 5   1  0.1388354E+00  0.6759209E+02  0.7818608E-02  0.1368478E+00
         -1   -1    0    0    0  501 -0.00000000000E+00  0.00000000000E+00  0.14666758053E+02  0.14666758796E+02  0.46700000000E-02 0.  1.
          1   -1    0    0  501    0  0.00000000000E+00 -0.00000000000E+00 -0.77874919536E+02  0.77874919676E+02  0.46700000000E-02 0. -1.
         23    2    1    2    0    0  0.00000000000E+00  0.00000000000E+00 -0.63208161483E+02  0.92541678473E+02  0.67592089600E+02 0.  0.
        -13    1    3    3    0    0 -0.11615385517E+01 -0.15725321036E+02 -0.72529697877E+02  0.74224006494E+02  0.10570000000E+00 0. -1.
         13    1    3    3    0    0  0.11615385517E+01  0.15725321036E+02  0.93215363934E+01  0.18317671978E+02  0.10570000000E+00 0.  1.
<mgrwt>
<rscale>  0 0.67592090E+02</rscale>
<asrwt>0</asrwt>
<pdfrwt beam="2">  1        1 0.11980757E-01 0.67592090E+02</pdfrwt>
<pdfrwt beam="1">  1       -1 0.22564244E-02 0.67592090E+02</pdfrwt>
<totfact> 0.22443535E+05</totfact>
</mgrwt>
</event>
<event>
 5   1  0.1388354E+00  0.9120909E+02  0.7818608E-02  0.1299950E+00
         -1   -1    0    0    0  501 -0.00000000000E+00  0.00000000000E+00  0.35963938323E+02  0.35963938626E+02  0.46700000000E-02 0.  1.
          1   -1    0    0  501    0  0.00000000000E+00 -0.00000000000E+00 -0.57829440916E+02  0.57829441105E+02  0.46700000000E-02 0. -1.
         23    2    1    2    0    0  0.00000000000E+00  0.00000000000E+00 -0.21865502593E+02  0.93793379731E+02  0.91209088789E+02 0.  0.
        -13    1    3    3    0    0  0.12668532420E+02  0.14376438292E+02  0.31623240871E+02  0.36975860061E+02  0.10570000000E+00 0.  1.
         13    1    3    3    0    0 -0.12668532420E+02 -0.14376438292E+02 -0.53488743464E+02  0.56817519670E+02  0.10570000000E+00 0. -1.
<mgrwt>
<rscale>  0 0.91209089E+02</rscale>
<asrwt>0</asrwt>
<pdfrwt beam="2">  1        1 0.88968371E-02 0.91209089E+02</pdfrwt>
<pdfrwt beam="1">  1       -1 0.55329136E-02 0.91209089E+02</pdfrwt>
<totfact> 0.95742033E+04</totfact>
</mgrwt>
</event>
<event>
 5   1  0.1388354E+00  0.9207194E+02  0.7818608E-02  0.1297910E+00
          1   -1    0    0  501    0  0.00000000000E+00  0.00000000000E+00  0.50732366144E+02  0.50732366359E+02  0.46700000000E-02 0. -1.
         -1   -1    0    0    0  501 -0.00000000000E+00 -0.00000000000E+00 -0.41774329520E+02  0.41774329781E+02  0.46700000000E-02 0.  1.
         23    2    1    2    0    0  0.00000000000E+00  0.00000000000E+00  0.89580366237E+01  0.92506696140E+02  0.92071941494E+02 0.  0.
        -13    1    3    3    0    0  0.35710930299E+02  0.13484097142E+02 -0.21375894926E+02  0.43749645426E+02  0.10570000000E+00 0.  1.
         13    1    3    3    0    0 -0.35710930299E+02 -0.13484097142E+02  0.30333931550E+02  0.48757050714E+02  0.10570000000E+00 0. -1.
<mgrwt>
<rscale>  0 0.92071941E+02</rscale>
<asrwt>0</asrwt>
<pdfrwt beam="1">  1        1 0.78049794E-02 0.92071941E+02</pdfrwt>
<pdfrwt beam="2">  1       -1 0.64268200E-02 0.92071941E+02</pdfrwt>
<totfact> 0.91434623E+04</totfact>
</mgrwt>
</event>
<event>
 5   1  0.1388354E+00  0.8929210E+02  0.7818608E-02  0.1304575E+00
          1   -1    0    0  501    0  0.00000000000E+00  0.00000000000E+00  0.38554000342E+03  0.38554000344E+03  0.46700000000E-02 0. -1.
         -1   -1    0    0    0  501 -0.00000000000E+00 -0.00000000000E+00 -0.51700717145E+01  0.51700738237E+01  0.46700000000E-02 0.  1.
         23    2    1    2    0    0  0.00000000000E+00  0.00000000000E+00  0.38036993170E+03  0.39071007727E+03  0.89292102317E+02 0.  0.
        -13    1    3    3    0    0 -0.42488000000E+02 -0.67084806530E+01  0.24251455469E+03  0.24629972446E+03  0.10570000000E+00 0. -1.
         13    1    3    3    0    0  0.42488000000E+02  0.67084806530E+01  0.13785537701E+03  0.14441035281E+03  0.10570000000E+00 0.  1.
<mgrwt>
<rscale>  0 0.89292102E+02</rscale>
<asrwt>0</asrwt>
<pdfrwt beam="1">  1        1 0.59313839E-01 0.89292102E+02</pdfrwt>
<pdfrwt beam="2">  1       -1 0.79539591E-03 0.89292102E+02</pdfrwt>
<totfact> 0.14170484E+05</totfact>
</mgrwt>
</event>
<event>
 5   1  0.1388354E+00  0.9228832E+02  0.7818608E-02  0.1297403E+00
          1   -1    0    0  501    0  0.00000000000E+00  0.00000000000E+00  0.38257909108E+03  0.38257909111E+03  0.46700000000E-02 0. -1.
         -1   -1    0    0    0  501 -0.00000000000E+00 -0.00000000000E+00 -0.55656019971E+01  0.55656039564E+01  0.46700000000E-02 0.  1.
         23    2    1    2    0    0  0.00000000000E+00  0.00000000000E+00  0.37701348908E+03  0.38814469507E+03  0.92288316468E+02 0.  0.
        -13    1    3    3    0    0  0.27991444530E+02 -0.34895936641E+02  0.23609436553E+03  0.24029525165E+03  0.10570000000E+00 0. -1.
         13    1    3    3    0    0 -0.27991444530E+02  0.34895936641E+02  0.14091912356E+03  0.14784944341E+03  0.10570000000E+00 0.  1.
<mgrwt>
<rscale>  0 0.92288316E+02</rscale>
<asrwt>0</asrwt>
<pdfrwt beam="1">  1        1 0.58858312E-01 0.92288316E+02</pdfrwt>
<pdfrwt beam="2">  1       -1 0.85624676E-03 0.92288316E+02</pdfrwt>
<totfact> 0.12964659E+05</totfact>
</mgrwt>
</event>
<event>
 5   1  0.1388354E+00  0.9188661E+02  0.7818608E-02  0.1298346E+00
          1   -1    0    0  501    0  0.00000000000E+00  0.00000000000E+00  0.39581475138E+02  0.39581475414E+02  0.46700000000E-02 0. -1.
         -1   -1    0    0    0  501 -0.00000000000E+00 -0.00000000000E+00 -0.53327658596E+02  0.53327658801E+02  0.46700000000E-02 0.  1.
         23    2    1    2    0    0  0.00000000000E+00  0.00000000000E+00 -0.13746183458E+02  0.92909134214E+02  0.91886613067E+02 0.  0.
        -13    1    3    3    0    0 -0.56003090646E+01  0.29092657606E+02 -0.42378376521E+02  0.51707679867E+02  0.10570000000E+00 0.  1.
         13    1    3    3    0    0  0.56003090646E+01 -0.29092657606E+02  0.28632193063E+02  0.41201454347E+02  0.10570000000E+00 0. -1.
<mgrwt>
<rscale>  0 0.91886613E+02</rscale>
<asrwt>0</asrwt>
<pdfrwt beam="1">  1        1 0.60894577E-02 0.91886613E+02</pdfrwt>
<pdfrwt beam="2">  1       -1 0.82042552E-02 0.91886613E+02</pdfrwt>
<totfact> 0.88553339E+04</totfact>
</mgrwt>
</event>
<event>
 5   1  0.1388354E+00  0.9426595E+02  0.7818608E-02  0.1292838E+00
         -1   -1    0    0    0  501 -0.00000000000E+00  0.00000000000E+00  0.11141135057E+03  0.11141135067E+03  0.46700000000E-02 0.  1.
          1   -1    0    0  501    0  0.00000000000E+00 -0.00000000000E+00 -0.19939774902E+02  0.19939775449E+02  0.46700000000E-02 0. -1.
         23    2    1    2    0    0  0.00000000000E+00  0.00000000000E+00  0.91471575668E+02  0.13135112612E+03  0.94265949191E+02 0.  0.
        -13    1    3    3    0    0 -0.30149437464E+02 -0.33239541115E+02  0.65814941001E+02  0.79658479175E+02  0.10570000000E+00 0.  1.
         13    1    3    3    0    0  0.30149437464E+02  0.33239541115E+02  0.25656634666E+02  0.51692646941E+02  0.10570000000E+00 0. -1.
<mgrwt>
<rscale>  0 0.94265949E+02</rscale>
<asrwt>0</asrwt>
<pdfrwt beam="2">  1        1 0.30676577E-02 0.94265949E+02</pdfrwt>
<pdfrwt beam="1">  1       -1 0.17140208E-01 0.94265949E+02</pdfrwt>
<totfact> 0.73129531E+04</totfact>
</mgrwt>
</event>
<event>
 5   1  0.1388354E+00  0.9206814E+02  0.7818608E-02  0.1297919E+00
          1   -1    0    0  501    0  0.00000000000E+00  0.00000000000E+00  0.26129483795E+02  0.26129484212E+02  0.46700000000E-02 0. -1.
         -1   -1    0    0    0  501 -0.00000000000E+00 -0.00000000000E+00 -0.81101320907E+02  0.81101321041E+02  0.46700000000E-02 0.  1.
         23    2    1    2    0    0  0.00000000000E+00  0.00000000000E+00 -0.54971837112E+02  0.10723080525E+03  0.92068141720E+02 0.  0.
        -13    1    3    3    0    0 -0.18021406799E+02  0.21195336212E+02  0.15229953053E+02  0.31717125069E+02  0.10570000000E+00 0. -1.
         13    1    3    3    0    0  0.18021406799E+02 -0.21195336212E+02 -0.70201790165E+02  0.75513680184E+02  0.10570000000E+00 0.  1.
<mgrwt>
<rscale>  0 0.92068142E+02</rscale>
<asrwt>0</asrwt>
<pdfrwt beam="1">  1        1 0.40199207E-02 0.92068142E+02</pdfrwt>
<pdfrwt beam="2">  1       -1 0.12477126E-01 0.92068142E+02</pdfrwt>
<totfact> 0.82374340E+04</totfact>
</mgrwt>
</event>
<event>
 5   1  0.1388354E+00  0.9533084E+02  0.7818608E-02  0.1290433E+00
          1   -1    0    0  501    0  0.00000000000E+00  0.00000000000E+00  0.39465721088E+03  0.39465721091E+03  0.46700000000E-02 0. -1.
         -1   -1    0    0    0  501 -0.00000000000E+00 -0.00000000000E+00 -0.57568745307E+01  0.57568764248E+01  0.46700000000E-02 0.  1.
         23    2    1    2    0    0  0.00000000000E+00  0.00000000000E+00  0.38890033635E+03  0.40041408733E+03  0.95330843496E+02 0.  0.
        -13    1    3    3    0    0  0.47462116708E+02  0.25297602575E+01  0.17934730822E+03  0.18553846056E+03  0.10570000000E+00 0. -1.
         13    1    3    3    0    0 -0.47462116708E+02 -0.25297602575E+01  0.20955302813E+03  0.21487562677E+03  0.10570000000E+00 0.  1.
<mgrwt>
<rscale>  0 0.95330843E+02</rscale>
<asrwt>0</asrwt>
<pdfrwt beam="1">  1        1 0.60716492E-01 0.95330843E+02</pdfrwt>
<pdfrwt beam="2">  1       -1 0.88567318E-03 0.95330843E+02</pdfrwt>
<totfact> 0.11953667E+05</totfact>
</mgrwt>
</event>
<event>
 5   1  0.1388354E+00  0.9174631E+02  0.7818608E-02  0.1298677E+00
         -1   -1    0    0    0  501 -0.00000000000E+00  0.00000000000E+00  0.26628000909E+02  0.26628001318E+02  0.46700000000E-02 0.  1.
          1   -1    0    0  501    0  0.00000000000E+00 -0.00000000000E+00 -0.79027577739E+02  0.79027577877E+02  0.46700000000E-02 0. -1.
         23    2    1    2    0    0  0.00000000000E+00  0.00000000000E+00 -0.52399576830E+02  0.10565557920E+03  0.91746311987E+02 0.  0.
        -13    1    3    3    0    0 -0.40822025623E+01 -0.34095429119E+02  0.88282003358E+01  0.35455760579E+02  0.10570000000E+00 0.  1.
         13    1    3    3    0    0  0.40822025623E+01  0.34095429119E+02 -0.61227777166E+02  0.70199818616E+02  0.10570000000E+00 0. -1.
<mgrwt>
<rscale>  0 0.91746312E+02</rscale>
<asrwt>0</asrwt>
<pdfrwt beam="2">  1        1 0.12158089E-01 0.91746312E+02</pdfrwt>
<pdfrwt beam="1">  1       -1 0.40966156E-02 0.91746312E+02</pdfrwt>
<totfact> 0.98843256E+04</totfact>
</mgrwt>
</event>
<event>
 4   1  0.1388354E+00  0.5309573E+02  0.7818608E-02  0.1429325E+00
         -1   -1    0    0    0  501 -0.00000000000E+00  0.00000000000E+00  0.43690096216E+02  0.43690096465E+02  0.46700000000E-02 0. -1.
          1   -1    0    0  501    0  0.00000000000E+00 -0.00000000000E+00 -0.16131554266E+02  0.16131554942E+02  0.46700000000E-02 0.  1.
        -13    1    1    2    0    0 -0.88300065574E+01 -0.21512592243E+02  0.28208519423E+02  0.36558068621E+02  0.10570000000E+00 0. -1.
         13    1    1    2    0    0  0.88300065574E+01  0.21512592243E+02 -0.64997747287E+00  0.23263582785E+02  0.10570000000E+00 0.  1.
<mgrwt>
<rscale>  0 0.53095732E+02</rscale>
<asrwt>0</asrwt>
<pdfrwt beam="2">  1        1 0.24817777E-02 0.53095732E+02</pdfrwt>
<pdfrwt beam="1">  1       -1 0.67215533E-02 0.53095732E+02</pdfrwt>
<totfact> 0.35775276E+05</totfact>
</mgrwt>
</event>
<event>
 5   1  0.1388354E+00  0.9313338E+02  0.7818608E-02  0.1295436E+00
         -1   -1    0    0    0  501 -0.00000000000E+00  0.00000000000E+00  0.28978238403E+02  0.28978238779E+02  0.46700000000E-02 0.  1.
          1   -1    0    0  501    0  0.00000000000E+00 -0.00000000000E+00 -0.74830525394E+02  0.74830525540E+02  0.46700000000E-02 0. -1.
         23    2    1    2    0    0  0.00000000000E+00  0.00000000000E+00 -0.45852286992E+02  0.10380876432E+03  0.93133384600E+02 0.  0.
        -13    1    3    3    0    0  0.29330054030E+02  0.92387958208E+01  0.16051281212E+02  0.34688070265E+02  0.10570000000E+00 0.  1.
         13    1    3    3    0    0 -0.29330054030E+02 -0.92387958208E+01 -0.61903568204E+02  0.69120694054E+02  0.10570000000E+00 0. -1.
<mgrwt>
<rscale>  0 0.93133385E+02</rscale>
<asrwt>0</asrwt>
<pdfrwt beam="2">  1        1 0.11512389E-01 0.93133385E+02</pdfrwt>
<pdfrwt beam="1">  1       -1 0.44581906E-02 0.93133385E+02</pdfrwt>
<totfact> 0.94023671E+04</totfact>
</mgrwt>
</event>
<event>
 5   1  0.1388354E+00  0.9155575E+02  0.7818608E-02  0.1299127E+00
         -1   -1    0    0    0  501 -0.00000000000E+00  0.00000000000E+00  0.54692736377E+02  0.54692736576E+02  0.46700000000E-02 0.  1.
          1   -1    0    0  501    0  0.00000000000E+00 -0.00000000000E+00 -0.38316124142E+02  0.38316124427E+02  0.46700000000E-02 0. -1.
         23    2    1    2    0    0  0.00000000000E+00  0.00000000000E+00  0.16376612234E+02  0.93008861003E+02  0.91555746935E+02 0.  0.
        -13    1    3    3    0    0 -0.20226198078E+02 -0.39799164824E+02 -0.20981083575E+01  0.44693241553E+02  0.10570000000E+00 0. -1.
         13    1    3    3    0    0  0.20226198078E+02  0.39799164824E+02  0.18474720592E+02  0.48315619450E+02  0.10570000000E+00 0.  1.
<mgrwt>
<rscale>  0 0.91555747E+02</rscale>
<asrwt>0</asrwt>
<pdfrwt beam="2">  1        1 0.58947884E-02 0.91555747E+02</pdfrwt>
<pdfrwt beam="1">  1       -1 0.84142672E-02 0.91555747E+02</pdfrwt>
<totfact> 0.89018564E+04</totfact>
</mgrwt>
</event>
<event>
 5   1  0.1388354E+00  0.9084210E+02  0.7818608E-02  0.1300825E+00
          1   -1    0    0  501    0  0.00000000000E+00  0.00000000000E+00  0.93686714538E+02  0.93686714655E+02  0.46700000000E-02 0. -1.
         -1   -1    0    0    0  501 -0.00000000000E+00 -0.00000000000E+00 -0.22020961763E+02  0.22020962259E+02  0.46700000000E-02 0.  1.
         23    2    1    2    0    0  0.00000000000E+00  0.00000000000E+00  0.71665752775E+02  0.11570767691E+03  0.90842095836E+02 0.  0.
        -13    1    3    3    0    0 -0.35678069434E+02 -0.79527925514E+01  0.70173568159E+02  0.79123399754E+02  0.10570000000E+00 0. -1.
         13    1    3    3    0    0  0.35678069434E+02  0.79527925514E+01  0.14921846161E+01  0.36584277160E+02  0.10570000000E+00 0.  1.
<mgrwt>
<rscale>  0 0.90842096E+02</rscale>
<asrwt>0</asrwt>
<pdfrwt beam="1">  1        1 0.14413341E-01 0.90842096E+02</pdfrwt>
<pdfrwt beam="2">  1       -1 0.33878404E-02 0.90842096E+02</pdfrwt>
<totfact> 0.10437700E+05</totfact>
</mgrwt>
</event>
<event>
 5   1  0.1388354E+00  0.9127523E+02  0.7818608E-02  0.1299793E+00
         -1   -1    0    0    0  501 -0.00000000000E+00  0.00000000000E+00  0.10572161398E+02  0.10572162429E+02  0.46700000000E-02 0.  1.
          1   -1    0    0  501    0  0.00000000000E+00 -0.00000000000E+00 -0.19700720633E+03  0.19700720639E+03  0.46700000000E-02 0. -1.
         23    2    1    2    0    0  0.00000000000E+00  0.00000000000E+00 -0.18643504494E+03  0.20757936882E+03  0.91275234202E+02 0.  0.
        -13    1    3    3    0    0 -0.43813045145E+02 -0.12761915246E+02 -0.91908087829E+02  0.10261363061E+03  0.10570000000E+00 0. -1.
         13    1    3    3    0    0  0.43813045145E+02  0.12761915246E+02 -0.94526957106E+02  0.10496573821E+03  0.10570000000E+00 0.  1.
<mgrwt>
<rscale>  0 0.91275234E+02</rscale>
<asrwt>0</asrwt>
<pdfrwt beam="2">  1        1 0.30308798E-01 0.91275234E+02</pdfrwt>
<pdfrwt beam="1">  1       -1 0.16264866E-02 0.91275234E+02</pdfrwt>
<totfact> 0.11771918E+05</totfact>
</mgrwt>
</event>
<event>
 5   1  0.1388354E+00  0.9143525E+02  0.7818608E-02  0.1299413E+00
         -1   -1    0    0    0  501 -0.00000000000E+00  0.00000000000E+00  0.21049896481E+03  0.21049896486E+03  0.46700000000E-02 0.  1.
          1   -1    0    0  501    0  0.00000000000E+00 -0.00000000000E+00 -0.99292700757E+01  0.99292711739E+01  0.46700000000E-02 0. -1.
         23    2    1    2    0    0  0.00000000000E+00  0.00000000000E+00  0.20056969474E+03  0.22042823604E+03  0.91435249199E+02 0.  0.
        -13    1    3    3    0    0  0.21853424874E+02  0.40097008554E+02  0.10553772911E+03  0.11499376379E+03  0.10570000000E+00 0. -1.
         13    1    3    3    0    0 -0.21853424874E+02 -0.40097008554E+02  0.95031965631E+02  0.10543447225E+03  0.10570000000E+00 0.  1.
<mgrwt>
<rscale>  0 0.91435249E+02</rscale>
<asrwt>0</asrwt>
<pdfrwt beam="2">  1        1 0.15275802E-02 0.91435249E+02</pdfrwt>
<pdfrwt beam="1">  1       -1 0.32384455E-01 0.91435249E+02</pdfrwt>
<totfact> 0.67893651E+04</totfact>
</mgrwt>
</event>
<event>
 5   1  0.1388354E+00  0.8899873E+02  0.7818608E-02  0.1305295E+00
         -1   -1    0    0    0  501 -0.00000000000E+00  0.00000000000E+00  0.12427407152E+03  0.12427407161E+03  0.46700000000E-02 0.  1.
          1   -1    0    0  501    0  0.00000000000E+00 -0.00000000000E+00 -0.15934082356E+02  0.15934083040E+02  0.46700000000E-02 0. -1.
         23    2    1    2    0    0  0.00000000000E+00  0.00000000000E+00  0.10833998916E+03  0.14020815465E+03  0.88998726832E+02 0.  0.
        -13    1    3    3    0    0  0.41113739199E+02 -0.12077052829E+02  0.73073909256E+02  0.84711286984E+02  0.10570000000E+00 0. -1.
         13    1    3    3    0    0 -0.41113739199E+02  0.12077052829E+02  0.35266079908E+02  0.55496867664E+02  0.10570000000E+00 0.  1.
<mgrwt>
<rscale>  0 0.88998727E+02</rscale>
<asrwt>0</asrwt>
<pdfrwt beam="2">  1        1 0.24513975E-02 0.88998727E+02</pdfrwt>
<pdfrwt beam="1">  1       -1 0.19119086E-01 0.88998727E+02</pdfrwt>
<totfact> 0.82990030E+04</totfact>
</mgrwt>
</event>
<event>
 5   1  0.1388354E+00  0.8834930E+02  0.7818608E-02  0.1306899E+00
          1   -1    0    0  501    0  0.00000000000E+00  0.00000000000E+00  0.14215717230E+02  0.14215717997E+02  0.46700000000E-02 0. -1.
         -1   -1    0    0    0  501 -0.00000000000E+00 -0.00000000000E+00 -0.13727057062E+03  0.13727057070E+03  0.46700000000E-02 0.  1.
         23    2    1    2    0    0  0.00000000000E+00  0.00000000000E+00 -0.12305485339E+03  0.15148628870E+03  0.88349299492E+02 0.  0.
        -13    1    3    3    0    0  0.27526679328E+02 -0.80846274622E+00 -0.23040045451E+01  0.27634965103E+02  0.10570000000E+00 0. -1.
         13    1    3    3    0    0 -0.27526679328E+02  0.80846274622E+00 -0.12075084885E+03  0.12385132360E+03  0.10570000000E+00 0.  1.
<mgrwt>
<rscale>  0 0.88349299E+02</rscale>
<asrwt>0</asrwt>
<pdfrwt beam="1">  1        1 0.21870336E-02 0.88349299E+02</pdfrwt>
<pdfrwt beam="2">  1       -1 0.21118549E-01 0.88349299E+02</pdfrwt>
<totfact> 0.82795894E+04</totfact>
</mgrwt>
</event>
<event>
 5   1  0.1388354E+00  0.9184518E+02  0.7818608E-02  0.1298444E+00
          1   -1    0    0  501    0  0.00000000000E+00  0.00000000000E+00  0.45708460129E+02  0.45708460368E+02  0.46700000000E-02 0. -1.
         -1   -1    0    0    0  501 -0.00000000000E+00 -0.00000000000E+00 -0.46137719005E+02  0.46137719241E+02  0.46700000000E-02 0.  1.
         23    2    1    2    0    0  0.00000000000E+00  0.00000000000E+00 -0.42925887582E+00  0.91846179609E+02  0.91845176496E+02 0.  0.
        -13    1    3    3    0    0 -0.38859609339E+02  0.22408920210E+02 -0.10045504630E+02  0.45969036086E+02  0.10570000000E+00 0.  1.
         13    1    3    3    0    0  0.38859609339E+02 -0.22408920210E+02  0.96162457539E+01  0.45877143523E+02  0.10570000000E+00 0. -1.
<mgrwt>
<rscale>  0 0.91845176E+02</rscale>
<asrwt>0</asrwt>
<pdfrwt beam="1">  1        1 0.70320708E-02 0.91845176E+02</pdfrwt>
<pdfrwt beam="2">  1       -1 0.70981106E-02 0.91845176E+02</pdfrwt>
<totfact> 0.90628994E+04</totfact>
</mgrwt>
</event>
<event>
 5   1  0.1388354E+00  0.9216848E+02  0.7818608E-02  0.1297684E+00
         -1   -1    0    0    0  501 -0.00000000000E+00  0.00000000000E+00  0.26386904648E+02  0.26386905061E+02  0.46700000000E-02 0.  1.
          1   -1    0    0  501    0  0.00000000000E+00 -0.00000000000E+00 -0.80485277601E+02  0.80485277737E+02  0.46700000000E-02 0. -1.
         23    2    1    2    0    0  0.00000000000E+00  0.00000000000E+00 -0.54098372954E+02  0.10687218280E+03  0.92168484309E+02 0.  0.
        -13    1    3    3    0    0 -0.28789228999E+02 -0.30003285172E+02 -0.40118663407E+01  0.41774670214E+02  0.10570000000E+00 0.  1.
         13    1    3    3    0    0  0.28789228999E+02  0.30003285172E+02 -0.50086506613E+02  0.65097512584E+02  0.10570000000E+00 0. -1.
<mgrwt>
<rscale>  0 0.92168484E+02</rscale>
<asrwt>0</asrwt>
<pdfrwt beam="2">  1        1 0.12382350E-01 0.92168484E+02</pdfrwt>
<pdfrwt beam="1">  1       -1 0.40595239E-02 0.92168484E+02</pdfrwt>
<totfact> 0.97886000E+04</totfact>
</mgrwt>
</event>
<event>
 5   1  0.1388354E+00  0.9092339E+02  0.7818608E-02  0.1300631E+00
          1   -1    0    0  501    0  0.00000000000E+00  0.00000000000E+00  0.28599523281E+02  0.28599523662E+02  0.46700000000E-02 0. -1.
         -1   -1    0    0    0  501 -0.00000000000E+00 -0.00000000000E+00 -0.72265740870E+02  0.72265741021E+02  0.46700000000E-02 0.  1.
         23    2    1    2    0    0  0.00000000000E+00  0.00000000000E+00 -0.43666217590E+02  0.10086526468E+03  0.90923391165E+02 0.  0.
        -13    1    3    3    0    0 -0.28284484786E+02 -0.10261289644E+01 -0.61299699189E+02  0.67518362787E+02  0.10570000000E+00 0.  1.
         13    1    3    3    0    0  0.28284484786E+02  0.10261289644E+01  0.17633481599E+02  0.33346901896E+02  0.10570000000E+00 0. -1.
<mgrwt>
<rscale>  0 0.90923391E+02</rscale>
<asrwt>0</asrwt>
<pdfrwt beam="1">  1        1 0.43999267E-02 0.90923391E+02</pdfrwt>
<pdfrwt beam="2">  1       -1 0.11117806E-01 0.90923391E+02</pdfrwt>
<totfact> 0.86706277E+04</totfact>
</mgrwt>
</event>
<event>
 5   1  0.1388354E+00  0.9124211E+02  0.7818608E-02  0.1299871E+00
          1   -1    0    0  501    0  0.00000000000E+00  0.00000000000E+00  0.36938362168E+03  0.36938362171E+03  0.46700000000E-02 0. -1.
         -1   -1    0    0    0  501 -0.00000000000E+00 -0.00000000000E+00 -0.56344681388E+01  0.56344700741E+01  0.46700000000E-02 0.  1.
         23    2    1    2    0    0  0.00000000000E+00  0.00000000000E+00  0.36374915354E+03  0.37501809179E+03  0.91242109046E+02 0.  0.
        -13    1    3    3    0    0 -0.37966095835E+02 -0.23015510460E+02  0.13874131861E+03  0.14567190126E+03  0.10570000000E+00 0. -1.
         13    1    3    3    0    0  0.37966095835E+02  0.23015510460E+02  0.22500783493E+03  0.22934619052E+03  0.10570000000E+00 0.  1.
<mgrwt>
<rscale>  0 0.91242109E+02</rscale>
<asrwt>0</asrwt>
<pdfrwt beam="1">  1        1 0.56828262E-01 0.91242109E+02</pdfrwt>
<pdfrwt beam="2">  1       -1 0.86684122E-03 0.91242109E+02</pdfrwt>
<totfact> 0.13283394E+05</totfact>
</mgrwt>
</event>
<event>
 5   1  0.1388354E+00  0.9005898E+02  0.7818608E-02  0.1302709E+00
         -1   -1    0    0    0  501 -0.00000000000E+00  0.00000000000E+00  0.23282167612E+02  0.23282168080E+02  0.46700000000E-02 0.  1.
          1   -1    0    0  501    0  0.00000000000E+00 -0.00000000000E+00 -0.87090478584E+02  0.87090478709E+02  0.46700000000E-02 0. -1.
         23    2    1    2    0    0  0.00000000000E+00  0.00000000000E+00 -0.63808310972E+02  0.11037264679E+03  0.90058984061E+02 0.  0.
        -13    1    3    3    0    0 -0.21453658297E+02  0.55786169426E+01  0.16131893414E+02  0.27415863636E+02  0.10570000000E+00 0. -1.
         13    1    3    3    0    0  0.21453658297E+02 -0.55786169426E+01 -0.79940204386E+02  0.82956783153E+02  0.10570000000E+00 0.  1.
<mgrwt>
<rscale>  0 0.90058984E+02</rscale>
<asrwt>0</asrwt>
<pdfrwt beam="2">  1        1 0.13398535E-01 0.90058984E+02</pdfrwt>
<pdfrwt beam="1">  1       -1 0.35818720E-02 0.90058984E+02</pdfrwt>
<totfact> 0.10561840E+05</totfact>
</mgrwt>
</event>
<event>
 5   1  0.1388354E+00  0.9116329E+02  0.7818608E-02  0.1300059E+00
          1   -1    0    0  501    0  0.00000000000E+00  0.00000000000E+00  0.25408485292E+02  0.25408485721E+02  0.46700000000E-02 0.  1.
         -1   -1    0    0    0  501 -0.00000000000E+00 -0.00000000000E+00 -0.81771359032E+02  0.81771359165E+02  0.46700000000E-02 0. -1.
         23    2    1    2    0    0  0.00000000000E+00  0.00000000000E+00 -0.56362873740E+02  0.10717984489E+03  0.91163290933E+02 0.  0.
        -13    1    3    3    0    0 -0.12692057825E+02 -0.14468001700E+02 -0.76759863972E+02  0.79135954499E+02  0.10570000000E+00 0. -1.
         13    1    3    3    0    0  0.12692057825E+02  0.14468001700E+02  0.20396990232E+02  0.28043890387E+02  0.10570000000E+00 0.  1.
<mgrwt>
<rscale>  0 0.91163291E+02</rscale>
<asrwt>0</asrwt>
<pdfrwt beam="1">  1        1 0.39089978E-02 0.91163291E+02</pdfrwt>
<pdfrwt beam="2">  1       -1 0.12580209E-01 0.91163291E+02</pdfrwt>
<totfact> 0.84368621E+04</totfact>
</mgrwt>
</event>
<event>
 5   1  0.1388354E+00  0.9149156E+02  0.7818608E-02  0.1299279E+00
          1   -1    0    0  501    0  0.00000000000E+00  0.00000000000E+00  0.49496133657E+02  0.49496133877E+02  0.46700000000E-02 0. -1.
         -1   -1    0    0    0  501 -0.00000000000E+00 -0.00000000000E+00 -0.42279592071E+02  0.42279592329E+02  0.46700000000E-02 0.  1.
         23    2    1    2    0    0  0.00000000000E+00  0.00000000000E+00  0.72165415860E+01  0.91775726206E+02  0.91491559437E+02 0.  0.
        -13    1    3    3    0    0 -0.31298455642E+02 -0.13112729708E+02  0.34381366624E+02  0.48307624133E+02  0.10570000000E+00 0. -1.
         13    1    3    3    0    0  0.31298455642E+02  0.13112729708E+02 -0.27164825038E+02  0.43468102073E+02  0.10570000000E+00 0.  1.
<mgrwt>
<rscale>  0 0.91491559E+02</rscale>
<asrwt>0</asrwt>
<pdfrwt beam="1">  1        1 0.76147898E-02 0.91491559E+02</pdfrwt>
<pdfrwt beam="2">  1       -1 0.65045527E-02 0.91491559E+02</pdfrwt>
<totfact> 0.92722509E+04</totfact>
</mgrwt>
</event>
<event>
 5   1  0.1388354E+00  0.9194897E+02  0.7818608E-02  0.1298199E+00
         -1   -1    0    0    0  501 -0.00000000000E+00  0.00000000000E+00  0.12857889100E+03  0.12857889108E+03  0.46700000000E-02 0.  1.
          1   -1    0    0  501    0  0.00000000000E+00 -0.00000000000E+00 -0.16438571704E+02  0.16438572367E+02  0.46700000000E-02 0. -1.
         23    2    1    2    0    0  0.00000000000E+00  0.00000000000E+00  0.11214031929E+03  0.14501746345E+03  0.91948972230E+02 0.  0.
        -13    1    3    3    0    0  0.28644849288E+02  0.15490737189E+02  0.48879622794E+01  0.32930133269E+02  0.10570000000E+00 0. -1.
         13    1    3    3    0    0 -0.28644849288E+02 -0.15490737189E+02  0.10725235701E+03  0.11208733018E+03  0.10570000000E+00 0.  1.
<mgrwt>
<rscale>  0 0.91948972E+02</rscale>
<asrwt>0</asrwt>
<pdfrwt beam="2">  1        1 0.25290110E-02 0.91948972E+02</pdfrwt>
<pdfrwt beam="1">  1       -1 0.19781369E-01 0.91948972E+02</pdfrwt>
<totfact> 0.75733122E+04</totfact>
</mgrwt>
</event>
<event>
 5   1  0.1388354E+00  0.9247259E+02  0.7818608E-02  0.1296972E+00
          1   -1    0    0  501    0  0.00000000000E+00  0.00000000000E+00  0.13070507358E+03  0.13070507367E+03  0.46700000000E-02 0. -1.
         -1   -1    0    0    0  501 -0.00000000000E+00 -0.00000000000E+00 -0.16355867928E+02  0.16355868595E+02  0.46700000000E-02 0.  1.
         23    2    1    2    0    0  0.00000000000E+00  0.00000000000E+00  0.11434920566E+03  0.14706094226E+03  0.92472590020E+02 0.  0.
        -13    1    3    3    0    0 -0.24805299972E+02  0.15928380572E+02  0.52780554406E+00  0.29483995074E+02  0.10570000000E+00 0.  1.
         13    1    3    3    0    0  0.24805299972E+02 -0.15928380572E+02  0.11382140011E+03  0.11757694719E+03  0.10570000000E+00 0. -1.
<mgrwt>
<rscale>  0 0.92472590E+02</rscale>
<asrwt>0</asrwt>
<pdfrwt beam="1">  1        1 0.20108473E-01 0.92472590E+02</pdfrwt>
<pdfrwt beam="2">  1       -1 0.25162874E-02 0.92472590E+02</pdfrwt>
<totfact> 0.10526719E+05</totfact>
</mgrwt>
</event>
<event>
 5   1  0.1388354E+00  0.8995079E+02  0.7818608E-02  0.1302971E+00
         -1   -1    0    0    0  501 -0.00000000000E+00  0.00000000000E+00  0.83175584155E+01  0.83175597265E+01  0.46700000000E-02 0.  1.
          1   -1    0    0  501    0  0.00000000000E+00 -0.00000000000E+00 -0.24319470694E+03  0.24319470699E+03  0.46700000000E-02 0. -1.
         23    2    1    2    0    0  0.00000000000E+00  0.00000000000E+00 -0.23487714853E+03  0.25151226672E+03  0.89950794368E+02 0.  0.
        -13    1    3    3    0    0  0.33638140006E+02  0.41318031991E+01 -0.34767356918E+02  0.48552822166E+02  0.10570000000E+00 0.  1.
         13    1    3    3    0    0 -0.33638140006E+02 -0.41318031991E+01 -0.20010979161E+03  0.20295944455E+03  0.10570000000E+00 0. -1.
<mgrwt>
<rscale>  0 0.89950794E+02</rscale>
<asrwt>0</asrwt>
<pdfrwt beam="2">  1        1 0.37414565E-01 0.89950794E+02</pdfrwt>
<pdfrwt beam="1">  1       -1 0.12796247E-02 0.89950794E+02</pdfrwt>
<totfact> 0.12753301E+05</totfact>
</mgrwt>
</event>
<event>
 5   1  0.1388354E+00  0.9159922E+02  0.7818608E-02  0.1299025E+00
         -1   -1    0    0    0  501 -0.00000000000E+00  0.00000000000E+00  0.10336614498E+02  0.10336615553E+02  0.46700000000E-02 0.  1.
          1   -1    0    0  501    0  0.00000000000E+00 -0.00000000000E+00 -0.20292950458E+03  0.20292950463E+03  0.46700000000E-02 0. -1.
         23    2    1    2    0    0  0.00000000000E+00  0.00000000000E+00 -0.19259289008E+03  0.21326612018E+03  0.91599217842E+02 0.  0.
        -13    1    3    3    0    0  0.31045386619E+02  0.14313710386E+02 -0.16725640115E+03  0.17071442011E+03  0.10570000000E+00 0. -1.
         13    1    3    3    0    0 -0.31045386619E+02 -0.14313710386E+02 -0.25336488926E+02  0.42551700071E+02  0.10570000000E+00 0.  1.
<mgrwt>
<rscale>  0 0.91599218E+02</rscale>
<asrwt>0</asrwt>
<pdfrwt beam="2">  1        1 0.31219921E-01 0.91599218E+02</pdfrwt>
<pdfrwt beam="1">  1       -1 0.15902486E-02 0.91599218E+02</pdfrwt>
<totfact> 0.11727680E+05</totfact>
</mgrwt>
</event>
<event>
 4   1  0.1388354E+00  0.1487463E+03  0.7818608E-02  0.1202022E+00
         -1   -1    0    0    0  501 -0.00000000000E+00  0.00000000000E+00  0.32699431985E+02  0.32699432319E+02  0.46700000000E-02 0.  1.
          1   -1    0    0  501    0  0.00000000000E+00 -0.00000000000E+00 -0.16915785160E+03  0.16915785167E+03  0.46700000000E-02 0. -1.
        -13    1    1    2    0    0 -0.13132448450E+02 -0.58781801926E+02 -0.90205401104E+01  0.60902731929E+02  0.10570000000E+00 0.  1.
         13    1    1    2    0    0  0.13132448450E+02  0.58781801926E+02 -0.12743787951E+03  0.14095455206E+03  0.10570000000E+00 0. -1.
<mgrwt>
<rscale>  0 0.14874630E+03</rscale>
<asrwt>0</asrwt>
<pdfrwt beam="2">  1        1 0.26024284E-01 0.14874630E+03</pdfrwt>
<pdfrwt beam="1">  1       -1 0.50306820E-02 0.14874630E+03</pdfrwt>
<totfact> 0.29504619E+04</totfact>
</mgrwt>
</event>
<event>
 5   1  0.1388354E+00  0.7590186E+02  0.7818608E-02  0.1341101E+00
          1   -1    0    0  501    0  0.00000000000E+00  0.00000000000E+00  0.25278242324E+02  0.25278242756E+02  0.46700000000E-02 0. -1.
         -1   -1    0    0    0  501 -0.00000000000E+00 -0.00000000000E+00 -0.56976790650E+02  0.56976790841E+02  0.46700000000E-02 0.  1.
         23    2    1    2    0    0  0.00000000000E+00  0.00000000000E+00 -0.31698548326E+02  0.82255033597E+02  0.75901861546E+02 0.  0.
        -13    1    3    3    0    0 -0.32967170689E+02 -0.17237252425E+02 -0.23980997809E+02  0.44261231827E+02  0.10570000000E+00 0.  1.
         13    1    3    3    0    0  0.32967170689E+02  0.17237252425E+02 -0.77175505164E+01  0.37993801770E+02  0.10570000000E+00 0. -1.
<mgrwt>
<rscale>  0 0.75901862E+02</rscale>
<asrwt>0</asrwt>
<pdfrwt beam="1">  1        1 0.38889604E-02 0.75901862E+02</pdfrwt>
<pdfrwt beam="2">  1       -1 0.87656601E-02 0.75901862E+02</pdfrwt>
<totfact> 0.14207987E+05</totfact>
</mgrwt>
</event>
<event>
 5   1  0.1388354E+00  0.8891190E+02  0.7818608E-02  0.1305508E+00
         -1   -1    0    0    0  501 -0.00000000000E+00  0.00000000000E+00  0.15338792415E+02  0.15338793125E+02  0.46700000000E-02 0.  1.
          1   -1    0    0  501    0  0.00000000000E+00 -0.00000000000E+00 -0.12884530792E+03  0.12884530801E+03  0.46700000000E-02 0. -1.
         23    2    1    2    0    0  0.00000000000E+00  0.00000000000E+00 -0.11350651551E+03  0.14418410113E+03  0.88911899973E+02 0.  0.
        -13    1    3    3    0    0 -0.23446789172E+02 -0.20218567415E+01 -0.11791511189E+03  0.12024069449E+03  0.10570000000E+00 0. -1.
         13    1    3    3    0    0  0.23446789172E+02  0.20218567415E+01  0.44085963804E+01  0.23943406643E+02  0.10570000000E+00 0.  1.
<mgrwt>
<rscale>  0 0.88911900E+02</rscale>
<asrwt>0</asrwt>
<pdfrwt beam="2">  1        1 0.19822354E-01 0.88911900E+02</pdfrwt>
<pdfrwt beam="1">  1       -1 0.23598144E-02 0.88911900E+02</pdfrwt>
<totfact> 0.11676439E+05</totfact>
</mgrwt>
</event>
<event>
 5   1  0.1388354E+00  0.9022926E+02  0.7818608E-02  0.1302297E+00
          1   -1    0    0  501    0  0.00000000000E+00  0.00000000000E+00  0.12068045772E+02  0.12068046676E+02  0.46700000000E-02 0. -1.
         -1   -1    0    0    0  501 -0.00000000000E+00 -0.00000000000E+00 -0.16865447302E+03  0.16865447309E+03  0.46700000000E-02 0.  1.
         23    2    1    2    0    0  0.00000000000E+00  0.00000000000E+00 -0.15658642725E+03  0.18072251976E+03  0.90229263272E+02 0.  0.
        -13    1    3    3    0    0  0.34811902087E+02  0.63417767708E+01 -0.13434766630E+03  0.13892945430E+03  0.10570000000E+00 0.  1.
         13    1    3    3    0    0 -0.34811902087E+02 -0.63417767708E+01 -0.22238760946E+02  0.41793065459E+02  0.10570000000E+00 0. -1.
<mgrwt>
<rscale>  0 0.90229263E+02</rscale>
<asrwt>0</asrwt>
<pdfrwt beam="1">  1        1 0.18566226E-02 0.90229263E+02</pdfrwt>
<pdfrwt beam="2">  1       -1 0.25946840E-01 0.90229263E+02</pdfrwt>
<totfact> 0.74684084E+04</totfact>
</mgrwt>
</event>
<event>
 5   1  0.1388354E+00  0.9345641E+02  0.7818608E-02  0.1294691E+00
         -1   -1    0    0    0  501 -0.00000000000E+00  0.00000000000E+00  0.88580019990E+02  0.88580020113E+02  0.46700000000E-02 0.  1.
          1   -1    0    0  501    0  0.00000000000E+00 -0.00000000000E+00 -0.24650312996E+02  0.24650313438E+02  0.46700000000E-02 0. -1.
         23    2    1    2    0    0  0.00000000000E+00  0.00000000000E+00  0.63929706994E+02  0.11323033355E+03  0.93456412299E+02 0.  0.
        -13    1    3    3    0    0 -0.26067605173E+02  0.26009125891E+02  0.66818062931E+02  0.76293245936E+02  0.10570000000E+00 0.  1.
         13    1    3    3    0    0  0.26067605173E+02 -0.26009125891E+02 -0.28883559374E+01  0.36937087616E+02  0.10570000000E+00 0. -1.
<mgrwt>
<rscale>  0 0.93456412E+02</rscale>
<asrwt>0</asrwt>
<pdfrwt beam="2">  1        1 0.37923558E-02 0.93456412E+02</pdfrwt>
<pdfrwt beam="1">  1       -1 0.13627696E-01 0.93456412E+02</pdfrwt>
<totfact> 0.78059950E+04</totfact>
</mgrwt>
</event>
<event>
 5   1  0.1388354E+00  0.9151293E+02  0.7818608E-02  0.1299229E+00
         -1   -1    0    0    0  501 -0.00000000000E+00  0.00000000000E+00  0.34124653406E+02  0.34124653726E+02  0.46700000000E-02 0.  1.
          1   -1    0    0  501    0  0.00000000000E+00 -0.00000000000E+00 -0.61353129853E+02  0.61353130031E+02  0.46700000000E-02 0. -1.
         23    2    1    2    0    0  0.00000000000E+00  0.00000000000E+00 -0.27228476447E+02  0.95477783757E+02  0.91512934941E+02 0.  0.
        -13    1    3    3    0    0  0.68067824018E+01  0.34499702616E+02  0.16930110863E+02  0.39028215353E+02  0.10570000000E+00 0.  1.
         13    1    3    3    0    0 -0.68067824018E+01 -0.34499702616E+02 -0.44158587310E+02  0.56449568404E+02  0.10570000000E+00 0. -1.
<mgrwt>
<rscale>  0 0.91512935E+02</rscale>
<asrwt>0</asrwt>
<pdfrwt beam="2">  1        1 0.94389431E-02 0.91512935E+02</pdfrwt>
<pdfrwt beam="1">  1       -1 0.52499467E-02 0.91512935E+02</pdfrwt>
<totfact> 0.95715177E+04</totfact>
</mgrwt>
</event>
<event>
 5   1  0.1388354E+00  0.9172185E+02  0.7818608E-02  0.1298735E+00
          1   -1    0    0  501    0  0.00000000000E+00  0.00000000000E+00  0.22470352629E+03  0.22470352634E+03  0.46700000000E-02 0. -1.
         -1   -1    0    0    0  501 -0.00000000000E+00 -0.00000000000E+00 -0.93599972582E+01  0.93599984232E+01  0.46700000000E-02 0.  1.
         23    2    1    2    0    0  0.00000000000E+00  0.00000000000E+00  0.21534352903E+03  0.23406352476E+03  0.91721851966E+02 0.  0.
        -13    1    3    3    0    0 -0.12140736739E+02 -0.31832385667E+02  0.29327883364E+02  0.44953689291E+02  0.10570000000E+00 0.  1.
         13    1    3    3    0    0  0.12140736739E+02  0.31832385667E+02  0.18601564567E+03  0.18910983547E+03  0.10570000000E+00 0. -1.
<mgrwt>
<rscale>  0 0.91721852E+02</rscale>
<asrwt>0</asrwt>
<pdfrwt beam="1">  1        1 0.34569771E-01 0.91721852E+02</pdfrwt>
<pdfrwt beam="2">  1       -1 0.14399998E-02 0.91721852E+02</pdfrwt>
<totfact> 0.11920383E+05</totfact>
</mgrwt>
</event>
<event>
 5   1  0.1388354E+00  0.9190725E+02  0.7818608E-02  0.1298298E+00
         -1   -1    0    0    0  501 -0.00000000000E+00  0.00000000000E+00  0.58265814612E+02  0.58265814799E+02  0.46700000000E-02 0. -1.
          1   -1    0    0  501    0  0.00000000000E+00 -0.00000000000E+00 -0.36243129727E+02  0.36243130028E+02  0.46700000000E-02 0.  1.
         23    2    1    2    0    0  0.00000000000E+00  0.00000000000E+00  0.22022684885E+02  0.94508944827E+02  0.91907246737E+02 0.  0.
        -13    1    3    3    0    0 -0.22888087338E+02  0.14942008503E+02 -0.26974803454E+02  0.38402856065E+02  0.10570000000E+00 0.  1.
         13    1    3    3    0    0  0.22888087338E+02 -0.14942008503E+02  0.48997488339E+02  0.56106088761E+02  0.10570000000E+00 0. -1.
<mgrwt>
<rscale>  0 0.91907247E+02</rscale>
<asrwt>0</asrwt>
<pdfrwt beam="2">  1        1 0.55758662E-02 0.91907247E+02</pdfrwt>
<pdfrwt beam="1">  1       -1 0.89639714E-02 0.91907247E+02</pdfrwt>
<totfact> 0.87301406E+04</totfact>
</mgrwt>
</event>
<event>
 5   1  0.1388354E+00  0.8249357E+02  0.7818608E-02  0.1322120E+00
          1   -1    0    0  501    0  0.00000000000E+00  0.00000000000E+00  0.87880207750E+02  0.87880207874E+02  0.46700000000E-02 0. -1.
         -1   -1    0    0    0  501 -0.00000000000E+00 -0.00000000000E+00 -0.19359275204E+02  0.19359275767E+02  0.46700000000E-02 0.  1.
         23    2    1    2    0    0  0.00000000000E+00  0.00000000000E+00  0.68520932546E+02  0.10723948364E+03  0.82493567354E+02 0.  0.
        -13    1    3    3    0    0  0.11529174520E+02 -0.28869687820E+02  0.69501635168E+02  0.76137173598E+02  0.10570000000E+00 0.  1.
         13    1    3    3    0    0 -0.11529174520E+02  0.28869687820E+02 -0.98070262202E+00  0.31102310044E+02  0.10570000000E+00 0. -1.
<mgrwt>
<rscale>  0 0.82493567E+02</rscale>
<asrwt>0</asrwt>
<pdfrwt beam="1">  1        1 0.13520032E-01 0.82493567E+02</pdfrwt>
<pdfrwt beam="2">  1       -1 0.29783501E-02 0.82493567E+02</pdfrwt>
<totfact> 0.13421711E+05</totfact>
</mgrwt>
</event>
<event>
 5   1  0.1388354E+00  0.9031175E+02  0.7818608E-02  0.1302098E+00
         -1   -1    0    0    0  501 -0.00000000000E+00  0.00000000000E+00  0.91379817926E+02  0.91379818046E+02  0.46700000000E-02 0.  1.
          1   -1    0    0  501    0  0.00000000000E+00 -0.00000000000E+00 -0.22314042252E+02  0.22314042741E+02  0.46700000000E-02 0. -1.
         23    2    1    2    0    0  0.00000000000E+00  0.00000000000E+00  0.69065775674E+02  0.11369386079E+03  0.90311752342E+02 0.  0.
        -13    1    3    3    0    0  0.27367984817E+02 -0.35403396238E+02  0.42152631854E+02  0.61475707421E+02  0.10570000000E+00 0.  1.
         13    1    3    3    0    0 -0.27367984817E+02  0.35403396238E+02  0.26913143820E+02  0.52218153366E+02  0.10570000000E+00 0. -1.
<mgrwt>
<rscale>  0 0.90311752E+02</rscale>
<asrwt>0</asrwt>
<pdfrwt beam="2">  1        1 0.34329296E-02 0.90311752E+02</pdfrwt>
<pdfrwt beam="1">  1       -1 0.14058434E-01 0.90311752E+02</pdfrwt>
<totfact> 0.84767210E+04</totfact>
</mgrwt>
</event>
<event>
 5   1  0.1388354E+00  0.9105252E+02  0.7818608E-02  0.1300323E+00
          1   -1    0    0  501    0  0.00000000000E+00  0.00000000000E+00  0.14812191583E+02  0.14812192320E+02  0.46700000000E-02 0. -1.
         -1   -1    0    0    0  501 -0.00000000000E+00 -0.00000000000E+00 -0.13992800756E+03  0.13992800764E+03  0.46700000000E-02 0.  1.
         23    2    1    2    0    0  0.00000000000E+00  0.00000000000E+00 -0.12511581597E+03  0.15474019995E+03  0.91052523717E+02 0.  0.
        -13    1    3    3    0    0  0.84044873435E+00 -0.42198626264E+02 -0.91558446083E+02  0.10081860262E+03  0.10570000000E+00 0.  1.
         13    1    3    3    0    0 -0.84044873435E+00  0.42198626264E+02 -0.33557369891E+02  0.53921597335E+02  0.10570000000E+00 0. -1.
<mgrwt>
<rscale>  0 0.91052524E+02</rscale>
<asrwt>0</asrwt>
<pdfrwt beam="1">  1        1 0.22787989E-02 0.91052524E+02</pdfrwt>
<pdfrwt beam="2">  1       -1 0.21527385E-01 0.91052524E+02</pdfrwt>
<totfact> 0.76258377E+04</totfact>
</mgrwt>
</event>
<event>
 5   1  0.1388354E+00  0.8915732E+02  0.7818608E-02  0.1304905E+00
          1   -1    0    0  501    0  0.00000000000E+00  0.00000000000E+00  0.10347334786E+03  0.10347334796E+03  0.46700000000E-02 0. -1.
         -1   -1    0    0    0  501 -0.00000000000E+00 -0.00000000000E+00 -0.19205495703E+02  0.19205496271E+02  0.46700000000E-02 0.  1.
         23    2    1    2    0    0  0.00000000000E+00  0.00000000000E+00  0.84267852153E+02  0.12267884423E+03  0.89157321156E+02 0.  0.
        -13    1    3    3    0    0  0.33909343169E+02 -0.10049994594E+02  0.79473513383E+02  0.86987909778E+02  0.10570000000E+00 0.  1.
         13    1    3    3    0    0 -0.33909343169E+02  0.10049994594E+02  0.47943387695E+01  0.35690934455E+02  0.10570000000E+00 0. -1.
<mgrwt>
<rscale>  0 0.89157321E+02</rscale>
<asrwt>0</asrwt>
<pdfrwt beam="1">  1        1 0.15918977E-01 0.89157321E+02</pdfrwt>
<pdfrwt beam="2">  1       -1 0.29546916E-02 0.89157321E+02</pdfrwt>
<totfact> 0.11164118E+05</totfact>
</mgrwt>
</event>
<event>
 5   1  0.1388354E+00  0.8888025E+02  0.7818608E-02  0.1305586E+00
          1   -1    0    0  501    0  0.00000000000E+00  0.00000000000E+00  0.79624003146E+02  0.79624003283E+02  0.46700000000E-02 0. -1.
         -1   -1    0    0    0  501 -0.00000000000E+00 -0.00000000000E+00 -0.24803132575E+02  0.24803133015E+02  0.46700000000E-02 0.  1.
         23    2    1    2    0    0  0.00000000000E+00  0.00000000000E+00  0.54820870571E+02  0.10442713630E+03  0.88880250591E+02 0.  0.
        -13    1    3    3    0    0 -0.23371317355E+02 -0.29056605155E+02  0.55813582599E+02  0.67124302254E+02  0.10570000000E+00 0. -1.
         13    1    3    3    0    0  0.23371317355E+02  0.29056605155E+02 -0.99271202845E+00  0.37302834044E+02  0.10570000000E+00 0.  1.
<mgrwt>
<rscale>  0 0.88880251E+02</rscale>
<asrwt>0</asrwt>
<pdfrwt beam="1">  1        1 0.12249847E-01 0.88880251E+02</pdfrwt>
<pdfrwt beam="2">  1       -1 0.38158665E-02 0.88880251E+02</pdfrwt>
<totfact> 0.10795272E+05</totfact>
</mgrwt>
</event>
<event>
 5   1  0.1388354E+00  0.8942087E+02  0.7818608E-02  0.1304260E+00
          1   -1    0    0  501    0  0.00000000000E+00  0.00000000000E+00  0.10432708596E+03  0.10432708606E+03  0.46700000000E-02 0. -1.
         -1   -1    0    0    0  501 -0.00000000000E+00 -0.00000000000E+00 -0.19161112643E+02  0.19161113212E+02  0.46700000000E-02 0.  1.
         23    2    1    2    0    0  0.00000000000E+00  0.00000000000E+00  0.85165973314E+02  0.12348819927E+03  0.89420871999E+02 0.  0.
        -13    1    3    3    0    0 -0.27400859209E+02 -0.23336811171E+02  0.59519779498E+01  0.36480831337E+02  0.10570000000E+00 0.  1.
         13    1    3    3    0    0  0.27400859209E+02  0.23336811171E+02  0.79213995364E+02  0.87007367935E+02  0.10570000000E+00 0. -1.
<mgrwt>
<rscale>  0 0.89420872E+02</rscale>
<asrwt>0</asrwt>
<pdfrwt beam="1">  1        1 0.16050321E-01 0.89420872E+02</pdfrwt>
<pdfrwt beam="2">  1       -1 0.29478636E-02 0.89420872E+02</pdfrwt>
<totfact> 0.11090199E+05</totfact>
</mgrwt>
</event>
<event>
 5   1  0.1388354E+00  0.8511270E+02  0.7818608E-02  0.1315138E+00
         -1   -1    0    0    0  501 -0.00000000000E+00  0.00000000000E+00  0.30309692796E+02  0.30309693156E+02  0.46700000000E-02 0.  1.
          1   -1    0    0  501    0  0.00000000000E+00 -0.00000000000E+00 -0.59751273844E+02  0.59751274027E+02  0.46700000000E-02 0. -1.
         23    2    1    2    0    0  0.00000000000E+00  0.00000000000E+00 -0.29441581048E+02  0.90060967183E+02  0.85112696558E+02 0.  0.
        -13    1    3    3    0    0  0.34989856175E+02 -0.21700989288E+02 -0.33337011845E+01  0.41307961791E+02  0.10570000000E+00 0.  1.
         13    1    3    3    0    0 -0.34989856175E+02  0.21700989288E+02 -0.26107879864E+02  0.48753005392E+02  0.10570000000E+00 0. -1.
<mgrwt>
<rscale>  0 0.85112697E+02</rscale>
<asrwt>0</asrwt>
<pdfrwt beam="2">  1        1 0.91925037E-02 0.85112697E+02</pdfrwt>
<pdfrwt beam="1">  1       -1 0.46630297E-02 0.85112697E+02</pdfrwt>
<totfact> 0.11644207E+05</totfact>
</mgrwt>
</event>
<event>
 5   1  0.1388354E+00  0.9248992E+02  0.7818608E-02  0.1296932E+00
         -1   -1    0    0    0  501 -0.00000000000E+00  0.00000000000E+00  0.56246107804E+02  0.56246107998E+02  0.46700000000E-02 0.  1.
          1   -1    0    0  501    0  0.00000000000E+00 -0.00000000000E+00 -0.38022124226E+02  0.38022124512E+02  0.46700000000E-02 0. -1.
         23    2    1    2    0    0  0.00000000000E+00  0.00000000000E+00  0.18223983578E+02  0.94268232510E+02  0.92489924225E+02 0.  0.
        -13    1    3    3    0    0 -0.40127112596E+02  0.86023671695E+01  0.30838495545E+02  0.51334295224E+02  0.10570000000E+00 0.  1.
         13    1    3    3    0    0  0.40127112596E+02 -0.86023671695E+01 -0.12614511967E+02  0.42933937286E+02  0.10570000000E+00 0. -1.
<mgrwt>
<rscale>  0 0.92489924E+02</rscale>
<asrwt>0</asrwt>
<pdfrwt beam="2">  1        1 0.58495576E-02 0.92489924E+02</pdfrwt>
<pdfrwt beam="1">  1       -1 0.86532474E-02 0.92489924E+02</pdfrwt>
<totfact> 0.86386978E+04</totfact>
</mgrwt>
</event>
<event>
 5   1  0.1388354E+00  0.9056638E+02  0.7818608E-02  0.1301486E+00
         -1   -1    0    0    0  501 -0.00000000000E+00  0.00000000000E+00  0.11185712860E+02  0.11185713835E+02  0.46700000000E-02 0.  1.
          1   -1    0    0  501    0  0.00000000000E+00 -0.00000000000E+00 -0.18332020844E+03  0.18332020850E+03  0.46700000000E-02 0. -1.
         23    2    1    2    0    0  0.00000000000E+00  0.00000000000E+00 -0.17213449558E+03  0.19450592234E+03  0.90566380377E+02 0.  0.
        -13    1    3    3    0    0  0.62390997545E+01  0.30636610294E+02 -0.15716078104E+02  0.34993349933E+02  0.10570000000E+00 0.  1.
         13    1    3    3    0    0 -0.62390997545E+01 -0.30636610294E+02 -0.15641841748E+03  0.15951257240E+03  0.10570000000E+00 0. -1.
<mgrwt>
<rscale>  0 0.90566380E+02</rscale>
<asrwt>0</asrwt>
<pdfrwt beam="2">  1        1 0.28203107E-01 0.90566380E+02</pdfrwt>
<pdfrwt beam="1">  1       -1 0.17208791E-02 0.90566380E+02</pdfrwt>
<totfact> 0.11855152E+05</totfact>
</mgrwt>
</event>
<event>
 5   1  0.1388354E+00  0.9146389E+02  0.7818608E-02  0.1299345E+00
         -1   -1    0    0    0  501 -0.00000000000E+00  0.00000000000E+00  0.19015490441E+02  0.19015491015E+02  0.46700000000E-02 0.  1.
          1   -1    0    0  501    0  0.00000000000E+00 -0.00000000000E+00 -0.10998459208E+03  0.10998459218E+03  0.46700000000E-02 0. -1.
         23    2    1    2    0    0  0.00000000000E+00  0.00000000000E+00 -0.90969101637E+02  0.12900008319E+03  0.91463894576E+02 0.  0.
        -13    1    3    3    0    0  0.27030532073E+02  0.15227025682E+02  0.19031568707E+01  0.31082875573E+02  0.10570000000E+00 0.  1.
         13    1    3    3    0    0 -0.27030532073E+02 -0.15227025682E+02 -0.92872258507E+02  0.97917207620E+02  0.10570000000E+00 0. -1.
<mgrwt>
<rscale>  0 0.91463895E+02</rscale>
<asrwt>0</asrwt>
<pdfrwt beam="2">  1        1 0.16920706E-01 0.91463895E+02</pdfrwt>
<pdfrwt beam="1">  1       -1 0.29254602E-02 0.91463895E+02</pdfrwt>
<totfact> 0.10523308E+05</totfact>
</mgrwt>
</event>
<event>
 5   1  0.1388354E+00  0.9358153E+02  0.7818608E-02  0.1294403E+00
          1   -1    0    0  501    0  0.00000000000E+00  0.00000000000E+00  0.46588336299E+02  0.46588336533E+02  0.46700000000E-02 0. -1.
         -1   -1    0    0    0  501 -0.00000000000E+00 -0.00000000000E+00 -0.46994075621E+02  0.46994075853E+02  0.46700000000E-02 0.  1.
         23    2    1    2    0    0  0.00000000000E+00  0.00000000000E+00 -0.40573932182E+00  0.93582412386E+02  0.93581532813E+02 0.  0.
        -13    1    3    3    0    0  0.15025400155E+02 -0.22606637957E+01  0.44052392328E+02  0.46599331465E+02  0.10570000000E+00 0. -1.
         13    1    3    3    0    0 -0.15025400155E+02  0.22606637957E+01 -0.44458131650E+02  0.46983080922E+02  0.10570000000E+00 0.  1.
<mgrwt>
<rscale>  0 0.93581533E+02</rscale>
<asrwt>0</asrwt>
<pdfrwt beam="1">  1        1 0.71674364E-02 0.93581533E+02</pdfrwt>
<pdfrwt beam="2">  1       -1 0.72298578E-02 0.93581533E+02</pdfrwt>
<totfact> 0.86224070E+04</totfact>
</mgrwt>
</event>
<event>
 5   1  0.1388354E+00  0.9171071E+02  0.7818608E-02  0.1298761E+00
          1   -1    0    0  501    0  0.00000000000E+00  0.00000000000E+00  0.13329158292E+03  0.13329158301E+03  0.46700000000E-02 0. -1.
         -1   -1    0    0    0  501 -0.00000000000E+00 -0.00000000000E+00 -0.15775289732E+02  0.15775290424E+02  0.46700000000E-02 0.  1.
         23    2    1    2    0    0  0.00000000000E+00  0.00000000000E+00  0.11751629319E+03  0.14906687343E+03  0.91710705965E+02 0.  0.
        -13    1    3    3    0    0  0.20305385204E+02  0.34014817360E+02  0.96297069989E+02  0.10412710180E+03  0.10570000000E+00 0. -1.
         13    1    3    3    0    0 -0.20305385204E+02 -0.34014817360E+02  0.21219223204E+02  0.44939771630E+02  0.10570000000E+00 0.  1.
<mgrwt>
<rscale>  0 0.91710706E+02</rscale>
<asrwt>0</asrwt>
<pdfrwt beam="1">  1        1 0.20506397E-01 0.91710706E+02</pdfrwt>
<pdfrwt beam="2">  1       -1 0.24269678E-02 0.91710706E+02</pdfrwt>
<totfact> 0.10803378E+05</totfact>
</mgrwt>
</event>
<event>
 5   1  0.1388354E+00  0.9130572E+02  0.7818608E-02  0.1299720E+00
          1   -1    0    0  501    0  0.00000000000E+00  0.00000000000E+00  0.69651916088E+02  0.69651916244E+02  0.46700000000E-02 0. -1.
         -1   -1    0    0    0  501 -0.00000000000E+00 -0.00000000000E+00 -0.29922849792E+02  0.29922850156E+02  0.46700000000E-02 0.  1.
         23    2    1    2    0    0  0.00000000000E+00  0.00000000000E+00  0.39729066296E+02  0.99574766400E+02  0.91305724875E+02 0.  0.
        -13    1    3    3    0    0  0.46738899873E+01 -0.35023505495E+02  0.51390736995E+02  0.62365937868E+02  0.10570000000E+00 0. -1.
         13    1    3    3    0    0 -0.46738899873E+01  0.35023505495E+02 -0.11661670699E+02  0.37208828532E+02  0.10570000000E+00 0.  1.
<mgrwt>
<rscale>  0 0.91305725E+02</rscale>
<asrwt>0</asrwt>
<pdfrwt beam="1">  1        1 0.10715679E-01 0.91305725E+02</pdfrwt>
<pdfrwt beam="2">  1       -1 0.46035155E-02 0.91305725E+02</pdfrwt>
<totfact> 0.98207280E+04</totfact>
</mgrwt>
</event>
<event>
 5   1  0.1388354E+00  0.8980080E+02  0.7818608E-02  0.1303335E+00
         -1   -1    0    0    0  501 -0.00000000000E+00  0.00000000000E+00  0.79857371110E+02  0.79857371247E+02  0.46700000000E-02 0.  1.
          1   -1    0    0  501    0  0.00000000000E+00 -0.00000000000E+00 -0.25245580308E+02  0.25245580740E+02  0.46700000000E-02 0. -1.
         23    2    1    2    0    0  0.00000000000E+00  0.00000000000E+00  0.54611790802E+02  0.10510295199E+03  0.89800795218E+02 0.  0.
        -13    1    3    3    0    0  0.88895456721E+01  0.24879369233E+02  0.69796896856E+02  0.74629920400E+02  0.10570000000E+00 0.  1.
         13    1    3    3    0    0 -0.88895456721E+01 -0.24879369233E+02 -0.15185106054E+02  0.30473031586E+02  0.10570000000E+00 0. -1.
<mgrwt>
<rscale>  0 0.89800795E+02</rscale>
<asrwt>0</asrwt>
<pdfrwt beam="2">  1        1 0.38839355E-02 0.89800795E+02</pdfrwt>
<pdfrwt beam="1">  1       -1 0.12285749E-01 0.89800795E+02</pdfrwt>
<totfact> 0.88033725E+04</totfact>
</mgrwt>
</event>
<event>
 5   1  0.1388354E+00  0.7610236E+02  0.7818608E-02  0.1340491E+00
          1   -1    0    0  501    0  0.00000000000E+00  0.00000000000E+00  0.57410489259E+01  0.57410508252E+01  0.46700000000E-02 0. -1.
         -1   -1    0    0    0  501 -0.00000000000E+00 -0.00000000000E+00 -0.25219991791E+03  0.25219991795E+03  0.46700000000E-02 0.  1.
         23    2    1    2    0    0  0.00000000000E+00  0.00000000000E+00 -0.24645886898E+03  0.25794096878E+03  0.76102360498E+02 0.  0.
        -13    1    3    3    0    0 -0.13427068168E+02  0.34133781830E+02 -0.88917784995E+02  0.96186199023E+02  0.10570000000E+00 0.  1.
         13    1    3    3    0    0  0.13427068168E+02 -0.34133781830E+02 -0.15754108399E+03  0.16175476975E+03  0.10570000000E+00 0. -1.
<mgrwt>
<rscale>  0 0.76102360E+02</rscale>
<asrwt>0</asrwt>
<pdfrwt beam="1">  1        1 0.88323864E-03 0.76102360E+02</pdfrwt>
<pdfrwt beam="2">  1       -1 0.38799979E-01 0.76102360E+02</pdfrwt>
<totfact> 0.10320298E+05</totfact>
</mgrwt>
</event>
<event>
 5   1  0.1388354E+00  0.8821725E+02  0.7818608E-02  0.1307227E+00
         -1   -1    0    0    0  501 -0.00000000000E+00  0.00000000000E+00  0.62871486047E+02  0.62871486220E+02  0.46700000000E-02 0.  1.
          1   -1    0    0  501    0  0.00000000000E+00 -0.00000000000E+00 -0.30945198670E+02  0.30945199023E+02  0.46700000000E-02 0. -1.
         23    2    1    2    0    0  0.00000000000E+00  0.00000000000E+00  0.31926287377E+02  0.93816685243E+02  0.88217246637E+02 0.  0.
        -13    1    3    3    0    0  0.30104075081E+02 -0.60489140269E+01  0.49638739938E+02  0.58368316513E+02  0.10570000000E+00 0.  1.
         13    1    3    3    0    0 -0.30104075081E+02  0.60489140269E+01 -0.17712452562E+02  0.35448368730E+02  0.10570000000E+00 0. -1.
<mgrwt>
<rscale>  0 0.88217247E+02</rscale>
<asrwt>0</asrwt>
<pdfrwt beam="2">  1        1 0.47607998E-02 0.88217247E+02</pdfrwt>
<pdfrwt beam="1">  1       -1 0.96725365E-02 0.88217247E+02</pdfrwt>
<totfact> 0.95721469E+04</totfact>
</mgrwt>
</event>
<event>
 5   1  0.1388354E+00  0.8987057E+02  0.7818608E-02  0.1303165E+00
         -1   -1    0    0    0  501 -0.00000000000E+00  0.00000000000E+00  0.60265082488E+01  0.60265100582E+01  0.46700000000E-02 0.  1.
          1   -1    0    0  501    0  0.00000000000E+00 -0.00000000000E+00 -0.33504968149E+03  0.33504968152E+03  0.46700000000E-02 0. -1.
         23    2    1    2    0    0  0.00000000000E+00  0.00000000000E+00 -0.32902317324E+03  0.34107619158E+03  0.89870573235E+02 0.  0.
        -13    1    3    3    0    0  0.17194727824E+02 -0.41039697768E+02 -0.18828941968E+03  0.19347566305E+03  0.10570000000E+00 0. -1.
         13    1    3    3    0    0 -0.17194727824E+02  0.41039697768E+02 -0.14073375356E+03  0.14760052853E+03  0.10570000000E+00 0.  1.
<mgrwt>
<rscale>  0 0.89870573E+02</rscale>
<asrwt>0</asrwt>
<pdfrwt beam="2">  1        1 0.51546090E-01 0.89870573E+02</pdfrwt>
<pdfrwt beam="1">  1       -1 0.92715552E-03 0.89870573E+02</pdfrwt>
<totfact> 0.13590988E+05</totfact>
</mgrwt>
</event>
<event>
 5   1  0.1388354E+00  0.9324309E+02  0.7818608E-02  0.1295183E+00
         -1   -1    0    0    0  501 -0.00000000000E+00  0.00000000000E+00  0.66122331384E+02  0.66122331549E+02  0.46700000000E-02 0.  1.
          1   -1    0    0  501    0  0.00000000000E+00 -0.00000000000E+00 -0.32871928907E+02  0.32871929238E+02  0.46700000000E-02 0. -1.
         23    2    1    2    0    0  0.00000000000E+00  0.00000000000E+00  0.33250402477E+02  0.98994260787E+02  0.93243093063E+02 0.  0.
        -13    1    3    3    0    0  0.71374575018E+01  0.15905753904E+02 -0.29280872333E+02  0.34078100944E+02  0.10570000000E+00 0. -1.
         13    1    3    3    0    0 -0.71374575018E+01 -0.15905753904E+02  0.62531274811E+02  0.64916159843E+02  0.10570000000E+00 0.  1.
<mgrwt>
<rscale>  0 0.93243093E+02</rscale>
<asrwt>0</asrwt>
<pdfrwt beam="2">  1        1 0.50572199E-02 0.93243093E+02</pdfrwt>
<pdfrwt beam="1">  1       -1 0.10172666E-01 0.93243093E+02</pdfrwt>
<totfact> 0.82488844E+04</totfact>
</mgrwt>
</event>
<event>
 5   1  0.1388354E+00  0.9133398E+02  0.7818608E-02  0.1299653E+00
         -1   -1    0    0    0  501 -0.00000000000E+00  0.00000000000E+00  0.14707606989E+02  0.14707607730E+02  0.46700000000E-02 0.  1.
          1   -1    0    0  501    0  0.00000000000E+00 -0.00000000000E+00 -0.14179559647E+03  0.14179559655E+03  0.46700000000E-02 0. -1.
         23    2    1    2    0    0  0.00000000000E+00  0.00000000000E+00 -0.12708798948E+03  0.15650320428E+03  0.91333979869E+02 0.  0.
        -13    1    3    3    0    0  0.41297859118E+02 -0.18555665932E+02 -0.73773173256E+02  0.86558177953E+02  0.10570000000E+00 0. -1.
         13    1    3    3    0    0 -0.41297859118E+02  0.18555665932E+02 -0.53314816227E+02  0.69945026325E+02  0.10570000000E+00 0.  1.
<mgrwt>
<rscale>  0 0.91333980E+02</rscale>
<asrwt>0</asrwt>
<pdfrwt beam="2">  1        1 0.21814706E-01 0.91333980E+02</pdfrwt>
<pdfrwt beam="1">  1       -1 0.22627089E-02 0.91333980E+02</pdfrwt>
<totfact> 0.11047060E+05</totfact>
</mgrwt>
</event>
<event>
 5   1  0.1388354E+00  0.9128336E+02  0.7818608E-02  0.1299773E+00
         -1   -1    0    0    0  501 -0.00000000000E+00  0.00000000000E+00  0.13573429533E+02  0.13573430336E+02  0.46700000000E-02 0.  1.
          1   -1    0    0  501    0  0.00000000000E+00 -0.00000000000E+00 -0.15347357069E+03  0.15347357076E+03  0.46700000000E-02 0. -1.
         23    2    1    2    0    0  0.00000000000E+00  0.00000000000E+00 -0.13990014116E+03  0.16704700110E+03  0.91283355985E+02 0.  0.
        -13    1    3    3    0    0 -0.35136256618E+02 -0.43968131981E+01 -0.17252177006E+02  0.39389557999E+02  0.10570000000E+00 0.  1.
         13    1    3    3    0    0  0.35136256618E+02  0.43968131981E+01 -0.12264796415E+03  0.12765744310E+03  0.10570000000E+00 0. -1.
<mgrwt>
<rscale>  0 0.91283356E+02</rscale>
<asrwt>0</asrwt>
<pdfrwt beam="2">  1        1 0.23611317E-01 0.91283356E+02</pdfrwt>
<pdfrwt beam="1">  1       -1 0.20882201E-02 0.91283356E+02</pdfrwt>
<totfact> 0.11225251E+05</totfact>
</mgrwt>
</event>
<event>
 5   1  0.1388354E+00  0.8926448E+02  0.7818608E-02  0.1304643E+00
          1   -1    0    0  501    0  0.00000000000E+00  0.00000000000E+00  0.11973513792E+03  0.11973513801E+03  0.46700000000E-02 0. -1.
         -1   -1    0    0    0  501 -0.00000000000E+00 -0.00000000000E+00 -0.16637028534E+02  0.16637029189E+02  0.46700000000E-02 0.  1.
         23    2    1    2    0    0  0.00000000000E+00  0.00000000000E+00  0.10309810938E+03  0.13637216720E+03  0.89264482454E+02 0.  0.
        -13    1    3    3    0    0 -0.15875248507E+02 -0.22400370871E+02  0.10530753086E+03  0.10882778762E+03  0.10570000000E+00 0. -1.
         13    1    3    3    0    0  0.15875248507E+02  0.22400370871E+02 -0.22094214791E+01  0.27544379574E+02  0.10570000000E+00 0.  1.
<mgrwt>
<rscale>  0 0.89264482E+02</rscale>
<asrwt>0</asrwt>
<pdfrwt beam="1">  1        1 0.18420790E-01 0.89264482E+02</pdfrwt>
<pdfrwt beam="2">  1       -1 0.25595429E-02 0.89264482E+02</pdfrwt>
<totfact> 0.11405714E+05</totfact>
</mgrwt>
</event>
<event>
 5   1  0.1388354E+00  0.1196915E+03  0.7818608E-02  0.1243607E+00
         -1   -1    0    0    0  501 -0.00000000000E+00  0.00000000000E+00  0.47800589041E+03  0.47800589043E+03  0.46700000000E-02 0.  1.
          1   -1    0    0  501    0  0.00000000000E+00 -0.00000000000E+00 -0.74926174292E+01  0.74926188846E+01  0.46700000000E-02 0. -1.
         23    2    1    2    0    0  0.00000000000E+00  0.00000000000E+00  0.47051327298E+03  0.48549850931E+03  0.11969153060E+03 0.  0.
        -13    1    3    3    0    0 -0.10173482145E+02  0.54959450428E+02  0.32201327463E+03  0.32682809112E+03  0.10570000000E+00 0.  1.
         13    1    3    3    0    0  0.10173482145E+02 -0.54959450428E+02  0.14849999834E+03  0.15867041820E+03  0.10570000000E+00 0. -1.
<mgrwt>
<rscale>  0 0.11969153E+03</rscale>
<asrwt>0</asrwt>
<pdfrwt beam="2">  1        1 0.11527100E-02 0.11969153E+03</pdfrwt>
<pdfrwt beam="1">  1       -1 0.73539399E-01 0.11969153E+03</pdfrwt>
<totfact> 0.23511209E+04</totfact>
</mgrwt>
</event>
<event>
 5   1  0.1388354E+00  0.8814199E+02  0.7818608E-02  0.1307415E+00
          1   -1    0    0  501    0  0.00000000000E+00  0.00000000000E+00  0.15268282072E+03  0.15268282080E+03  0.46700000000E-02 0. -1.
         -1   -1    0    0    0  501 -0.00000000000E+00 -0.00000000000E+00 -0.12720830698E+02  0.12720831555E+02  0.46700000000E-02 0.  1.
         23    2    1    2    0    0  0.00000000000E+00  0.00000000000E+00  0.13996199003E+03  0.16540365235E+03  0.88141985221E+02 0.  0.
        -13    1    3    3    0    0 -0.27693856967E+02  0.30467560620E+02  0.40487402915E+02  0.57744808694E+02  0.10570000000E+00 0. -1.
         13    1    3    3    0    0  0.27693856967E+02 -0.30467560620E+02  0.99474587112E+02  0.10765884366E+03  0.10570000000E+00 0.  1.
<mgrwt>
<rscale>  0 0.88141985E+02</rscale>
<asrwt>0</asrwt>
<pdfrwt beam="1">  1        1 0.23489663E-01 0.88141985E+02</pdfrwt>
<pdfrwt beam="2">  1       -1 0.19570511E-02 0.88141985E+02</pdfrwt>
<totfact> 0.12322189E+05</totfact>
</mgrwt>
</event>
<event>
 5   1  0.1388354E+00  0.8701602E+02  0.7818608E-02  0.1310243E+00
         -1   -1    0    0    0  501 -0.00000000000E+00  0.00000000000E+00  0.49291600347E+02  0.49291600569E+02  0.46700000000E-02 0.  1.
          1   -1    0    0  501    0  0.00000000000E+00 -0.00000000000E+00 -0.38403031374E+02  0.38403031658E+02  0.46700000000E-02 0. -1.
         23    2    1    2    0    0  0.00000000000E+00  0.00000000000E+00  0.10888568974E+02  0.87694632226E+02  0.87016019140E+02 0.  0.
        -13    1    3    3    0    0 -0.20962104054E+02 -0.18998247381E+02  0.38756453432E+02  0.47983508261E+02  0.10570000000E+00 0. -1.
         13    1    3    3    0    0  0.20962104054E+02  0.18998247381E+02 -0.27867884458E+02  0.39711123965E+02  0.10570000000E+00 0.  1.
<mgrwt>
<rscale>  0 0.87016019E+02</rscale>
<asrwt>0</asrwt>
<pdfrwt beam="2">  1        1 0.59081587E-02 0.87016019E+02</pdfrwt>
<pdfrwt beam="1">  1       -1 0.75833231E-02 0.87016019E+02</pdfrwt>
<totfact> 0.10277282E+05</totfact>
</mgrwt>
</event>
<event>
 5   1  0.1388354E+00  0.9170877E+02  0.7818608E-02  0.1298766E+00
         -1   -1    0    0    0  501 -0.00000000000E+00  0.00000000000E+00  0.32929602252E+02  0.32929602583E+02  0.46700000000E-02 0.  1.
          1   -1    0    0  501    0  0.00000000000E+00 -0.00000000000E+00 -0.63852104183E+02  0.63852104354E+02  0.46700000000E-02 0. -1.
         23    2    1    2    0    0  0.00000000000E+00  0.00000000000E+00 -0.30922501931E+02  0.96781706937E+02  0.91708765513E+02 0.  0.
        -13    1    3    3    0    0  0.26415571515E+02 -0.35635228269E+02 -0.32013458261E+01  0.44473719204E+02  0.10570000000E+00 0. -1.
         13    1    3    3    0    0 -0.26415571515E+02  0.35635228269E+02 -0.27721156105E+02  0.52307987732E+02  0.10570000000E+00 0.  1.
<mgrwt>
<rscale>  0 0.91708766E+02</rscale>
<asrwt>0</asrwt>
<pdfrwt beam="2">  1        1 0.98234007E-02 0.91708766E+02</pdfrwt>
<pdfrwt beam="1">  1       -1 0.50660927E-02 0.91708766E+02</pdfrwt>
<totfact> 0.95730456E+04</totfact>
</mgrwt>
</event>
<event>
 5   1  0.1388354E+00  0.9066986E+02  0.7818608E-02  0.1301238E+00
         -1   -1    0    0    0  501 -0.00000000000E+00  0.00000000000E+00  0.61723021909E+02  0.61723022086E+02  0.46700000000E-02 0.  1.
          1   -1    0    0  501    0  0.00000000000E+00 -0.00000000000E+00 -0.33298040722E+02  0.33298041049E+02  0.46700000000E-02 0. -1.
         23    2    1    2    0    0  0.00000000000E+00  0.00000000000E+00  0.28424981187E+02  0.95021063135E+02  0.90669856533E+02 0.  0.
        -13    1    3    3    0    0  0.28448483019E+02  0.28571573402E+02 -0.75088104952E+01  0.41012734611E+02  0.10570000000E+00 0. -1.
         13    1    3    3    0    0 -0.28448483019E+02 -0.28571573402E+02  0.35933791682E+02  0.54008328524E+02  0.10570000000E+00 0.  1.
<mgrwt>
<rscale>  0 0.90669857E+02</rscale>
<asrwt>0</asrwt>
<pdfrwt beam="2">  1        1 0.51227756E-02 0.90669857E+02</pdfrwt>
<pdfrwt beam="1">  1       -1 0.94958494E-02 0.90669857E+02</pdfrwt>
<totfact> 0.89546928E+04</totfact>
</mgrwt>
</event>
<event>
 5   1  0.1388354E+00  0.9198774E+02  0.7818608E-02  0.1298108E+00
          1   -1    0    0  501    0  0.00000000000E+00  0.00000000000E+00  0.15331728221E+02  0.15331728932E+02  0.46700000000E-02 0. -1.
         -1   -1    0    0    0  501 -0.00000000000E+00 -0.00000000000E+00 -0.13797765208E+03  0.13797765216E+03  0.46700000000E-02 0.  1.
         23    2    1    2    0    0  0.00000000000E+00  0.00000000000E+00 -0.12264592386E+03  0.15330938109E+03  0.91987736635E+02 0.  0.
        -13    1    3    3    0    0  0.22378883287E+02 -0.70353225197E+01 -0.12725733248E+03  0.12940150703E+03  0.10570000000E+00 0.  1.
         13    1    3    3    0    0 -0.22378883287E+02  0.70353225197E+01  0.46114086181E+01  0.23907874060E+02  0.10570000000E+00 0. -1.
<mgrwt>
<rscale>  0 0.91987737E+02</rscale>
<asrwt>0</asrwt>
<pdfrwt beam="1">  1        1 0.23587276E-02 0.91987737E+02</pdfrwt>
<pdfrwt beam="2">  1       -1 0.21227330E-01 0.91987737E+02</pdfrwt>
<totfact> 0.74495827E+04</totfact>
</mgrwt>
</event>
<event>
 5   1  0.1388354E+00  0.8990968E+02  0.7818608E-02  0.1303071E+00
         -1   -1    0    0    0  501 -0.00000000000E+00  0.00000000000E+00  0.86914404308E+01  0.86914416854E+01  0.46700000000E-02 0.  1.
          1   -1    0    0  501    0  0.00000000000E+00 -0.00000000000E+00 -0.23252040742E+03  0.23252040747E+03  0.46700000000E-02 0. -1.
         23    2    1    2    0    0  0.00000000000E+00  0.00000000000E+00 -0.22382896699E+03  0.24121184915E+03  0.89909675275E+02 0.  0.
        -13    1    3    3    0    0 -0.32938330044E+02  0.15641257951E+02 -0.41373872117E+02  0.55148807810E+02  0.10570000000E+00 0.  1.
         13    1    3    3    0    0  0.32938330044E+02 -0.15641257951E+02 -0.18245509487E+03  0.18606304134E+03  0.10570000000E+00 0. -1.
<mgrwt>
<rscale>  0 0.89909675E+02</rscale>
<asrwt>0</asrwt>
<pdfrwt beam="2">  1        1 0.35772366E-01 0.89909675E+02</pdfrwt>
<pdfrwt beam="1">  1       -1 0.13371450E-02 0.89909675E+02</pdfrwt>
<totfact> 0.12657859E+05</totfact>
</mgrwt>
</event>
<event>
 5   1  0.1388354E+00  0.9139821E+02  0.7818608E-02  0.1299501E+00
          1   -1    0    0  501    0  0.00000000000E+00  0.00000000000E+00  0.49793104876E+02  0.49793105095E+02  0.46700000000E-02 0. -1.
         -1   -1    0    0    0  501 -0.00000000000E+00 -0.00000000000E+00 -0.41941715244E+02  0.41941715504E+02  0.46700000000E-02 0.  1.
         23    2    1    2    0    0  0.00000000000E+00  0.00000000000E+00  0.78513896324E+01  0.91734820599E+02  0.91398211093E+02 0.  0.
        -13    1    3    3    0    0  0.27272475276E+02 -0.85142283607E+01  0.39723801899E+02  0.48931294711E+02  0.10570000000E+00 0. -1.
         13    1    3    3    0    0 -0.27272475276E+02  0.85142283607E+01 -0.31872412267E+02  0.42803525888E+02  0.10570000000E+00 0.  1.
<mgrwt>
<rscale>  0 0.91398211E+02</rscale>
<asrwt>0</asrwt>
<pdfrwt beam="1">  1        1 0.76604777E-02 0.91398211E+02</pdfrwt>
<pdfrwt beam="2">  1       -1 0.64525716E-02 0.91398211E+02</pdfrwt>
<totfact> 0.93071661E+04</totfact>
</mgrwt>
</event>
<event>
 5   1  0.1388354E+00  0.7264958E+02  0.7818608E-02  0.1351308E+00
         -1   -1    0    0    0  501 -0.00000000000E+00  0.00000000000E+00  0.90442553366E+01  0.90442565423E+01  0.46700000000E-02 0.  1.
          1   -1    0    0  501    0  0.00000000000E+00 -0.00000000000E+00 -0.14589265337E+03  0.14589265345E+03  0.46700000000E-02 0. -1.
         23    2    1    2    0    0  0.00000000000E+00  0.00000000000E+00 -0.13684839803E+03  0.15493690999E+03  0.72649583840E+02 0.  0.
        -13    1    3    3    0    0 -0.18989558577E+02 -0.28410756489E+02 -0.42156526877E+02  0.54267470459E+02  0.10570000000E+00 0. -1.
         13    1    3    3    0    0  0.18989558577E+02  0.28410756489E+02 -0.94691871157E+02  0.10066943953E+03  0.10570000000E+00 0.  1.
<mgrwt>
<rscale>  0 0.72649584E+02</rscale>
<asrwt>0</asrwt>
<pdfrwt beam="2">  1        1 0.22445022E-01 0.72649584E+02</pdfrwt>
<pdfrwt beam="1">  1       -1 0.13914241E-02 0.72649584E+02</pdfrwt>
<totfact> 0.20425687E+05</totfact>
</mgrwt>
</event>
<event>
 5   1  0.1388354E+00  0.9334113E+02  0.7818608E-02  0.1294957E+00
         -1   -1    0    0    0  501 -0.00000000000E+00  0.00000000000E+00  0.31094130383E+03  0.31094130387E+03  0.46700000000E-02 0.  1.
          1   -1    0    0  501    0  0.00000000000E+00 -0.00000000000E+00 -0.70049915587E+01  0.70049931153E+01  0.46700000000E-02 0. -1.
         23    2    1    2    0    0  0.00000000000E+00  0.00000000000E+00  0.30393631227E+03  0.31794629698E+03  0.93341126233E+02 0.  0.
        -13    1    3    3    0    0 -0.40561019635E+02 -0.19717428204E+02  0.11107048268E+03  0.11987759000E+03  0.10570000000E+00 0. -1.
         13    1    3    3    0    0  0.40561019635E+02  0.19717428204E+02  0.19286582959E+03  0.19806870698E+03  0.10570000000E+00 0.  1.
<mgrwt>
<rscale>  0 0.93341126E+02</rscale>
<asrwt>0</asrwt>
<pdfrwt beam="2">  1        1 0.10776912E-02 0.93341126E+02</pdfrwt>
<pdfrwt beam="1">  1       -1 0.47837121E-01 0.93341126E+02</pdfrwt>
<totfact> 0.56165298E+04</totfact>
</mgrwt>
</event>
<event>
 5   1  0.1388354E+00  0.8883495E+02  0.7818608E-02  0.1305698E+00
          1   -1    0    0  501    0  0.00000000000E+00  0.00000000000E+00  0.17387869600E+02  0.17387870227E+02  0.46700000000E-02 0. -1.
         -1   -1    0    0    0  501 -0.00000000000E+00 -0.00000000000E+00 -0.11346485965E+03  0.11346485974E+03  0.46700000000E-02 0.  1.
         23    2    1    2    0    0  0.00000000000E+00  0.00000000000E+00 -0.96076990048E+02  0.13085272997E+03  0.88834953279E+02 0.  0.
        -13    1    3    3    0    0 -0.16306204382E+02 -0.41234221409E+02 -0.44212202732E+02  0.62616957443E+02  0.10570000000E+00 0.  1.
         13    1    3    3    0    0  0.16306204382E+02  0.41234221409E+02 -0.51864787316E+02  0.68235772527E+02  0.10570000000E+00 0. -1.
<mgrwt>
<rscale>  0 0.88834953E+02</rscale>
<asrwt>0</asrwt>
<pdfrwt beam="1">  1        1 0.26750570E-02 0.88834953E+02</pdfrwt>
<pdfrwt beam="2">  1       -1 0.17456132E-01 0.88834953E+02</pdfrwt>
<totfact> 0.84933289E+04</totfact>
</mgrwt>
</event>
<event>
 5   1  0.1388354E+00  0.8851514E+02  0.7818608E-02  0.1306488E+00
          1   -1    0    0  501    0  0.00000000000E+00  0.00000000000E+00  0.11877842202E+03  0.11877842211E+03  0.46700000000E-02 0. -1.
         -1   -1    0    0    0  501 -0.00000000000E+00 -0.00000000000E+00 -0.16490641158E+02  0.16490641819E+02  0.46700000000E-02 0.  1.
         23    2    1    2    0    0  0.00000000000E+00  0.00000000000E+00  0.10228778086E+03  0.13526906393E+03  0.88515137368E+02 0.  0.
        -13    1    3    3    0    0  0.33472353831E+02 -0.20324991344E+02  0.19631127216E+02  0.43805205996E+02  0.10570000000E+00 0.  1.
         13    1    3    3    0    0 -0.33472353831E+02  0.20324991344E+02  0.82656653647E+02  0.91463857937E+02  0.10570000000E+00 0. -1.
<mgrwt>
<rscale>  0 0.88515137E+02</rscale>
<asrwt>0</asrwt>
<pdfrwt beam="1">  1        1 0.18273603E-01 0.88515137E+02</pdfrwt>
<pdfrwt beam="2">  1       -1 0.25370218E-02 0.88515137E+02</pdfrwt>
<totfact> 0.11652417E+05</totfact>
</mgrwt>
</event>
<event>
 5   1  0.1388354E+00  0.7565371E+02  0.7818608E-02  0.1341859E+00
          1   -1    0    0  501    0  0.00000000000E+00  0.00000000000E+00  0.97808012273E+02  0.97808012385E+02  0.46700000000E-02 0. -1.
         -1   -1    0    0    0  501 -0.00000000000E+00 -0.00000000000E+00 -0.14629381979E+02  0.14629382725E+02  0.46700000000E-02 0.  1.
         23    2    1    2    0    0  0.00000000000E+00  0.00000000000E+00  0.83178630294E+02  0.11243739511E+03  0.75653706330E+02 0.  0.
        -13    1    3    3    0    0 -0.29920284658E+02  0.11272019694E+02  0.71630561143E+02  0.78442528798E+02  0.10570000000E+00 0. -1.
         13    1    3    3    0    0  0.29920284658E+02 -0.11272019694E+02  0.11548069151E+02  0.33994866312E+02  0.10570000000E+00 0.  1.
<mgrwt>
<rscale>  0 0.75653706E+02</rscale>
<asrwt>0</asrwt>
<pdfrwt beam="1">  1        1 0.15047387E-01 0.75653706E+02</pdfrwt>
<pdfrwt beam="2">  1       -1 0.22506741E-02 0.75653706E+02</pdfrwt>
<totfact> 0.17206386E+05</totfact>
</mgrwt>
</event>
<event>
 5   1  0.1388354E+00  0.9005028E+02  0.7818608E-02  0.1302730E+00
          1   -1    0    0  501    0  0.00000000000E+00  0.00000000000E+00  0.25127552183E+03  0.25127552187E+03  0.46700000000E-02 0. -1.
         -1   -1    0    0    0  501 -0.00000000000E+00 -0.00000000000E+00 -0.80678883217E+01  0.80678896732E+01  0.46700000000E-02 0.  1.
         23    2    1    2    0    0  0.00000000000E+00  0.00000000000E+00  0.24320763350E+03  0.25934341154E+03  0.90050275490E+02 0.  0.
        -13    1    3    3    0    0 -0.28226060488E+02  0.32332311051E+02  0.16079309911E+03  0.16642271697E+03  0.10570000000E+00 0. -1.
         13    1    3    3    0    0  0.28226060488E+02 -0.32332311051E+02  0.82414534393E+02  0.92920694575E+02  0.10570000000E+00 0.  1.
<mgrwt>
<rscale>  0 0.90050275E+02</rscale>
<asrwt>0</asrwt>
<pdfrwt beam="1">  1        1 0.38657765E-01 0.90050275E+02</pdfrwt>
<pdfrwt beam="2">  1       -1 0.12412139E-02 0.90050275E+02</pdfrwt>
<totfact> 0.12796791E+05</totfact>
</mgrwt>
</event>
<event>
 5   1  0.1388354E+00  0.9056837E+02  0.7818608E-02  0.1301481E+00
         -1   -1    0    0    0  501 -0.00000000000E+00  0.00000000000E+00  0.21271550067E+03  0.21271550072E+03  0.46700000000E-02 0.  1.
          1   -1    0    0  501    0  0.00000000000E+00 -0.00000000000E+00 -0.96403756983E+01  0.96403768294E+01  0.46700000000E-02 0. -1.
         23    2    1    2    0    0  0.00000000000E+00  0.00000000000E+00  0.20307512497E+03  0.22235587755E+03  0.90568371406E+02 0.  0.
        -13    1    3    3    0    0  0.16958268342E+02 -0.34499725246E+02  0.16029811092E+03  0.16484328753E+03  0.10570000000E+00 0.  1.
         13    1    3    3    0    0 -0.16958268342E+02  0.34499725246E+02  0.42777014056E+02  0.57512590024E+02  0.10570000000E+00 0. -1.
<mgrwt>
<rscale>  0 0.90568371E+02</rscale>
<asrwt>0</asrwt>
<pdfrwt beam="2">  1        1 0.14831348E-02 0.90568371E+02</pdfrwt>
<pdfrwt beam="1">  1       -1 0.32725462E-01 0.90568371E+02</pdfrwt>
<totfact> 0.69383619E+04</totfact>
</mgrwt>
</event>
<event>
 5   1  0.1388354E+00  0.9246021E+02  0.7818608E-02  0.1297001E+00
          1   -1    0    0  501    0  0.00000000000E+00  0.00000000000E+00  0.10361454993E+03  0.10361455003E+03  0.46700000000E-02 0. -1.
         -1   -1    0    0    0  501 -0.00000000000E+00 -0.00000000000E+00 -0.20626663653E+02  0.20626664182E+02  0.46700000000E-02 0.  1.
         23    2    1    2    0    0  0.00000000000E+00  0.00000000000E+00  0.82987886276E+02  0.12424121422E+03  0.92460207880E+02 0.  0.
        -13    1    3    3    0    0  0.17148404416E+02 -0.37034958377E+02  0.12314487009E+02  0.42629962219E+02  0.10570000000E+00 0. -1.
         13    1    3    3    0    0 -0.17148404416E+02  0.37034958377E+02  0.70673399267E+02  0.81611251996E+02  0.10570000000E+00 0.  1.
<mgrwt>
<rscale>  0 0.92460208E+02</rscale>
<asrwt>0</asrwt>
<pdfrwt beam="1">  1        1 0.15940700E-01 0.92460208E+02</pdfrwt>
<pdfrwt beam="2">  1       -1 0.31733329E-02 0.92460208E+02</pdfrwt>
<totfact> 0.10114145E+05</totfact>
</mgrwt>
</event>
<event>
 5   1  0.1388354E+00  0.9224370E+02  0.7818608E-02  0.1297507E+00
          1   -1    0    0  501    0  0.00000000000E+00  0.00000000000E+00  0.30871035341E+02  0.30871035695E+02  0.46700000000E-02 0. -1.
         -1   -1    0    0    0  501 -0.00000000000E+00 -0.00000000000E+00 -0.68906826429E+02  0.68906826587E+02  0.46700000000E-02 0.  1.
         23    2    1    2    0    0  0.00000000000E+00  0.00000000000E+00 -0.38035791088E+02  0.99777862282E+02  0.92243701128E+02 0.  0.
        -13    1    3    3    0    0  0.37934813083E+01 -0.40154577218E+02  0.51796100743E+01  0.40664728021E+02  0.10570000000E+00 0. -1.
         13    1    3    3    0    0 -0.37934813083E+01  0.40154577218E+02 -0.43215401162E+02  0.59113134260E+02  0.10570000000E+00 0.  1.
<mgrwt>
<rscale>  0 0.92243701E+02</rscale>
<asrwt>0</asrwt>
<pdfrwt beam="1">  1        1 0.47493901E-02 0.92243701E+02</pdfrwt>
<pdfrwt beam="2">  1       -1 0.10601050E-01 0.92243701E+02</pdfrwt>
<totfact> 0.84222678E+04</totfact>
</mgrwt>
</event>
<event>
 5   1  0.1388354E+00  0.8768457E+02  0.7818608E-02  0.1308558E+00
          1   -1    0    0  501    0  0.00000000000E+00  0.00000000000E+00  0.10074764677E+03  0.10074764688E+03  0.46700000000E-02 0. -1.
         -1   -1    0    0    0  501 -0.00000000000E+00 -0.00000000000E+00 -0.19078816849E+02  0.19078817420E+02  0.46700000000E-02 0.  1.
         23    2    1    2    0    0  0.00000000000E+00  0.00000000000E+00  0.81668829921E+02  0.11982646430E+03  0.87684569712E+02 0.  0.
        -13    1    3    3    0    0  0.11440242744E+02  0.30772702284E+02  0.80542326049E+02  0.86976524521E+02  0.10570000000E+00 0. -1.
         13    1    3    3    0    0 -0.11440242744E+02 -0.30772702284E+02  0.11265038722E+01  0.32849939777E+02  0.10570000000E+00 0.  1.
<mgrwt>
<rscale>  0 0.87684570E+02</rscale>
<asrwt>0</asrwt>
<pdfrwt beam="1">  1        1 0.15499638E-01 0.87684570E+02</pdfrwt>
<pdfrwt beam="2">  1       -1 0.29352027E-02 0.87684570E+02</pdfrwt>
<totfact> 0.11628633E+05</totfact>
</mgrwt>
</event>
<event>
 5   1  0.1388354E+00  0.9088744E+02  0.7818608E-02  0.1300717E+00
          1   -1    0    0  501    0  0.00000000000E+00  0.00000000000E+00  0.33052922681E+03  0.33052922684E+03  0.46700000000E-02 0. -1.
         -1   -1    0    0    0  501 -0.00000000000E+00 -0.00000000000E+00 -0.62479545946E+01  0.62479563399E+01  0.46700000000E-02 0.  1.
         23    2    1    2    0    0  0.00000000000E+00  0.00000000000E+00  0.32428127221E+03  0.33677718318E+03  0.90887444694E+02 0.  0.
        -13    1    3    3    0    0  0.26643750743E+02 -0.36260233986E+02  0.13858076316E+03  0.14570289329E+03  0.10570000000E+00 0. -1.
         13    1    3    3    0    0 -0.26643750743E+02  0.36260233986E+02  0.18570050906E+03  0.19107428989E+03  0.10570000000E+00 0.  1.
<mgrwt>
<rscale>  0 0.90887445E+02</rscale>
<asrwt>0</asrwt>
<pdfrwt beam="1">  1        1 0.50850636E-01 0.90887445E+02</pdfrwt>
<pdfrwt beam="2">  1       -1 0.96122419E-03 0.90887445E+02</pdfrwt>
<totfact> 0.13157975E+05</totfact>
</mgrwt>
</event>
<event>
 5   1  0.1388354E+00  0.9192277E+02  0.7818608E-02  0.1298261E+00
         -1   -1    0    0    0  501 -0.00000000000E+00  0.00000000000E+00  0.11576625510E+02  0.11576626452E+02  0.46700000000E-02 0.  1.
          1   -1    0    0  501    0  0.00000000000E+00 -0.00000000000E+00 -0.18247535930E+03  0.18247535936E+03  0.46700000000E-02 0. -1.
         23    2    1    2    0    0  0.00000000000E+00  0.00000000000E+00 -0.17089873379E+03  0.19405198581E+03  0.91922771859E+02 0.  0.
        -13    1    3    3    0    0  0.17757011614E+02  0.37487404104E+02 -0.12723613438E+03  0.13382698529E+03  0.10570000000E+00 0.  1.
         13    1    3    3    0    0 -0.17757011614E+02 -0.37487404104E+02 -0.43662599414E+02  0.60225000523E+02  0.10570000000E+00 0. -1.
<mgrwt>
<rscale>  0 0.91922772E+02</rscale>
<asrwt>0</asrwt>
<pdfrwt beam="2">  1        1 0.28073130E-01 0.91922772E+02</pdfrwt>
<pdfrwt beam="1">  1       -1 0.17810195E-02 0.91922772E+02</pdfrwt>
<totfact> 0.11380817E+05</totfact>
</mgrwt>
</event>
<event>
 5   1  0.1388354E+00  0.9158761E+02  0.7818608E-02  0.1299052E+00
         -1   -1    0    0    0  501 -0.00000000000E+00  0.00000000000E+00  0.40560474038E+02  0.40560474307E+02  0.46700000000E-02 0.  1.
          1   -1    0    0  501    0  0.00000000000E+00 -0.00000000000E+00 -0.51702366401E+02  0.51702366612E+02  0.46700000000E-02 0. -1.
         23    2    1    2    0    0  0.00000000000E+00  0.00000000000E+00 -0.11141892364E+02  0.92262840919E+02  0.91587608600E+02 0.  0.
        -13    1    3    3    0    0 -0.40889366866E+02 -0.16060132686E+02  0.74547021958E+01  0.44558410451E+02  0.10570000000E+00 0. -1.
         13    1    3    3    0    0  0.40889366866E+02  0.16060132686E+02 -0.18596594559E+02  0.47704430468E+02  0.10570000000E+00 0.  1.
<mgrwt>
<rscale>  0 0.91587609E+02</rscale>
<asrwt>0</asrwt>
<pdfrwt beam="2">  1        1 0.79542103E-02 0.91587609E+02</pdfrwt>
<pdfrwt beam="1">  1       -1 0.62400729E-02 0.91587609E+02</pdfrwt>
<totfact> 0.93059793E+04</totfact>
</mgrwt>
</event>
<event>
 5   1  0.1388354E+00  0.9150579E+02  0.7818608E-02  0.1299246E+00
          1   -1    0    0  501    0  0.00000000000E+00  0.00000000000E+00  0.23595156965E+03  0.23595156970E+03  0.46700000000E-02 0. -1.
         -1   -1    0    0    0  501 -0.00000000000E+00 -0.00000000000E+00 -0.88718513169E+01  0.88718525460E+01  0.46700000000E-02 0.  1.
         23    2    1    2    0    0  0.00000000000E+00  0.00000000000E+00  0.22707971834E+03  0.24482342225E+03  0.91505789982E+02 0.  0.
        -13    1    3    3    0    0  0.41957093218E+02  0.10758399749E+02  0.74111409957E+02  0.85840859122E+02  0.10570000000E+00 0.  1.
         13    1    3    3    0    0 -0.41957093218E+02 -0.10758399749E+02  0.15296830838E+03  0.15898256312E+03  0.10570000000E+00 0. -1.
<mgrwt>
<rscale>  0 0.91505790E+02</rscale>
<asrwt>0</asrwt>
<pdfrwt beam="1">  1        1 0.36300243E-01 0.91505790E+02</pdfrwt>
<pdfrwt beam="2">  1       -1 0.13649003E-02 0.91505790E+02</pdfrwt>
<totfact> 0.12111026E+05</totfact>
</mgrwt>
</event>
<event>
 5   1  0.1388354E+00  0.9151577E+02  0.7818608E-02  0.1299222E+00
          1   -1    0    0  501    0  0.00000000000E+00  0.00000000000E+00  0.26425583105E+02  0.26425583517E+02  0.46700000000E-02 0. -1.
         -1   -1    0    0    0  501 -0.00000000000E+00 -0.00000000000E+00 -0.79233212504E+02  0.79233212641E+02  0.46700000000E-02 0.  1.
         23    2    1    2    0    0  0.00000000000E+00  0.00000000000E+00 -0.52807629399E+02  0.10565879616E+03  0.91515766308E+02 0.  0.
        -13    1    3    3    0    0 -0.31092954091E+02 -0.27322675790E+02 -0.48923963447E+02  0.64084832670E+02  0.10570000000E+00 0. -1.
         13    1    3    3    0    0  0.31092954091E+02  0.27322675790E+02 -0.38836659517E+01  0.41573963489E+02  0.10570000000E+00 0.  1.
<mgrwt>
<rscale>  0 0.91515766E+02</rscale>
<asrwt>0</asrwt>
<pdfrwt beam="1">  1        1 0.40654744E-02 0.91515766E+02</pdfrwt>
<pdfrwt beam="2">  1       -1 0.12189725E-01 0.91515766E+02</pdfrwt>
<totfact> 0.83986188E+04</totfact>
</mgrwt>
</event>
<event>
 5   1  0.1388354E+00  0.9550335E+02  0.7818608E-02  0.1290046E+00
         -1   -1    0    0    0  501 -0.00000000000E+00  0.00000000000E+00  0.29756959588E+03  0.29756959591E+03  0.46700000000E-02 0.  1.
          1   -1    0    0  501    0  0.00000000000E+00 -0.00000000000E+00 -0.76628199240E+01  0.76628213470E+01  0.46700000000E-02 0. -1.
         23    2    1    2    0    0  0.00000000000E+00  0.00000000000E+00  0.28990677595E+03  0.30523241726E+03  0.95503349697E+02 0.  0.
        -13    1    3    3    0    0 -0.38809364135E+02 -0.26691089533E+02  0.17004387541E+03  0.17644690913E+03  0.10570000000E+00 0. -1.
         13    1    3    3    0    0  0.38809364135E+02  0.26691089533E+02  0.11986290054E+03  0.12878550813E+03  0.10570000000E+00 0.  1.
<mgrwt>
<rscale>  0 0.95503350E+02</rscale>
<asrwt>0</asrwt>
<pdfrwt beam="2">  1        1 0.11788954E-02 0.95503350E+02</pdfrwt>
<pdfrwt beam="1">  1       -1 0.45779940E-01 0.95503350E+02</pdfrwt>
<totfact> 0.53826573E+04</totfact>
</mgrwt>
</event>
<event>
 5   1  0.1388354E+00  0.9420582E+02  0.7818608E-02  0.1292975E+00
          1   -1    0    0  501    0  0.00000000000E+00  0.00000000000E+00  0.99572777181E+02  0.99572777290E+02  0.46700000000E-02 0. -1.
         -1   -1    0    0    0  501 -0.00000000000E+00 -0.00000000000E+00 -0.22282033905E+02  0.22282034395E+02  0.46700000000E-02 0.  1.
         23    2    1    2    0    0  0.00000000000E+00  0.00000000000E+00  0.77290743276E+02  0.12185481168E+03  0.94205817945E+02 0.  0.
        -13    1    3    3    0    0 -0.39281360403E+02 -0.14080347126E+02  0.66907330419E+02  0.78853557222E+02  0.10570000000E+00 0. -1.
         13    1    3    3    0    0  0.39281360403E+02  0.14080347126E+02  0.10383412856E+02  0.43001254463E+02  0.10570000000E+00 0.  1.
<mgrwt>
<rscale>  0 0.94205818E+02</rscale>
<asrwt>0</asrwt>
<pdfrwt beam="1">  1        1 0.15318889E-01 0.94205818E+02</pdfrwt>
<pdfrwt beam="2">  1       -1 0.34280053E-02 0.94205818E+02</pdfrwt>
<totfact> 0.95454126E+04</totfact>
</mgrwt>
</event>
<event>
 5   1  0.1388354E+00  0.9312624E+02  0.7818608E-02  0.1295453E+00
          1   -1    0    0  501    0  0.00000000000E+00  0.00000000000E+00  0.79995705300E+01  0.79995718931E+01  0.46700000000E-02 0. -1.
         -1   -1    0    0    0  501 -0.00000000000E+00 -0.00000000000E+00 -0.27103001856E+03  0.27103001860E+03  0.46700000000E-02 0.  1.
         23    2    1    2    0    0  0.00000000000E+00  0.00000000000E+00 -0.26303044803E+03  0.27902959049E+03  0.93126235723E+02 0.  0.
        -13    1    3    3    0    0  0.58693899885E+01  0.37360273124E+02 -0.50125602248E+02  0.62791933558E+02  0.10570000000E+00 0. -1.
         13    1    3    3    0    0 -0.58693899885E+01 -0.37360273124E+02 -0.21290484578E+03  0.21623765694E+03  0.10570000000E+00 0.  1.
<mgrwt>
<rscale>  0 0.93126236E+02</rscale>
<asrwt>0</asrwt>
<pdfrwt beam="1">  1        1 0.12307035E-02 0.93126236E+02</pdfrwt>
<pdfrwt beam="2">  1       -1 0.41696919E-01 0.93126236E+02</pdfrwt>
<totfact> 0.59565898E+04</totfact>
</mgrwt>
</event>
<event>
 5   1  0.1388354E+00  0.9134755E+02  0.7818608E-02  0.1299621E+00
         -1   -1    0    0    0  501 -0.00000000000E+00  0.00000000000E+00  0.12650028032E+02  0.12650028894E+02  0.46700000000E-02 0.  1.
          1   -1    0    0  501    0  0.00000000000E+00 -0.00000000000E+00 -0.16490822643E+03  0.16490822649E+03  0.46700000000E-02 0. -1.
         23    2    1    2    0    0  0.00000000000E+00  0.00000000000E+00 -0.15225819839E+03  0.17755825539E+03  0.91347551022E+02 0.  0.
        -13    1    3    3    0    0  0.16692170104E+02  0.29093448136E+02 -0.15871561963E+02  0.37107612681E+02  0.10570000000E+00 0.  1.
         13    1    3    3    0    0 -0.16692170104E+02 -0.29093448136E+02 -0.13638663643E+03  0.14045064270E+03  0.10570000000E+00 0. -1.
<mgrwt>
<rscale>  0 0.91347551E+02</rscale>
<asrwt>0</asrwt>
<pdfrwt beam="2">  1        1 0.25370495E-01 0.91347551E+02</pdfrwt>
<pdfrwt beam="1">  1       -1 0.19461584E-02 0.91347551E+02</pdfrwt>
<totfact> 0.11354828E+05</totfact>
</mgrwt>
</event>
<event>
 5   1  0.1388354E+00  0.9103212E+02  0.7818608E-02  0.1300371E+00
         -1   -1    0    0    0  501 -0.00000000000E+00  0.00000000000E+00  0.17152036030E+03  0.17152036036E+03  0.46700000000E-02 0.  1.
          1   -1    0    0  501    0  0.00000000000E+00 -0.00000000000E+00 -0.12078516161E+02  0.12078517064E+02  0.46700000000E-02 0. -1.
         23    2    1    2    0    0  0.00000000000E+00  0.00000000000E+00  0.15944184414E+03  0.18359887743E+03  0.91032115928E+02 0.  0.
        -13    1    3    3    0    0 -0.30128266048E+02 -0.36836339007E+01  0.14812836654E+03  0.15120616958E+03  0.10570000000E+00 0.  1.
         13    1    3    3    0    0  0.30128266048E+02  0.36836339007E+01  0.11313477602E+02  0.32392707848E+02  0.10570000000E+00 0. -1.
<mgrwt>
<rscale>  0 0.91032116E+02</rscale>
<asrwt>0</asrwt>
<pdfrwt beam="2">  1        1 0.18582334E-02 0.91032116E+02</pdfrwt>
<pdfrwt beam="1">  1       -1 0.26387747E-01 0.91032116E+02</pdfrwt>
<totfact> 0.72673521E+04</totfact>
</mgrwt>
</event>
<event>
 5   1  0.1388354E+00  0.9698890E+02  0.7818608E-02  0.1286758E+00
          1   -1    0    0  501    0  0.00000000000E+00  0.00000000000E+00  0.34034093395E+03  0.34034093399E+03  0.46700000000E-02 0. -1.
         -1   -1    0    0    0  501 -0.00000000000E+00 -0.00000000000E+00 -0.69098698606E+01  0.69098714387E+01  0.46700000000E-02 0.  1.
         23    2    1    2    0    0  0.00000000000E+00  0.00000000000E+00  0.33343106409E+03  0.34725080542E+03  0.96988903312E+02 0.  0.
        -13    1    3    3    0    0 -0.46127897148E+02  0.77507220801E+01  0.21254413214E+03  0.21763013548E+03  0.10570000000E+00 0. -1.
         13    1    3    3    0    0  0.46127897148E+02 -0.77507220801E+01  0.12088693195E+03  0.12962066994E+03  0.10570000000E+00 0.  1.
<mgrwt>
<rscale>  0 0.96988903E+02</rscale>
<asrwt>0</asrwt>
<pdfrwt beam="1">  1        1 0.52360150E-01 0.96988903E+02</pdfrwt>
<pdfrwt beam="2">  1       -1 0.10630569E-02 0.96988903E+02</pdfrwt>
<totfact> 0.11122014E+05</totfact>
</mgrwt>
</event>
<event>
 5   1  0.1388354E+00  0.9005715E+02  0.7818608E-02  0.1302713E+00
         -1   -1    0    0    0  501 -0.00000000000E+00  0.00000000000E+00  0.61530100874E+02  0.61530101051E+02  0.46700000000E-02 0.  1.
          1   -1    0    0  501    0  0.00000000000E+00 -0.00000000000E+00 -0.32952532882E+02  0.32952533213E+02  0.46700000000E-02 0. -1.
         23    2    1    2    0    0  0.00000000000E+00  0.00000000000E+00  0.28577567992E+02  0.94482634264E+02  0.90057152882E+02 0.  0.
        -13    1    3    3    0    0 -0.31113536823E+02 -0.24829738361E+02  0.36370480145E+02  0.53920228849E+02  0.10570000000E+00 0. -1.
         13    1    3    3    0    0  0.31113536823E+02  0.24829738361E+02 -0.77929121532E+01  0.40562405415E+02  0.10570000000E+00 0.  1.
<mgrwt>
<rscale>  0 0.90057153E+02</rscale>
<asrwt>0</asrwt>
<pdfrwt beam="2">  1        1 0.50696205E-02 0.90057153E+02</pdfrwt>
<pdfrwt beam="1">  1       -1 0.94661693E-02 0.90057153E+02</pdfrwt>
<totfact> 0.91143820E+04</totfact>
</mgrwt>
</event>
<event>
 5   1  0.1388354E+00  0.8937375E+02  0.7818608E-02  0.1304375E+00
          1   -1    0    0  501    0  0.00000000000E+00  0.00000000000E+00  0.10617010875E+03  0.10617010885E+03  0.46700000000E-02 0. -1.
         -1   -1    0    0    0  501 -0.00000000000E+00 -0.00000000000E+00 -0.18808654677E+02  0.18808655257E+02  0.46700000000E-02 0.  1.
         23    2    1    2    0    0  0.00000000000E+00  0.00000000000E+00  0.87361454069E+02  0.12497876410E+03  0.89373753531E+02 0.  0.
        -13    1    3    3    0    0  0.30624586798E+02  0.30962540589E+02  0.57689816209E+02  0.72281880876E+02  0.10570000000E+00 0. -1.
         13    1    3    3    0    0 -0.30624586798E+02 -0.30962540589E+02  0.29671637859E+02  0.52696883229E+02  0.10570000000E+00 0.  1.
<mgrwt>
<rscale>  0 0.89373754E+02</rscale>
<asrwt>0</asrwt>
<pdfrwt beam="1">  1        1 0.16333863E-01 0.89373754E+02</pdfrwt>
<pdfrwt beam="2">  1       -1 0.28936392E-02 0.89373754E+02</pdfrwt>
<totfact> 0.11138552E+05</totfact>
</mgrwt>
</event>
<event>
 5   1  0.1388354E+00  0.9210951E+02  0.7818608E-02  0.1297822E+00
         -1   -1    0    0    0  501 -0.00000000000E+00  0.00000000000E+00  0.80881136135E+01  0.80881149617E+01  0.46700000000E-02 0.  1.
          1   -1    0    0  501    0  0.00000000000E+00 -0.00000000000E+00 -0.26224166910E+03  0.26224166914E+03  0.46700000000E-02 0. -1.
         23    2    1    2    0    0  0.00000000000E+00  0.00000000000E+00 -0.25415355548E+03  0.27032978410E+03  0.92109513118E+02 0.  0.
        -13    1    3    3    0    0  0.21717228090E+01  0.45362817033E+02 -0.10462396223E+03  0.11405562763E+03  0.10570000000E+00 0.  1.
         13    1    3    3    0    0 -0.21717228090E+01 -0.45362817033E+02 -0.14952959326E+03  0.15627415647E+03  0.10570000000E+00 0. -1.
<mgrwt>
<rscale>  0 0.92109513E+02</rscale>
<asrwt>0</asrwt>
<pdfrwt beam="2">  1        1 0.40344866E-01 0.92109513E+02</pdfrwt>
<pdfrwt beam="1">  1       -1 0.12443255E-02 0.92109513E+02</pdfrwt>
<totfact> 0.12147951E+05</totfact>
</mgrwt>
</event>
<event>
 5   1  0.1388354E+00  0.9731042E+02  0.7818608E-02  0.1286056E+00
         -1   -1    0    0    0  501 -0.00000000000E+00  0.00000000000E+00  0.32563309835E+02  0.32563310170E+02  0.46700000000E-02 0.  1.
          1   -1    0    0  501    0  0.00000000000E+00 -0.00000000000E+00 -0.72699293535E+02  0.72699293685E+02  0.46700000000E-02 0. -1.
         23    2    1    2    0    0  0.00000000000E+00  0.00000000000E+00 -0.40135983699E+02  0.10526260385E+03  0.97310423814E+02 0.  0.
        -13    1    3    3    0    0  0.29600345032E+01  0.11434520796E+02  0.30988816603E+02  0.33163654760E+02  0.10570000000E+00 0.  1.
         13    1    3    3    0    0 -0.29600345032E+01 -0.11434520796E+02 -0.71124800302E+02  0.72098949095E+02  0.10570000000E+00 0. -1.
<mgrwt>
<rscale>  0 0.97310424E+02</rscale>
<asrwt>0</asrwt>
<pdfrwt beam="2">  1        1 0.11184507E-01 0.97310424E+02</pdfrwt>
<pdfrwt beam="1">  1       -1 0.50097400E-02 0.97310424E+02</pdfrwt>
<totfact> 0.82873825E+04</totfact>
</mgrwt>
</event>
<event>
 5   1  0.1388354E+00  0.9152763E+02  0.7818608E-02  0.1299194E+00
         -1   -1    0    0    0  501 -0.00000000000E+00  0.00000000000E+00  0.10374109574E+02  0.10374110625E+02  0.46700000000E-02 0.  1.
          1   -1    0    0  501    0  0.00000000000E+00 -0.00000000000E+00 -0.20188013971E+03  0.20188013976E+03  0.46700000000E-02 0. -1.
         23    2    1    2    0    0  0.00000000000E+00  0.00000000000E+00 -0.19150603013E+03  0.21225425038E+03  0.91527630961E+02 0.  0.
        -13    1    3    3    0    0  0.30889108473E+02  0.16732426489E+02 -0.27737963225E+02  0.44760662359E+02  0.10570000000E+00 0.  1.
         13    1    3    3    0    0 -0.30889108473E+02 -0.16732426489E+02 -0.16376806691E+03  0.16749358802E+03  0.10570000000E+00 0. -1.
<mgrwt>
<rscale>  0 0.91527631E+02</rscale>
<asrwt>0</asrwt>
<pdfrwt beam="2">  1        1 0.31058480E-01 0.91527631E+02</pdfrwt>
<pdfrwt beam="1">  1       -1 0.15960171E-02 0.91527631E+02</pdfrwt>
<totfact> 0.11740484E+05</totfact>
</mgrwt>
</event>
<event>
 5   1  0.1388354E+00  0.8865228E+02  0.7818608E-02  0.1306149E+00
         -1   -1    0    0    0  501 -0.00000000000E+00  0.00000000000E+00  0.39213109981E+02  0.39213110259E+02  0.46700000000E-02 0.  1.
          1   -1    0    0  501    0  0.00000000000E+00 -0.00000000000E+00 -0.50105857494E+02  0.50105857711E+02  0.46700000000E-02 0. -1.
         23    2    1    2    0    0  0.00000000000E+00  0.00000000000E+00 -0.10892747513E+02  0.89318967971E+02  0.88652276287E+02 0.  0.
        -13    1    3    3    0    0  0.36908222638E+02  0.64106343394E+00  0.19277268878E+02  0.41644352900E+02  0.10570000000E+00 0.  1.
         13    1    3    3    0    0 -0.36908222638E+02 -0.64106343394E+00 -0.30170016391E+02  0.47674615070E+02  0.10570000000E+00 0. -1.
<mgrwt>
<rscale>  0 0.88652276E+02</rscale>
<asrwt>0</asrwt>
<pdfrwt beam="2">  1        1 0.77085935E-02 0.88652276E+02</pdfrwt>
<pdfrwt beam="1">  1       -1 0.60327862E-02 0.88652276E+02</pdfrwt>
<totfact> 0.10142635E+05</totfact>
</mgrwt>
</event>
<event>
 5   1  0.1388354E+00  0.9007576E+02  0.7818608E-02  0.1302668E+00
          1   -1    0    0  501    0  0.00000000000E+00  0.00000000000E+00  0.54191783779E+02  0.54191783980E+02  0.46700000000E-02 0. -1.
         -1   -1    0    0    0  501 -0.00000000000E+00 -0.00000000000E+00 -0.37430224279E+02  0.37430224570E+02  0.46700000000E-02 0.  1.
         23    2    1    2    0    0  0.00000000000E+00  0.00000000000E+00  0.16761559500E+02  0.91622008550E+02  0.90075760191E+02 0.  0.
        -13    1    3    3    0    0 -0.14026808491E+02  0.38911105042E+02  0.26507296419E+02  0.49127114591E+02  0.10570000000E+00 0. -1.
         13    1    3    3    0    0  0.14026808491E+02 -0.38911105042E+02 -0.97457369190E+01  0.42494893960E+02  0.10570000000E+00 0.  1.
<mgrwt>
<rscale>  0 0.90075760E+02</rscale>
<asrwt>0</asrwt>
<pdfrwt beam="1">  1        1 0.83371975E-02 0.90075760E+02</pdfrwt>
<pdfrwt beam="2">  1       -1 0.57584961E-02 0.90075760E+02</pdfrwt>
<totfact> 0.98164715E+04</totfact>
</mgrwt>
</event>
<event>
 5   1  0.1388354E+00  0.9107634E+02  0.7818608E-02  0.1300266E+00
         -1   -1    0    0    0  501 -0.00000000000E+00  0.00000000000E+00  0.16805872089E+03  0.16805872096E+03  0.46700000000E-02 0.  1.
          1   -1    0    0  501    0  0.00000000000E+00 -0.00000000000E+00 -0.12339287381E+02  0.12339288264E+02  0.46700000000E-02 0. -1.
         23    2    1    2    0    0  0.00000000000E+00  0.00000000000E+00  0.15571943351E+03  0.18039800922E+03  0.91076340276E+02 0.  0.
        -13    1    3    3    0    0  0.41600331142E+02  0.11800778159E+02  0.10614109315E+03  0.11461146864E+03  0.10570000000E+00 0. -1.
         13    1    3    3    0    0 -0.41600331142E+02 -0.11800778159E+02  0.49578340364E+02  0.65786540584E+02  0.10570000000E+00 0.  1.
<mgrwt>
<rscale>  0 0.91076340E+02</rscale>
<asrwt>0</asrwt>
<pdfrwt beam="2">  1        1 0.18983521E-02 0.91076340E+02</pdfrwt>
<pdfrwt beam="1">  1       -1 0.25855186E-01 0.91076340E+02</pdfrwt>
<totfact> 0.72958914E+04</totfact>
</mgrwt>
</event>
<event>
 5   1  0.1388354E+00  0.9156236E+02  0.7818608E-02  0.1299112E+00
         -1   -1    0    0    0  501 -0.00000000000E+00  0.00000000000E+00  0.36675553414E+02  0.36675553712E+02  0.46700000000E-02 0.  1.
          1   -1    0    0  501    0  0.00000000000E+00 -0.00000000000E+00 -0.57147503154E+02  0.57147503345E+02  0.46700000000E-02 0. -1.
         23    2    1    2    0    0  0.00000000000E+00  0.00000000000E+00 -0.20471949740E+02  0.93823057056E+02  0.91562357491E+02 0.  0.
        -13    1    3    3    0    0  0.23466758038E+02  0.28234465188E+02  0.17789470763E+02  0.40796448372E+02  0.10570000000E+00 0.  1.
         13    1    3    3    0    0 -0.23466758038E+02 -0.28234465188E+02 -0.38261420502E+02  0.53026608685E+02  0.10570000000E+00 0. -1.
<mgrwt>
<rscale>  0 0.91562357E+02</rscale>
<asrwt>0</asrwt>
<pdfrwt beam="2">  1        1 0.87919236E-02 0.91562357E+02</pdfrwt>
<pdfrwt beam="1">  1       -1 0.56423928E-02 0.91562357E+02</pdfrwt>
<totfact> 0.94548302E+04</totfact>
</mgrwt>
</event>
<event>
 5   1  0.1388354E+00  0.9533393E+02  0.7818608E-02  0.1290426E+00
         -1   -1    0    0    0  501 -0.00000000000E+00  0.00000000000E+00  0.43263268394E+02  0.43263268646E+02  0.46700000000E-02 0.  1.
          1   -1    0    0  501    0  0.00000000000E+00 -0.00000000000E+00 -0.52518904902E+02  0.52518905110E+02  0.46700000000E-02 0. -1.
         23    2    1    2    0    0  0.00000000000E+00  0.00000000000E+00 -0.92556365081E+01  0.95782173756E+02  0.95333928914E+02 0.  0.
        -13    1    3    3    0    0 -0.12535828987E+02 -0.42191272548E+02  0.13757891617E+02  0.46114436371E+02  0.10570000000E+00 0.  1.
         13    1    3    3    0    0  0.12535828987E+02  0.42191272548E+02 -0.23013528125E+02  0.49667737384E+02  0.10570000000E+00 0. -1.
<mgrwt>
<rscale>  0 0.95333929E+02</rscale>
<asrwt>0</asrwt>
<pdfrwt beam="2">  1        1 0.80798315E-02 0.95333929E+02</pdfrwt>
<pdfrwt beam="1">  1       -1 0.66558875E-02 0.95333929E+02</pdfrwt>
<totfact> 0.83367075E+04</totfact>
</mgrwt>
</event>
<event>
 5   1  0.1388354E+00  0.8664628E+02  0.7818608E-02  0.1311183E+00
         -1   -1    0    0    0  501 -0.00000000000E+00  0.00000000000E+00  0.39362463893E+02  0.39362464170E+02  0.46700000000E-02 0.  1.
          1   -1    0    0  501    0  0.00000000000E+00 -0.00000000000E+00 -0.47682342955E+02  0.47682343184E+02  0.46700000000E-02 0. -1.
         23    2    1    2    0    0  0.00000000000E+00  0.00000000000E+00 -0.83198790622E+01  0.87044807354E+02  0.86646281511E+02 0.  0.
        -13    1    3    3    0    0 -0.28318503091E+02 -0.18335215875E+02  0.23145317538E+02  0.40912524426E+02  0.10570000000E+00 0.  1.
         13    1    3    3    0    0  0.28318503091E+02  0.18335215875E+02 -0.31465196601E+02  0.46132282927E+02  0.10570000000E+00 0. -1.
<mgrwt>
<rscale>  0 0.86646282E+02</rscale>
<asrwt>0</asrwt>
<pdfrwt beam="2">  1        1 0.73357451E-02 0.86646282E+02</pdfrwt>
<pdfrwt beam="1">  1       -1 0.60557637E-02 0.86646282E+02</pdfrwt>
<totfact> 0.10730956E+05</totfact>
</mgrwt>
</event>
<event>
 5   1  0.1388354E+00  0.9150905E+02  0.7818608E-02  0.1299238E+00
          1   -1    0    0  501    0  0.00000000000E+00  0.00000000000E+00  0.69090251296E+02  0.69090251454E+02  0.46700000000E-02 0. -1.
         -1   -1    0    0    0  501 -0.00000000000E+00 -0.00000000000E+00 -0.30300603484E+02  0.30300603844E+02  0.46700000000E-02 0.  1.
         23    2    1    2    0    0  0.00000000000E+00  0.00000000000E+00  0.38789647812E+02  0.99390855298E+02  0.91509045124E+02 0.  0.
        -13    1    3    3    0    0  0.18238998192E+02  0.24810708569E+02  0.56150913569E+02  0.64040366815E+02  0.10570000000E+00 0. -1.
         13    1    3    3    0    0 -0.18238998192E+02 -0.24810708569E+02 -0.17361265757E+02  0.35350488482E+02  0.10570000000E+00 0.  1.
<mgrwt>
<rscale>  0 0.91509045E+02</rscale>
<asrwt>0</asrwt>
<pdfrwt beam="1">  1        1 0.10629269E-01 0.91509045E+02</pdfrwt>
<pdfrwt beam="2">  1       -1 0.46616314E-02 0.91509045E+02</pdfrwt>
<totfact> 0.97483745E+04</totfact>
</mgrwt>
</event>
<event>
 5   1  0.1388354E+00  0.8718879E+02  0.7818608E-02  0.1309806E+00
          1   -1    0    0  501    0  0.00000000000E+00  0.00000000000E+00  0.15366285582E+02  0.15366286291E+02  0.46700000000E-02 0. -1.
         -1   -1    0    0    0  501 -0.00000000000E+00 -0.00000000000E+00 -0.12367799610E+03  0.12367799619E+03  0.46700000000E-02 0.  1.
         23    2    1    2    0    0  0.00000000000E+00  0.00000000000E+00 -0.10831171052E+03  0.13904428248E+03  0.87188794319E+02 0.  0.
        -13    1    3    3    0    0 -0.30142902061E+02 -0.13405337458E+02 -0.99603771539E+02  0.10492483069E+03  0.10570000000E+00 0.  1.
         13    1    3    3    0    0  0.30142902061E+02  0.13405337458E+02 -0.87079389796E+01  0.34119451794E+02  0.10570000000E+00 0. -1.
<mgrwt>
<rscale>  0 0.87188794E+02</rscale>
<asrwt>0</asrwt>
<pdfrwt beam="1">  1        1 0.23640441E-02 0.87188794E+02</pdfrwt>
<pdfrwt beam="2">  1       -1 0.19027383E-01 0.87188794E+02</pdfrwt>
<totfact> 0.87596711E+04</totfact>
</mgrwt>
</event>
<event>
 5   1  0.1388354E+00  0.9021035E+02  0.7818608E-02  0.1302343E+00
         -1   -1    0    0    0  501 -0.00000000000E+00  0.00000000000E+00  0.14745651895E+02  0.14745652635E+02  0.46700000000E-02 0.  1.
          1   -1    0    0  501    0  0.00000000000E+00 -0.00000000000E+00 -0.13797128494E+03  0.13797128502E+03  0.46700000000E-02 0. -1.
         23    2    1    2    0    0  0.00000000000E+00  0.00000000000E+00 -0.12322563304E+03  0.15271693765E+03  0.90210345343E+02 0.  0.
        -13    1    3    3    0    0  0.17676076100E+02 -0.41444464686E+02 -0.65155025549E+02  0.79216638696E+02  0.10570000000E+00 0. -1.
         13    1    3    3    0    0 -0.17676076100E+02  0.41444464686E+02 -0.58070607493E+02  0.73500298955E+02  0.10570000000E+00 0.  1.
<mgrwt>
<rscale>  0 0.90210345E+02</rscale>
<asrwt>0</asrwt>
<pdfrwt beam="2">  1        1 0.21226351E-01 0.90210345E+02</pdfrwt>
<pdfrwt beam="1">  1       -1 0.22685620E-02 0.90210345E+02</pdfrwt>
<totfact> 0.11366153E+05</totfact>
</mgrwt>
</event>
<event>
 5   1  0.1388354E+00  0.9087615E+02  0.7818608E-02  0.1300744E+00
          1   -1    0    0  501    0  0.00000000000E+00  0.00000000000E+00  0.43609964783E+02  0.43609965033E+02  0.46700000000E-02 0. -1.
         -1   -1    0    0    0  501 -0.00000000000E+00 -0.00000000000E+00 -0.47342820483E+02  0.47342820714E+02  0.46700000000E-02 0.  1.
         23    2    1    2    0    0  0.00000000000E+00  0.00000000000E+00 -0.37328557007E+01  0.90952785746E+02  0.90876152116E+02 0.  0.
        -13    1    3    3    0    0 -0.42741821904E+01  0.44239430218E+02  0.75867349815E+01  0.45088419130E+02  0.10570000000E+00 0. -1.
         13    1    3    3    0    0  0.42741821904E+01 -0.44239430218E+02 -0.11319590682E+02  0.45864366617E+02  0.10570000000E+00 0.  1.
<mgrwt>
<rscale>  0 0.90876152E+02</rscale>
<asrwt>0</asrwt>
<pdfrwt beam="1">  1        1 0.67092253E-02 0.90876152E+02</pdfrwt>
<pdfrwt beam="2">  1       -1 0.72835109E-02 0.90876152E+02</pdfrwt>
<totfact> 0.92713924E+04</totfact>
</mgrwt>
</event>
<event>
 5   1  0.1388354E+00  0.9174047E+02  0.7818608E-02  0.1298691E+00
          1   -1    0    0  501    0  0.00000000000E+00  0.00000000000E+00  0.17912096107E+03  0.17912096113E+03  0.46700000000E-02 0. -1.
         -1   -1    0    0    0  501 -0.00000000000E+00 -0.00000000000E+00 -0.11746689172E+02  0.11746690100E+02  0.46700000000E-02 0.  1.
         23    2    1    2    0    0  0.00000000000E+00  0.00000000000E+00  0.16737427190E+03  0.19086765123E+03  0.91740467586E+02 0.  0.
        -13    1    3    3    0    0 -0.10079166829E+02 -0.41182316745E+02  0.47263556493E+02  0.63493525350E+02  0.10570000000E+00 0.  1.
         13    1    3    3    0    0  0.10079166829E+02  0.41182316745E+02  0.12011071540E+03  0.12737412588E+03  0.10570000000E+00 0. -1.
<mgrwt>
<rscale>  0 0.91740468E+02</rscale>
<asrwt>0</asrwt>
<pdfrwt beam="1">  1        1 0.27557071E-01 0.91740468E+02</pdfrwt>
<pdfrwt beam="2">  1       -1 0.18071830E-02 0.91740468E+02</pdfrwt>
<totfact> 0.11401142E+05</totfact>
</mgrwt>
</event>
<event>
 5   1  0.1388354E+00  0.8909653E+02  0.7818608E-02  0.1305054E+00
          1   -1    0    0  501    0  0.00000000000E+00  0.00000000000E+00  0.14976391653E+02  0.14976392381E+02  0.46700000000E-02 0. -1.
         -1   -1    0    0    0  501 -0.00000000000E+00 -0.00000000000E+00 -0.13251173468E+03  0.13251173477E+03  0.46700000000E-02 0.  1.
         23    2    1    2    0    0  0.00000000000E+00  0.00000000000E+00 -0.11753534303E+03  0.14748812715E+03  0.89096525118E+02 0.  0.
        -13    1    3    3    0    0  0.20380134637E+02 -0.34752045718E+02 -0.27294565416E+02  0.48662706904E+02  0.10570000000E+00 0. -1.
         13    1    3    3    0    0 -0.20380134637E+02  0.34752045718E+02 -0.90240777614E+02  0.98825420243E+02  0.10570000000E+00 0.  1.
<mgrwt>
<rscale>  0 0.89096525E+02</rscale>
<asrwt>0</asrwt>
<pdfrwt beam="1">  1        1 0.23040604E-02 0.89096525E+02</pdfrwt>
<pdfrwt beam="2">  1       -1 0.20386420E-01 0.89096525E+02</pdfrwt>
<totfact> 0.81637939E+04</totfact>
</mgrwt>
</event>
<event>
 5   1  0.1388354E+00  0.9014931E+02  0.7818608E-02  0.1302491E+00
          1   -1    0    0  501    0  0.00000000000E+00  0.00000000000E+00  0.14856329503E+03  0.14856329510E+03  0.46700000000E-02 0. -1.
         -1   -1    0    0    0  501 -0.00000000000E+00 -0.00000000000E+00 -0.13675816877E+02  0.13675817674E+02  0.46700000000E-02 0.  1.
         23    2    1    2    0    0  0.00000000000E+00  0.00000000000E+00  0.13488747815E+03  0.16223911277E+03  0.90149309216E+02 0.  0.
        -13    1    3    3    0    0  0.37419760568E+01 -0.38391267805E+02  0.25475442622E+02  0.46226628449E+02  0.10570000000E+00 0.  1.
         13    1    3    3    0    0 -0.37419760568E+01  0.38391267805E+02  0.10941203553E+03  0.11601248433E+03  0.10570000000E+00 0. -1.
<mgrwt>
<rscale>  0 0.90149309E+02</rscale>
<asrwt>0</asrwt>
<pdfrwt beam="1">  1        1 0.22855891E-01 0.90149309E+02</pdfrwt>
<pdfrwt beam="2">  1       -1 0.21039720E-02 0.90149309E+02</pdfrwt>
<totfact> 0.11540620E+05</totfact>
</mgrwt>
</event>
<event>
 5   1  0.1388354E+00  0.1004085E+03  0.7818608E-02  0.1279439E+00
         -1   -1    0    0    0  501 -0.00000000000E+00  0.00000000000E+00  0.14589514567E+02  0.14589515315E+02  0.46700000000E-02 0.  1.
          1   -1    0    0  501    0  0.00000000000E+00 -0.00000000000E+00 -0.17275879361E+03  0.17275879367E+03  0.46700000000E-02 0. -1.
         23    2    1    2    0    0  0.00000000000E+00  0.00000000000E+00 -0.15816927904E+03  0.18734830898E+03  0.10040850585E+03 0.  0.
        -13    1    3    3    0    0  0.40286963749E+02  0.77579182175E+01 -0.25096054138E+02  0.48094156079E+02  0.10570000000E+00 0.  1.
         13    1    3    3    0    0 -0.40286963749E+02 -0.77579182175E+01 -0.13307322490E+03  0.13925415290E+03  0.10570000000E+00 0. -1.
<mgrwt>
<rscale>  0 0.10040851E+03</rscale>
<asrwt>0</asrwt>
<pdfrwt beam="2">  1        1 0.26578275E-01 0.10040851E+03</pdfrwt>
<pdfrwt beam="1">  1       -1 0.22445409E-02 0.10040851E+03</pdfrwt>
<totfact> 0.88679901E+04</totfact>
</mgrwt>
</event>
<event>
 5   1  0.1388354E+00  0.9389426E+02  0.7818608E-02  0.1293686E+00
         -1   -1    0    0    0  501 -0.00000000000E+00  0.00000000000E+00  0.23720862046E+02  0.23720862506E+02  0.46700000000E-02 0.  1.
          1   -1    0    0  501    0  0.00000000000E+00 -0.00000000000E+00 -0.92915384635E+02  0.92915384752E+02  0.46700000000E-02 0. -1.
         23    2    1    2    0    0  0.00000000000E+00  0.00000000000E+00 -0.69194522588E+02  0.11663624726E+03  0.93894260837E+02 0.  0.
        -13    1    3    3    0    0 -0.13806023829E+02  0.18970728549E+02  0.15915387410E+02  0.28351464945E+02  0.10570000000E+00 0.  1.
         13    1    3    3    0    0  0.13806023829E+02 -0.18970728549E+02 -0.85109909998E+02  0.88284782313E+02  0.10570000000E+00 0. -1.
<mgrwt>
<rscale>  0 0.93894261E+02</rscale>
<asrwt>0</asrwt>
<pdfrwt beam="2">  1        1 0.14294674E-01 0.93894261E+02</pdfrwt>
<pdfrwt beam="1">  1       -1 0.36493635E-02 0.93894261E+02</pdfrwt>
<totfact> 0.95216758E+04</totfact>
</mgrwt>
</event>
<event>
 5   1  0.1388354E+00  0.8815324E+02  0.7818608E-02  0.1307387E+00
          1   -1    0    0  501    0  0.00000000000E+00  0.00000000000E+00  0.90549542915E+02  0.90549543036E+02  0.46700000000E-02 0. -1.
         -1   -1    0    0    0  501 -0.00000000000E+00 -0.00000000000E+00 -0.21455087098E+02  0.21455087606E+02  0.46700000000E-02 0.  1.
         23    2    1    2    0    0  0.00000000000E+00  0.00000000000E+00  0.69094455818E+02  0.11200463064E+03  0.88153238514E+02 0.  0.
        -13    1    3    3    0    0 -0.21968067898E+02 -0.21942259021E+02  0.74295451140E+02  0.80522568083E+02  0.10570000000E+00 0. -1.
         13    1    3    3    0    0  0.21968067898E+02  0.21942259021E+02 -0.52009953226E+01  0.31482062559E+02  0.10570000000E+00 0.  1.
<mgrwt>
<rscale>  0 0.88153239E+02</rscale>
<asrwt>0</asrwt>
<pdfrwt beam="1">  1        1 0.13930699E-01 0.88153239E+02</pdfrwt>
<pdfrwt beam="2">  1       -1 0.33007828E-02 0.88153239E+02</pdfrwt>
<totfact> 0.11265585E+05</totfact>
</mgrwt>
</event>
<event>
 5   1  0.1388354E+00  0.9119001E+02  0.7818608E-02  0.1299995E+00
         -1   -1    0    0    0  501 -0.00000000000E+00  0.00000000000E+00  0.45862358250E+02  0.45862358488E+02  0.46700000000E-02 0. -1.
          1   -1    0    0  501    0  0.00000000000E+00 -0.00000000000E+00 -0.45329208958E+02  0.45329209198E+02  0.46700000000E-02 0.  1.
         23    2    1    2    0    0  0.00000000000E+00  0.00000000000E+00  0.53314929239E+00  0.91191567687E+02  0.91190009151E+02 0.  0.
        -13    1    3    3    0    0  0.44846862739E+02 -0.76504998309E+01  0.32868952130E+01  0.45613442074E+02  0.10570000000E+00 0.  1.
         13    1    3    3    0    0 -0.44846862739E+02  0.76504998309E+01 -0.27537459206E+01  0.45578125612E+02  0.10570000000E+00 0. -1.
<mgrwt>
<rscale>  0 0.91190009E+02</rscale>
<asrwt>0</asrwt>
<pdfrwt beam="2">  1        1 0.69737245E-02 0.91190009E+02</pdfrwt>
<pdfrwt beam="1">  1       -1 0.70557475E-02 0.91190009E+02</pdfrwt>
<totfact> 0.92355531E+04</totfact>
</mgrwt>
</event>
<event>
 5   1  0.1388354E+00  0.9064974E+02  0.7818608E-02  0.1301286E+00
          1   -1    0    0  501    0  0.00000000000E+00  0.00000000000E+00  0.11937073956E+03  0.11937073965E+03  0.46700000000E-02 0. -1.
         -1   -1    0    0    0  501 -0.00000000000E+00 -0.00000000000E+00 -0.17209776888E+02  0.17209777522E+02  0.46700000000E-02 0.  1.
         23    2    1    2    0    0  0.00000000000E+00  0.00000000000E+00  0.10216096267E+03  0.13658051718E+03  0.90649740086E+02 0.  0.
        -13    1    3    3    0    0  0.18058552807E+02  0.23559410133E+02 -0.52593346756E+00  0.29689137977E+02  0.10570000000E+00 0.  1.
         13    1    3    3    0    0 -0.18058552807E+02 -0.23559410133E+02  0.10268689614E+03  0.10689137920E+03  0.10570000000E+00 0. -1.
<mgrwt>
<rscale>  0 0.90649740E+02</rscale>
<asrwt>0</asrwt>
<pdfrwt beam="1">  1        1 0.18364730E-01 0.90649740E+02</pdfrwt>
<pdfrwt beam="2">  1       -1 0.26476580E-02 0.90649740E+02</pdfrwt>
<totfact> 0.10934530E+05</totfact>
</mgrwt>
</event>
<event>
 5   1  0.1388354E+00  0.8961990E+02  0.7818608E-02  0.1303775E+00
         -1   -1    0    0    0  501 -0.00000000000E+00  0.00000000000E+00  0.12757929011E+02  0.12757929865E+02  0.46700000000E-02 0.  1.
          1   -1    0    0  501    0  0.00000000000E+00 -0.00000000000E+00 -0.15738693525E+03  0.15738693532E+03  0.46700000000E-02 0. -1.
         23    2    1    2    0    0  0.00000000000E+00  0.00000000000E+00 -0.14462900624E+03  0.17014486519E+03  0.89619895687E+02 0.  0.
        -13    1    3    3    0    0 -0.15693659869E+02  0.37247344139E+02 -0.35585950331E+02  0.53851895407E+02  0.10570000000E+00 0.  1.
         13    1    3    3    0    0  0.15693659869E+02 -0.37247344139E+02 -0.10904305591E+03  0.11629296978E+03  0.10570000000E+00 0. -1.
<mgrwt>
<rscale>  0 0.89619896E+02</rscale>
<asrwt>0</asrwt>
<pdfrwt beam="2">  1        1 0.24213373E-01 0.89619896E+02</pdfrwt>
<pdfrwt beam="1">  1       -1 0.19627585E-02 0.89619896E+02</pdfrwt>
<totfact> 0.11849844E+05</totfact>
</mgrwt>
</event>
<event>
 5   1  0.1388354E+00  0.8325393E+02  0.7818608E-02  0.1320063E+00
         -1   -1    0    0    0  501 -0.00000000000E+00  0.00000000000E+00  0.18035889244E+02  0.18035889848E+02  0.46700000000E-02 0.  1.
          1   -1    0    0  501    0  0.00000000000E+00 -0.00000000000E+00 -0.96075342162E+02  0.96075342275E+02  0.46700000000E-02 0. -1.
         23    2    1    2    0    0  0.00000000000E+00  0.00000000000E+00 -0.78039452918E+02  0.11411123212E+03  0.83253931349E+02 0.  0.
        -13    1    3    3    0    0  0.12708587555E+02 -0.17835109813E+02  0.95016101584E+01  0.23872392167E+02  0.10570000000E+00 0.  1.
         13    1    3    3    0    0 -0.12708587555E+02  0.17835109813E+02 -0.87541063077E+02  0.90238839957E+02  0.10570000000E+00 0. -1.
<mgrwt>
<rscale>  0 0.83253931E+02</rscale>
<asrwt>0</asrwt>
<pdfrwt beam="2">  1        1 0.14780822E-01 0.83253931E+02</pdfrwt>
<pdfrwt beam="1">  1       -1 0.27747523E-02 0.83253931E+02</pdfrwt>
<totfact> 0.13276285E+05</totfact>
</mgrwt>
</event>
<event>
 5   1  0.1388354E+00  0.8880743E+02  0.7818608E-02  0.1305766E+00
          1   -1    0    0  501    0  0.00000000000E+00  0.00000000000E+00  0.19222899688E+03  0.19222899693E+03  0.46700000000E-02 0. -1.
         -1   -1    0    0    0  501 -0.00000000000E+00 -0.00000000000E+00 -0.10256984663E+02  0.10256985726E+02  0.46700000000E-02 0.  1.
         23    2    1    2    0    0  0.00000000000E+00  0.00000000000E+00  0.18197201221E+03  0.20248598266E+03  0.88807431808E+02 0.  0.
        -13    1    3    3    0    0 -0.23554239311E+02 -0.37174235275E+02  0.10446591589E+03  0.11335724376E+03  0.10570000000E+00 0.  1.
         13    1    3    3    0    0  0.23554239311E+02  0.37174235275E+02  0.77506096322E+02  0.89128738897E+02  0.10570000000E+00 0. -1.
<mgrwt>
<rscale>  0 0.88807432E+02</rscale>
<asrwt>0</asrwt>
<pdfrwt beam="1">  1        1 0.29573691E-01 0.88807432E+02</pdfrwt>
<pdfrwt beam="2">  1       -1 0.15779978E-02 0.88807432E+02</pdfrwt>
<totfact> 0.12608626E+05</totfact>
</mgrwt>
</event>
<event>
 5   1  0.1388354E+00  0.8705484E+02  0.7818608E-02  0.1310145E+00
         -1   -1    0    0    0  501 -0.00000000000E+00  0.00000000000E+00  0.12233394544E+02  0.12233395435E+02  0.46700000000E-02 0.  1.
          1   -1    0    0  501    0  0.00000000000E+00 -0.00000000000E+00 -0.15487412331E+03  0.15487412338E+03  0.46700000000E-02 0. -1.
         23    2    1    2    0    0  0.00000000000E+00  0.00000000000E+00 -0.14264072877E+03  0.16710751882E+03  0.87054841003E+02 0.  0.
        -13    1    3    3    0    0  0.38372934699E+02  0.96437590690E+01 -0.10614559715E+03  0.11328010934E+03  0.10570000000E+00 0. -1.
         13    1    3    3    0    0 -0.38372934699E+02 -0.96437590690E+01 -0.36495131624E+02  0.53827409478E+02  0.10570000000E+00 0.  1.
<mgrwt>
<rscale>  0 0.87054841E+02</rscale>
<asrwt>0</asrwt>
<pdfrwt beam="2">  1        1 0.23826787E-01 0.87054841E+02</pdfrwt>
<pdfrwt beam="1">  1       -1 0.18820609E-02 0.87054841E+02</pdfrwt>
<totfact> 0.12772331E+05</totfact>
</mgrwt>
</event>
<event>
 5   1  0.1388354E+00  0.9154589E+02  0.7818608E-02  0.1299151E+00
         -1   -1    0    0    0  501 -0.00000000000E+00  0.00000000000E+00  0.47868896992E+03  0.47868896994E+03  0.46700000000E-02 0.  1.
          1   -1    0    0  501    0  0.00000000000E+00 -0.00000000000E+00 -0.43768747991E+01  0.43768772905E+01  0.46700000000E-02 0. -1.
         23    2    1    2    0    0  0.00000000000E+00  0.00000000000E+00  0.47431209512E+03  0.48306584723E+03  0.91545885682E+02 0.  0.
        -13    1    3    3    0    0  0.31845670426E+02 -0.32353643231E+02  0.20627631726E+03  0.21121277232E+03  0.10570000000E+00 0.  1.
         13    1    3    3    0    0 -0.31845670426E+02  0.32353643231E+02  0.26803577786E+03  0.27185307491E+03  0.10570000000E+00 0. -1.
<mgrwt>
<rscale>  0 0.91545886E+02</rscale>
<asrwt>0</asrwt>
<pdfrwt beam="2">  1        1 0.67336572E-03 0.91545886E+02</pdfrwt>
<pdfrwt beam="1">  1       -1 0.73644438E-01 0.91545886E+02</pdfrwt>
<totfact> 0.47789065E+04</totfact>
</mgrwt>
</event>
<event>
 5   1  0.1388354E+00  0.8944255E+02  0.7818608E-02  0.1304207E+00
         -1   -1    0    0    0  501 -0.00000000000E+00  0.00000000000E+00  0.14224553776E+03  0.14224553783E+03  0.46700000000E-02 0.  1.
          1   -1    0    0  501    0  0.00000000000E+00 -0.00000000000E+00 -0.14060140599E+02  0.14060141375E+02  0.46700000000E-02 0. -1.
         23    2    1    2    0    0  0.00000000000E+00  0.00000000000E+00  0.12818539716E+03  0.15630567921E+03  0.89442547529E+02 0.  0.
        -13    1    3    3    0    0 -0.24902261309E+02  0.42325832265E+01  0.12858534333E+03  0.13104289020E+03  0.10570000000E+00 0.  1.
         13    1    3    3    0    0  0.24902261309E+02 -0.42325832265E+01 -0.39994617632E+00  0.25262789009E+02  0.10570000000E+00 0. -1.
<mgrwt>
<rscale>  0 0.89442548E+02</rscale>
<asrwt>0</asrwt>
<pdfrwt beam="2">  1        1 0.21630986E-02 0.89442548E+02</pdfrwt>
<pdfrwt beam="1">  1       -1 0.21883929E-01 0.89442548E+02</pdfrwt>
<totfact> 0.79569147E+04</totfact>
</mgrwt>
</event>
<event>
 5   1  0.1388354E+00  0.8913931E+02  0.7818608E-02  0.1304949E+00
          1   -1    0    0  501    0  0.00000000000E+00  0.00000000000E+00  0.15017568400E+03  0.15017568407E+03  0.46700000000E-02 0. -1.
         -1   -1    0    0    0  501 -0.00000000000E+00 -0.00000000000E+00 -0.13227534821E+02  0.13227535645E+02  0.46700000000E-02 0.  1.
         23    2    1    2    0    0  0.00000000000E+00  0.00000000000E+00  0.13694814917E+03  0.16340321971E+03  0.89139310354E+02 0.  0.
        -13    1    3    3    0    0 -0.10545065642E+02  0.42889098701E+02  0.79437583030E+02  0.90890120293E+02  0.10570000000E+00 0.  1.
         13    1    3    3    0    0  0.10545065642E+02 -0.42889098701E+02  0.57510566145E+02  0.72513099421E+02  0.10570000000E+00 0. -1.
<mgrwt>
<rscale>  0 0.89139310E+02</rscale>
<asrwt>0</asrwt>
<pdfrwt beam="1">  1        1 0.23103953E-01 0.89139310E+02</pdfrwt>
<pdfrwt beam="2">  1       -1 0.20350052E-02 0.89139310E+02</pdfrwt>
<totfact> 0.11919292E+05</totfact>
</mgrwt>
</event>
<event>
 5   1  0.1388354E+00  0.9114528E+02  0.7818608E-02  0.1300102E+00
          1   -1    0    0  501    0  0.00000000000E+00  0.00000000000E+00  0.15580622000E+02  0.15580622700E+02  0.46700000000E-02 0. -1.
         -1   -1    0    0    0  501 -0.00000000000E+00 -0.00000000000E+00 -0.13329798465E+03  0.13329798473E+03  0.46700000000E-02 0.  1.
         23    2    1    2    0    0  0.00000000000E+00  0.00000000000E+00 -0.11771736265E+03  0.14887860743E+03  0.91145281180E+02 0.  0.
        -13    1    3    3    0    0  0.38786194419E+02  0.38410769708E+01 -0.20283253330E+02  0.43937959534E+02  0.10570000000E+00 0.  1.
         13    1    3    3    0    0 -0.38786194419E+02 -0.38410769708E+01 -0.97434109319E+02  0.10494064790E+03  0.10570000000E+00 0. -1.
<mgrwt>
<rscale>  0 0.91145281E+02</rscale>
<asrwt>0</asrwt>
<pdfrwt beam="1">  1        1 0.23970189E-02 0.91145281E+02</pdfrwt>
<pdfrwt beam="2">  1       -1 0.20507382E-01 0.91145281E+02</pdfrwt>
<totfact> 0.76876921E+04</totfact>
</mgrwt>
</event>
<event>
 5   1  0.1388354E+00  0.9214080E+02  0.7818608E-02  0.1297749E+00
         -1   -1    0    0    0  501 -0.00000000000E+00  0.00000000000E+00  0.15944442623E+02  0.15944443307E+02  0.46700000000E-02 0.  1.
          1   -1    0    0  501    0  0.00000000000E+00 -0.00000000000E+00 -0.13311734394E+03  0.13311734402E+03  0.46700000000E-02 0. -1.
         23    2    1    2    0    0  0.00000000000E+00  0.00000000000E+00 -0.11717290132E+03  0.14906178733E+03  0.92140803333E+02 0.  0.
        -13    1    3    3    0    0  0.17649681816E+02  0.31271376288E+02 -0.11893362307E+02  0.37826888355E+02  0.10570000000E+00 0.  1.
         13    1    3    3    0    0 -0.17649681816E+02 -0.31271376288E+02 -0.10527953901E+03  0.11123489898E+03  0.10570000000E+00 0. -1.
<mgrwt>
<rscale>  0 0.92140803E+02</rscale>
<asrwt>0</asrwt>
<pdfrwt beam="2">  1        1 0.20479591E-01 0.92140803E+02</pdfrwt>
<pdfrwt beam="1">  1       -1 0.24529913E-02 0.92140803E+02</pdfrwt>
<totfact> 0.10664751E+05</totfact>
</mgrwt>
</event>
<event>
 5   1  0.1388354E+00  0.8800645E+02  0.7818608E-02  0.1307752E+00
         -1   -1    0    0    0  501 -0.00000000000E+00  0.00000000000E+00  0.92324184704E+02  0.92324184822E+02  0.46700000000E-02 0.  1.
          1   -1    0    0  501    0  0.00000000000E+00 -0.00000000000E+00 -0.20972658574E+02  0.20972659094E+02  0.46700000000E-02 0. -1.
         23    2    1    2    0    0  0.00000000000E+00  0.00000000000E+00  0.71351526130E+02  0.11329684392E+03  0.88006446129E+02 0.  0.
        -13    1    3    3    0    0 -0.13175047328E+02  0.26515656753E+02 -0.62302615344E+01  0.30257053003E+02  0.10570000000E+00 0. -1.
         13    1    3    3    0    0  0.13175047328E+02 -0.26515656753E+02  0.77581787665E+02  0.83039790913E+02  0.10570000000E+00 0.  1.
<mgrwt>
<rscale>  0 0.88006446E+02</rscale>
<asrwt>0</asrwt>
<pdfrwt beam="2">  1        1 0.32265629E-02 0.88006446E+02</pdfrwt>
<pdfrwt beam="1">  1       -1 0.14203721E-01 0.88006446E+02</pdfrwt>
<totfact> 0.90416189E+04</totfact>
</mgrwt>
</event>
<event>
 5   1  0.1388354E+00  0.8870179E+02  0.7818608E-02  0.1306026E+00
          1   -1    0    0  501    0  0.00000000000E+00  0.00000000000E+00  0.73411374570E+02  0.73411374719E+02  0.46700000000E-02 0. -1.
         -1   -1    0    0    0  501 -0.00000000000E+00 -0.00000000000E+00 -0.26794237556E+02  0.26794237963E+02  0.46700000000E-02 0.  1.
         23    2    1    2    0    0  0.00000000000E+00  0.00000000000E+00  0.46617137015E+02  0.10020561268E+03  0.88701788874E+02 0.  0.
        -13    1    3    3    0    0 -0.27243582667E+01 -0.17213919211E+02 -0.22763570196E+02  0.28669364191E+02  0.10570000000E+00 0.  1.
         13    1    3    3    0    0  0.27243582667E+01  0.17213919211E+02  0.69380707210E+02  0.71536248490E+02  0.10570000000E+00 0. -1.
<mgrwt>
<rscale>  0 0.88701789E+02</rscale>
<asrwt>0</asrwt>
<pdfrwt beam="1">  1        1 0.11294057E-01 0.88701789E+02</pdfrwt>
<pdfrwt beam="2">  1       -1 0.41221905E-02 0.88701789E+02</pdfrwt>
<totfact> 0.10719808E+05</totfact>
</mgrwt>
</event>
<event>
 5   1  0.1388354E+00  0.9365243E+02  0.7818608E-02  0.1294240E+00
          1   -1    0    0  501    0  0.00000000000E+00  0.00000000000E+00  0.54849798366E+02  0.54849798565E+02  0.46700000000E-02 0. -1.
         -1   -1    0    0    0  501 -0.00000000000E+00 -0.00000000000E+00 -0.39976339863E+02  0.39976340135E+02  0.46700000000E-02 0.  1.
         23    2    1    2    0    0  0.00000000000E+00  0.00000000000E+00  0.14873458504E+02  0.94826138700E+02  0.93652425558E+02 0.  0.
        -13    1    3    3    0    0  0.19460839305E+02 -0.42430287180E+02  0.36986465593E+01  0.46826751922E+02  0.10570000000E+00 0.  1.
         13    1    3    3    0    0 -0.19460839305E+02  0.42430287180E+02  0.11174811944E+02  0.47999386779E+02  0.10570000000E+00 0. -1.
<mgrwt>
<rscale>  0 0.93652426E+02</rscale>
<asrwt>0</asrwt>
<pdfrwt beam="1">  1        1 0.84384305E-02 0.93652426E+02</pdfrwt>
<pdfrwt beam="2">  1       -1 0.61502062E-02 0.93652426E+02</pdfrwt>
<totfact> 0.88223754E+04</totfact>
</mgrwt>
</event>
<event>
 5   1  0.1388354E+00  0.1009055E+03  0.7818608E-02  0.1278403E+00
          1   -1    0    0  501    0  0.00000000000E+00  0.00000000000E+00  0.69504145980E+02  0.69504146137E+02  0.46700000000E-02 0. -1.
         -1   -1    0    0    0  501 -0.00000000000E+00 -0.00000000000E+00 -0.36623437807E+02  0.36623438105E+02  0.46700000000E-02 0.  1.
         23    2    1    2    0    0  0.00000000000E+00  0.00000000000E+00  0.32880708173E+02  0.10612758424E+03  0.10090551604E+03 0.  0.
        -13    1    3    3    0    0  0.20234275252E+02  0.16337951756E+02  0.61911027786E+02  0.67151627654E+02  0.10570000000E+00 0. -1.
         13    1    3    3    0    0 -0.20234275252E+02 -0.16337951756E+02 -0.29030319613E+02  0.38975956588E+02  0.10570000000E+00 0.  1.
<mgrwt>
<rscale>  0 0.10090552E+03</rscale>
<asrwt>0</asrwt>
<pdfrwt beam="1">  1        1 0.10692946E-01 0.10090552E+03</pdfrwt>
<pdfrwt beam="2">  1       -1 0.56343751E-02 0.10090552E+03</pdfrwt>
<totfact> 0.74345608E+04</totfact>
</mgrwt>
</event>
<event>
 5   1  0.1388354E+00  0.9062044E+02  0.7818608E-02  0.1301356E+00
          1   -1    0    0  501    0  0.00000000000E+00  0.00000000000E+00  0.29811438903E+02  0.29811439269E+02  0.46700000000E-02 0. -1.
         -1   -1    0    0    0  501 -0.00000000000E+00 -0.00000000000E+00 -0.68866713207E+02  0.68866713365E+02  0.46700000000E-02 0.  1.
         23    2    1    2    0    0  0.00000000000E+00  0.00000000000E+00 -0.39055274304E+02  0.98678152634E+02  0.90620435644E+02 0.  0.
        -13    1    3    3    0    0 -0.93328835510E+01 -0.22625783236E+02  0.21993904154E+02  0.32905497638E+02  0.10570000000E+00 0. -1.
         13    1    3    3    0    0  0.93328835510E+01  0.22625783236E+02 -0.61049178457E+02  0.65772654996E+02  0.10570000000E+00 0.  1.
<mgrwt>
<rscale>  0 0.90620436E+02</rscale>
<asrwt>0</asrwt>
<pdfrwt beam="1">  1        1 0.45863753E-02 0.90620436E+02</pdfrwt>
<pdfrwt beam="2">  1       -1 0.10594879E-01 0.90620436E+02</pdfrwt>
<totfact> 0.88130615E+04</totfact>
</mgrwt>
</event>
<event>
 5   1  0.1388354E+00  0.9077505E+02  0.7818608E-02  0.1300986E+00
          1   -1    0    0  501    0  0.00000000000E+00  0.00000000000E+00  0.15222617592E+02  0.15222618308E+02  0.46700000000E-02 0. -1.
         -1   -1    0    0    0  501 -0.00000000000E+00 -0.00000000000E+00 -0.13532673584E+03  0.13532673592E+03  0.46700000000E-02 0.  1.
         23    2    1    2    0    0  0.00000000000E+00  0.00000000000E+00 -0.12010411825E+03  0.15054935423E+03  0.90775045242E+02 0.  0.
        -13    1    3    3    0    0  0.92061542176E+01 -0.32509580373E+02 -0.11031246405E+03  0.11537104051E+03  0.10570000000E+00 0.  1.
         13    1    3    3    0    0 -0.92061542176E+01  0.32509580373E+02 -0.97916541970E+01  0.35178313716E+02  0.10570000000E+00 0. -1.
<mgrwt>
<rscale>  0 0.90775045E+02</rscale>
<asrwt>0</asrwt>
<pdfrwt beam="1">  1        1 0.23419413E-02 0.90775045E+02</pdfrwt>
<pdfrwt beam="2">  1       -1 0.20819497E-01 0.90775045E+02</pdfrwt>
<totfact> 0.77435431E+04</totfact>
</mgrwt>
</event>
<event>
 5   1  0.1388354E+00  0.9122265E+02  0.7818608E-02  0.1299918E+00
         -1   -1    0    0    0  501 -0.00000000000E+00  0.00000000000E+00  0.70494054349E+02  0.70494054504E+02  0.46700000000E-02 0.  1.
          1   -1    0    0  501    0  0.00000000000E+00 -0.00000000000E+00 -0.29511606025E+02  0.29511606395E+02  0.46700000000E-02 0. -1.
         23    2    1    2    0    0  0.00000000000E+00  0.00000000000E+00  0.40982448324E+02  0.10000566090E+03  0.91222645988E+02 0.  0.
        -13    1    3    3    0    0  0.56663891295E+01  0.18182785403E+02  0.65926222383E+02  0.68622151095E+02  0.10570000000E+00 0.  1.
         13    1    3    3    0    0 -0.56663891295E+01 -0.18182785403E+02 -0.24943774059E+02  0.31383509803E+02  0.10570000000E+00 0. -1.
<mgrwt>
<rscale>  0 0.91222646E+02</rscale>
<asrwt>0</asrwt>
<pdfrwt beam="2">  1        1 0.45402472E-02 0.91222646E+02</pdfrwt>
<pdfrwt beam="1">  1       -1 0.10845239E-01 0.91222646E+02</pdfrwt>
<totfact> 0.86330032E+04</totfact>
</mgrwt>
</event>
<event>
 5   1  0.1388354E+00  0.9093472E+02  0.7818608E-02  0.1300604E+00
          1   -1    0    0  501    0  0.00000000000E+00  0.00000000000E+00  0.10108964630E+03  0.10108964641E+03  0.46700000000E-02 0. -1.
         -1   -1    0    0    0  501 -0.00000000000E+00 -0.00000000000E+00 -0.20449973629E+02  0.20449974163E+02  0.46700000000E-02 0.  1.
         23    2    1    2    0    0  0.00000000000E+00  0.00000000000E+00  0.80639672670E+02  0.12153962057E+03  0.90934715923E+02 0.  0.
        -13    1    3    3    0    0  0.71607444913E+01 -0.44190665513E+02  0.29696227135E+02  0.53721208649E+02  0.10570000000E+00 0.  1.
         13    1    3    3    0    0 -0.71607444913E+01  0.44190665513E+02  0.50943445535E+02  0.67818411922E+02  0.10570000000E+00 0. -1.
<mgrwt>
<rscale>  0 0.90934716E+02</rscale>
<asrwt>0</asrwt>
<pdfrwt beam="1">  1        1 0.15552253E-01 0.90934716E+02</pdfrwt>
<pdfrwt beam="2">  1       -1 0.31461499E-02 0.90934716E+02</pdfrwt>
<totfact> 0.10540141E+05</totfact>
</mgrwt>
</event>
<event>
 5   1  0.1388354E+00  0.7783516E+02  0.7818608E-02  0.1335310E+00
         -1   -1    0    0    0  501 -0.00000000000E+00  0.00000000000E+00  0.37867708458E+02  0.37867708746E+02  0.46700000000E-02 0.  1.
          1   -1    0    0  501    0  0.00000000000E+00 -0.00000000000E+00 -0.39996558316E+02  0.39996558588E+02  0.46700000000E-02 0. -1.
         23    2    1    2    0    0  0.00000000000E+00  0.00000000000E+00 -0.21288498578E+01  0.77864267334E+02  0.77835159958E+02 0.  0.
        -13    1    3    3    0    0 -0.15374484085E+01 -0.37339219700E+02 -0.11930613055E+02  0.39229220943E+02  0.10570000000E+00 0. -1.
         13    1    3    3    0    0  0.15374484085E+01  0.37339219700E+02  0.98017631974E+01  0.38635046391E+02  0.10570000000E+00 0.  1.
<mgrwt>
<rscale>  0 0.77835160E+02</rscale>
<asrwt>0</asrwt>
<pdfrwt beam="2">  1        1 0.61533167E-02 0.77835160E+02</pdfrwt>
<pdfrwt beam="1">  1       -1 0.58258014E-02 0.77835160E+02</pdfrwt>
<totfact> 0.14088495E+05</totfact>
</mgrwt>
</event>
<event>
 5   1  0.1388354E+00  0.9134298E+02  0.7818608E-02  0.1299632E+00
         -1   -1    0    0    0  501 -0.00000000000E+00  0.00000000000E+00  0.44344671000E+02  0.44344671246E+02  0.46700000000E-02 0.  1.
          1   -1    0    0  501    0  0.00000000000E+00 -0.00000000000E+00 -0.47038012346E+02  0.47038012578E+02  0.46700000000E-02 0. -1.
         23    2    1    2    0    0  0.00000000000E+00  0.00000000000E+00 -0.26933413458E+01  0.91382683823E+02  0.91342984488E+02 0.  0.
        -13    1    3    3    0    0 -0.26847114510E+02  0.29106930276E+02 -0.24113825814E+02  0.46362363135E+02  0.10570000000E+00 0. -1.
         13    1    3    3    0    0  0.26847114510E+02 -0.29106930276E+02  0.21420484468E+02  0.45020320689E+02  0.10570000000E+00 0.  1.
<mgrwt>
<rscale>  0 0.91342984E+02</rscale>
<asrwt>0</asrwt>
<pdfrwt beam="2">  1        1 0.72366173E-02 0.91342984E+02</pdfrwt>
<pdfrwt beam="1">  1       -1 0.68222571E-02 0.91342984E+02</pdfrwt>
<totfact> 0.92434846E+04</totfact>
</mgrwt>
</event>
<event>
 5   1  0.1388354E+00  0.9086402E+02  0.7818608E-02  0.1300773E+00
         -1   -1    0    0    0  501 -0.00000000000E+00  0.00000000000E+00  0.11168278716E+03  0.11168278726E+03  0.46700000000E-02 0.  1.
          1   -1    0    0  501    0  0.00000000000E+00 -0.00000000000E+00 -0.18481519311E+02  0.18481519901E+02  0.46700000000E-02 0. -1.
         23    2    1    2    0    0  0.00000000000E+00  0.00000000000E+00  0.93201267846E+02  0.13016430716E+03  0.90864022195E+02 0.  0.
        -13    1    3    3    0    0 -0.32475642000E+02 -0.10726146314E+02  0.89440787542E+02  0.95756896288E+02  0.10570000000E+00 0.  1.
         13    1    3    3    0    0  0.32475642000E+02  0.10726146314E+02  0.37604803039E+01  0.34407410868E+02  0.10570000000E+00 0. -1.
<mgrwt>
<rscale>  0 0.90864022E+02</rscale>
<asrwt>0</asrwt>
<pdfrwt beam="2">  1        1 0.28433107E-02 0.90864022E+02</pdfrwt>
<pdfrwt beam="1">  1       -1 0.17181967E-01 0.90864022E+02</pdfrwt>
<totfact> 0.80379879E+04</totfact>
</mgrwt>
</event>
<event>
 5   1  0.1388354E+00  0.9291397E+02  0.7818608E-02  0.1295945E+00
          1   -1    0    0  501    0  0.00000000000E+00  0.00000000000E+00  0.25276830571E+03  0.25276830575E+03  0.46700000000E-02 0. -1.
         -1   -1    0    0    0  501 -0.00000000000E+00 -0.00000000000E+00 -0.85384566842E+01  0.85384579613E+01  0.46700000000E-02 0.  1.
         23    2    1    2    0    0  0.00000000000E+00  0.00000000000E+00  0.24422984902E+03  0.26130676371E+03  0.92913968851E+02 0.  0.
        -13    1    3    3    0    0 -0.17739205464E+02  0.41457491779E+02  0.15353748996E+03  0.16002242040E+03  0.10570000000E+00 0. -1.
         13    1    3    3    0    0  0.17739205464E+02 -0.41457491779E+02  0.90692359068E+02  0.10128434332E+03  0.10570000000E+00 0.  1.
<mgrwt>
<rscale>  0 0.92913969E+02</rscale>
<asrwt>0</asrwt>
<pdfrwt beam="1">  1        1 0.38887430E-01 0.92913969E+02</pdfrwt>
<pdfrwt beam="2">  1       -1 0.13136089E-02 0.92913969E+02</pdfrwt>
<totfact> 0.11783263E+05</totfact>
</mgrwt>
</event>
<event>
 5   1  0.1388354E+00  0.9156263E+02  0.7818608E-02  0.1299111E+00
          1   -1    0    0  501    0  0.00000000000E+00  0.00000000000E+00  0.14750086212E+03  0.14750086220E+03  0.46700000000E-02 0. -1.
         -1   -1    0    0    0  501 -0.00000000000E+00 -0.00000000000E+00 -0.14209603279E+02  0.14209604047E+02  0.46700000000E-02 0.  1.
         23    2    1    2    0    0  0.00000000000E+00  0.00000000000E+00  0.13329125884E+03  0.16171046624E+03  0.91562629979E+02 0.  0.
        -13    1    3    3    0    0  0.31474113235E+02 -0.10890233696E+02  0.11168679647E+02  0.35127874565E+02  0.10570000000E+00 0.  1.
         13    1    3    3    0    0 -0.31474113235E+02  0.10890233696E+02  0.12212257920E+03  0.12658259168E+03  0.10570000000E+00 0. -1.
<mgrwt>
<rscale>  0 0.91562630E+02</rscale>
<asrwt>0</asrwt>
<pdfrwt beam="1">  1        1 0.22692442E-01 0.91562630E+02</pdfrwt>
<pdfrwt beam="2">  1       -1 0.21860928E-02 0.91562630E+02</pdfrwt>
<totfact> 0.11051948E+05</totfact>
</mgrwt>
</event>
<event>
 5   1  0.1388354E+00  0.8735365E+02  0.7818608E-02  0.1309390E+00
         -1   -1    0    0    0  501 -0.00000000000E+00  0.00000000000E+00  0.96078712031E+02  0.96078712145E+02  0.46700000000E-02 0.  1.
          1   -1    0    0  501    0  0.00000000000E+00 -0.00000000000E+00 -0.19855230863E+02  0.19855231412E+02  0.46700000000E-02 0. -1.
         23    2    1    2    0    0  0.00000000000E+00  0.00000000000E+00  0.76223481169E+02  0.11593394356E+03  0.87353650107E+02 0.  0.
        -13    1    3    3    0    0 -0.21609117591E+02  0.82291741298E+00  0.88475045781E+02  0.91079504032E+02  0.10570000000E+00 0.  1.
         13    1    3    3    0    0  0.21609117591E+02 -0.82291741298E+00 -0.12251564613E+02  0.24854439525E+02  0.10570000000E+00 0. -1.
<mgrwt>
<rscale>  0 0.87353650E+02</rscale>
<asrwt>0</asrwt>
<pdfrwt beam="2">  1        1 0.30546509E-02 0.87353650E+02</pdfrwt>
<pdfrwt beam="1">  1       -1 0.14781341E-01 0.87353650E+02</pdfrwt>
<totfact> 0.91506986E+04</totfact>
</mgrwt>
</event>
<event>
 5   1  0.1388354E+00  0.9260199E+02  0.7818608E-02  0.1296670E+00
         -1   -1    0    0    0  501 -0.00000000000E+00  0.00000000000E+00  0.36568392067E+02  0.36568392365E+02  0.46700000000E-02 0.  1.
          1   -1    0    0  501    0  0.00000000000E+00 -0.00000000000E+00 -0.58623911657E+02  0.58623911843E+02  0.46700000000E-02 0. -1.
         23    2    1    2    0    0  0.00000000000E+00  0.00000000000E+00 -0.22055519591E+02  0.95192304208E+02  0.92601991534E+02 0.  0.
        -13    1    3    3    0    0 -0.35780341234E+02  0.28714373937E+02 -0.46061850040E+01  0.46108309470E+02  0.10570000000E+00 0.  1.
         13    1    3    3    0    0  0.35780341234E+02 -0.28714373937E+02 -0.17449334587E+02  0.49083994738E+02  0.10570000000E+00 0. -1.
<mgrwt>
<rscale>  0 0.92601992E+02</rscale>
<asrwt>0</asrwt>
<pdfrwt beam="2">  1        1 0.90190634E-02 0.92601992E+02</pdfrwt>
<pdfrwt beam="1">  1       -1 0.56259065E-02 0.92601992E+02</pdfrwt>
<totfact> 0.91977885E+04</totfact>
</mgrwt>
</event>
<event>
 5   1  0.1388354E+00  0.9121545E+02  0.7818608E-02  0.1299935E+00
         -1   -1    0    0    0  501 -0.00000000000E+00  0.00000000000E+00  0.10151832036E+03  0.10151832047E+03  0.46700000000E-02 0.  1.
          1   -1    0    0  501    0  0.00000000000E+00 -0.00000000000E+00 -0.20489549493E+02  0.20489550025E+02  0.46700000000E-02 0. -1.
         23    2    1    2    0    0  0.00000000000E+00  0.00000000000E+00  0.81028770868E+02  0.12200787049E+03  0.91215452386E+02 0.  0.
        -13    1    3    3    0    0  0.22878223048E+02  0.53201441729E+01  0.92805623223E+02  0.95731979495E+02  0.10570000000E+00 0.  1.
         13    1    3    3    0    0 -0.22878223048E+02 -0.53201441729E+01 -0.11776852354E+02  0.26275890998E+02  0.10570000000E+00 0. -1.
<mgrwt>
<rscale>  0 0.91215452E+02</rscale>
<asrwt>0</asrwt>
<pdfrwt beam="2">  1        1 0.31522384E-02 0.91215452E+02</pdfrwt>
<pdfrwt beam="1">  1       -1 0.15618203E-01 0.91215452E+02</pdfrwt>
<totfact> 0.81053502E+04</totfact>
</mgrwt>
</event>
<event>
 5   1  0.1388354E+00  0.9022521E+02  0.7818608E-02  0.1302307E+00
         -1   -1    0    0    0  501 -0.00000000000E+00  0.00000000000E+00  0.23549655568E+03  0.23549655572E+03  0.46700000000E-02 0.  1.
          1   -1    0    0  501    0  0.00000000000E+00 -0.00000000000E+00 -0.86419393424E+01  0.86419406042E+01  0.46700000000E-02 0. -1.
         23    2    1    2    0    0  0.00000000000E+00  0.00000000000E+00  0.22685461633E+03  0.24413849633E+03  0.90225209541E+02 0.  0.
        -13    1    3    3    0    0  0.16125082883E+02  0.30517324680E+02  0.19202880874E+03  0.19510612487E+03  0.10570000000E+00 0.  1.
         13    1    3    3    0    0 -0.16125082883E+02 -0.30517324680E+02  0.34825807598E+02  0.49032371460E+02  0.10570000000E+00 0. -1.
<mgrwt>
<rscale>  0 0.90225210E+02</rscale>
<asrwt>0</asrwt>
<pdfrwt beam="2">  1        1 0.13295292E-02 0.90225210E+02</pdfrwt>
<pdfrwt beam="1">  1       -1 0.36230241E-01 0.90225210E+02</pdfrwt>
<totfact> 0.67891281E+04</totfact>
</mgrwt>
</event>
<event>
 5   1  0.1388354E+00  0.9054337E+02  0.7818608E-02  0.1301541E+00
          1   -1    0    0  501    0  0.00000000000E+00  0.00000000000E+00  0.37386927783E+02  0.37386928075E+02  0.46700000000E-02 0. -1.
         -1   -1    0    0    0  501 -0.00000000000E+00 -0.00000000000E+00 -0.54819300916E+02  0.54819301115E+02  0.46700000000E-02 0.  1.
         23    2    1    2    0    0  0.00000000000E+00  0.00000000000E+00 -0.17432373133E+02  0.92206229189E+02  0.90543365678E+02 0.  0.
        -13    1    3    3    0    0  0.50540083108E+01 -0.16046628553E+02 -0.51517549395E+02  0.54195076862E+02  0.10570000000E+00 0.  1.
         13    1    3    3    0    0 -0.50540083108E+01  0.16046628553E+02  0.34085176262E+02  0.38011152327E+02  0.10570000000E+00 0. -1.
<mgrwt>
<rscale>  0 0.90543366E+02</rscale>
<asrwt>0</asrwt>
<pdfrwt beam="1">  1        1 0.57518351E-02 0.90543366E+02</pdfrwt>
<pdfrwt beam="2">  1       -1 0.84337386E-02 0.90543366E+02</pdfrwt>
<totfact> 0.91522209E+04</totfact>
</mgrwt>
</event>
<event>
 5   1  0.1388354E+00  0.8919183E+02  0.7818608E-02  0.1304821E+00
          1   -1    0    0  501    0  0.00000000000E+00  0.00000000000E+00  0.64197303861E+02  0.64197304030E+02  0.46700000000E-02 0. -1.
         -1   -1    0    0    0  501 -0.00000000000E+00 -0.00000000000E+00 -0.30979425979E+02  0.30979426331E+02  0.46700000000E-02 0.  1.
         23    2    1    2    0    0  0.00000000000E+00  0.00000000000E+00  0.33217877881E+02  0.95176730362E+02  0.89191830296E+02 0.  0.
        -13    1    3    3    0    0 -0.31175099134E+02  0.13063318364E+01  0.50608993990E+02  0.59454812708E+02  0.10570000000E+00 0. -1.
         13    1    3    3    0    0  0.31175099134E+02 -0.13063318364E+01 -0.17391116109E+02  0.35721917654E+02  0.10570000000E+00 0.  1.
<mgrwt>
<rscale>  0 0.89191830E+02</rscale>
<asrwt>0</asrwt>
<pdfrwt beam="1">  1        1 0.98765082E-02 0.89191830E+02</pdfrwt>
<pdfrwt beam="2">  1       -1 0.47660656E-02 0.89191830E+02</pdfrwt>
<totfact> 0.10346432E+05</totfact>
</mgrwt>
</event>
<event>
 5   1  0.1388354E+00  0.9130831E+02  0.7818608E-02  0.1299714E+00
          1   -1    0    0  501    0  0.00000000000E+00  0.00000000000E+00  0.83803298126E+01  0.83803311138E+01  0.46700000000E-02 0. -1.
         -1   -1    0    0    0  501 -0.00000000000E+00 -0.00000000000E+00 -0.24871358380E+03  0.24871358384E+03  0.46700000000E-02 0.  1.
         23    2    1    2    0    0  0.00000000000E+00  0.00000000000E+00 -0.24033325399E+03  0.25709391496E+03  0.91308313620E+02 0.  0.
        -13    1    3    3    0    0 -0.33436008524E+02 -0.17581128244E+02 -0.19235039456E+03  0.19602486627E+03  0.10570000000E+00 0.  1.
         13    1    3    3    0    0  0.33436008524E+02  0.17581128244E+02 -0.47982859430E+02  0.61069048690E+02  0.10570000000E+00 0. -1.
<mgrwt>
<rscale>  0 0.91308314E+02</rscale>
<asrwt>0</asrwt>
<pdfrwt beam="1">  1        1 0.12892818E-02 0.91308314E+02</pdfrwt>
<pdfrwt beam="2">  1       -1 0.38263623E-01 0.91308314E+02</pdfrwt>
<totfact> 0.64634238E+04</totfact>
</mgrwt>
</event>
<event>
 5   1  0.1388354E+00  0.9289283E+02  0.7818608E-02  0.1295994E+00
         -1   -1    0    0    0  501 -0.00000000000E+00  0.00000000000E+00  0.69015146393E+01  0.69015162193E+01  0.46700000000E-02 0.  1.
          1   -1    0    0  501    0  0.00000000000E+00 -0.00000000000E+00 -0.31257911737E+03  0.31257911741E+03  0.46700000000E-02 0. -1.
         23    2    1    2    0    0  0.00000000000E+00  0.00000000000E+00 -0.30567760273E+03  0.31948063363E+03  0.92892833145E+02 0.  0.
        -13    1    3    3    0    0  0.16809043365E+02  0.42020349340E+02 -0.18874628944E+03  0.19409643647E+03  0.10570000000E+00 0.  1.
         13    1    3    3    0    0 -0.16809043365E+02 -0.42020349340E+02 -0.11693131329E+03  0.12538419716E+03  0.10570000000E+00 0. -1.
<mgrwt>
<rscale>  0 0.92892833E+02</rscale>
<asrwt>0</asrwt>
<pdfrwt beam="2">  1        1 0.48089084E-01 0.92892833E+02</pdfrwt>
<pdfrwt beam="1">  1       -1 0.10617719E-02 0.92892833E+02</pdfrwt>
<totfact> 0.12285815E+05</totfact>
</mgrwt>
</event>
<event>
 4   1  0.1388354E+00  0.2394803E+02  0.7818608E-02  0.1676588E+00
         -1   -1    0    0    0  501 -0.00000000000E+00  0.00000000000E+00  0.23120278513E+02  0.23120278985E+02  0.46700000000E-02 0. -1.
          1   -1    0    0  501    0  0.00000000000E+00 -0.00000000000E+00 -0.62013538051E+01  0.62013555635E+01  0.46700000000E-02 0.  1.
        -13    1    1    2    0    0  0.33723616788E+01  0.10611336555E+02  0.30676301050E+01  0.11549667256E+02  0.10570000000E+00 0.  1.
         13    1    1    2    0    0 -0.33723616788E+01 -0.10611336555E+02  0.13851294603E+02  0.17771967293E+02  0.10570000000E+00 0. -1.
<mgrwt>
<rscale>  0 0.23948032E+02</rscale>
<asrwt>0</asrwt>
<pdfrwt beam="2">  1        1 0.95405459E-03 0.23948032E+02</pdfrwt>
<pdfrwt beam="1">  1       -1 0.35569661E-02 0.23948032E+02</pdfrwt>
<totfact> 0.24831369E+06</totfact>
</mgrwt>
</event>
<event>
 5   1  0.1388354E+00  0.9167811E+02  0.7818608E-02  0.1298838E+00
         -1   -1    0    0    0  501 -0.00000000000E+00  0.00000000000E+00  0.45076431976E+02  0.45076432218E+02  0.46700000000E-02 0.  1.
          1   -1    0    0  501    0  0.00000000000E+00 -0.00000000000E+00 -0.46614583176E+02  0.46614583410E+02  0.46700000000E-02 0. -1.
         23    2    1    2    0    0  0.00000000000E+00  0.00000000000E+00 -0.15381512004E+01  0.91691015627E+02  0.91678113188E+02 0.  0.
        -13    1    3    3    0    0  0.15832173110E+02  0.39423141599E+02  0.16448635131E+02  0.45556674254E+02  0.10570000000E+00 0.  1.
         13    1    3    3    0    0 -0.15832173110E+02 -0.39423141599E+02 -0.17986786331E+02  0.46134341373E+02  0.10570000000E+00 0. -1.
<mgrwt>
<rscale>  0 0.91678113E+02</rscale>
<asrwt>0</asrwt>
<pdfrwt beam="2">  1        1 0.71714743E-02 0.91678113E+02</pdfrwt>
<pdfrwt beam="1">  1       -1 0.69348358E-02 0.91678113E+02</pdfrwt>
<totfact> 0.91364623E+04</totfact>
</mgrwt>
</event>
<event>
 5   1  0.1388354E+00  0.9088699E+02  0.7818608E-02  0.1300718E+00
          1   -1    0    0  501    0  0.00000000000E+00  0.00000000000E+00  0.18352336789E+02  0.18352337383E+02  0.46700000000E-02 0. -1.
         -1   -1    0    0    0  501 -0.00000000000E+00 -0.00000000000E+00 -0.11252578879E+03  0.11252578889E+03  0.46700000000E-02 0.  1.
         23    2    1    2    0    0  0.00000000000E+00  0.00000000000E+00 -0.94173452006E+02  0.13087812627E+03  0.90886989577E+02 0.  0.
        -13    1    3    3    0    0 -0.31473178128E+01 -0.43207741236E+02 -0.66846129385E+02  0.79656956371E+02  0.10570000000E+00 0.  1.
         13    1    3    3    0    0  0.31473178128E+01  0.43207741236E+02 -0.27327322621E+02  0.51221169903E+02  0.10570000000E+00 0. -1.
<mgrwt>
<rscale>  0 0.90886990E+02</rscale>
<asrwt>0</asrwt>
<pdfrwt beam="1">  1        1 0.28234366E-02 0.90886990E+02</pdfrwt>
<pdfrwt beam="2">  1       -1 0.17311659E-01 0.90886990E+02</pdfrwt>
<totfact> 0.80208663E+04</totfact>
</mgrwt>
</event>
<event>
 5   1  0.1388354E+00  0.9207384E+02  0.7818608E-02  0.1297906E+00
          1   -1    0    0  501    0  0.00000000000E+00  0.00000000000E+00  0.24799519399E+02  0.24799519838E+02  0.46700000000E-02 0. -1.
         -1   -1    0    0    0  501 -0.00000000000E+00 -0.00000000000E+00 -0.85461248627E+02  0.85461248755E+02  0.46700000000E-02 0.  1.
         23    2    1    2    0    0  0.00000000000E+00  0.00000000000E+00 -0.60661729228E+02  0.11026076859E+03  0.92073838292E+02 0.  0.
        -13    1    3    3    0    0  0.19911145397E+02  0.10565658635E+02 -0.78400735690E+02  0.81576794388E+02  0.10570000000E+00 0.  1.
         13    1    3    3    0    0 -0.19911145397E+02 -0.10565658635E+02  0.17739006462E+02  0.28683974205E+02  0.10570000000E+00 0. -1.
<mgrwt>
<rscale>  0 0.92073838E+02</rscale>
<asrwt>0</asrwt>
<pdfrwt beam="1">  1        1 0.38153108E-02 0.92073838E+02</pdfrwt>
<pdfrwt beam="2">  1       -1 0.13147884E-01 0.92073838E+02</pdfrwt>
<totfact> 0.81620932E+04</totfact>
</mgrwt>
</event>
<event>
 5   1  0.1388354E+00  0.9013874E+02  0.7818608E-02  0.1302516E+00
         -1   -1    0    0    0  501 -0.00000000000E+00  0.00000000000E+00  0.19346255083E+02  0.19346255647E+02  0.46700000000E-02 0.  1.
          1   -1    0    0  501    0  0.00000000000E+00 -0.00000000000E+00 -0.10499437373E+03  0.10499437383E+03  0.46700000000E-02 0. -1.
         23    2    1    2    0    0  0.00000000000E+00  0.00000000000E+00 -0.85648118645E+02  0.12434062948E+03  0.90138737021E+02 0.  0.
        -13    1    3    3    0    0 -0.28584852470E+02 -0.30408703224E+02 -0.19355241815E+02  0.46004560434E+02  0.10570000000E+00 0. -1.
         13    1    3    3    0    0  0.28584852470E+02  0.30408703224E+02 -0.66292876831E+02  0.78336069045E+02  0.10570000000E+00 0.  1.
<mgrwt>
<rscale>  0 0.90138737E+02</rscale>
<asrwt>0</asrwt>
<pdfrwt beam="2">  1        1 0.16152980E-01 0.90138737E+02</pdfrwt>
<pdfrwt beam="1">  1       -1 0.29763470E-02 0.90138737E+02</pdfrwt>
<totfact> 0.10863621E+05</totfact>
</mgrwt>
</event>
<event>
 5   1  0.1388354E+00  0.9083171E+02  0.7818608E-02  0.1300850E+00
         -1   -1    0    0    0  501 -0.00000000000E+00  0.00000000000E+00  0.30458949284E+03  0.30458949288E+03  0.46700000000E-02 0.  1.
          1   -1    0    0  501    0  0.00000000000E+00 -0.00000000000E+00 -0.67717361922E+01  0.67717378025E+01  0.46700000000E-02 0. -1.
         23    2    1    2    0    0  0.00000000000E+00  0.00000000000E+00  0.29781775665E+03  0.31136123068E+03  0.90831711394E+02 0.  0.
        -13    1    3    3    0    0 -0.15824619412E+02  0.41877735425E+02  0.12270725770E+03  0.13061870298E+03  0.10570000000E+00 0.  1.
         13    1    3    3    0    0  0.15824619412E+02 -0.41877735425E+02  0.17511049895E+03  0.18074252770E+03  0.10570000000E+00 0. -1.
<mgrwt>
<rscale>  0 0.90831711E+02</rscale>
<asrwt>0</asrwt>
<pdfrwt beam="2">  1        1 0.10418059E-02 0.90831711E+02</pdfrwt>
<pdfrwt beam="1">  1       -1 0.46859912E-01 0.90831711E+02</pdfrwt>
<totfact> 0.60823237E+04</totfact>
</mgrwt>
</event>
<event>
 5   1  0.1388354E+00  0.9286327E+02  0.7818608E-02  0.1296062E+00
         -1   -1    0    0    0  501 -0.00000000000E+00  0.00000000000E+00  0.77933246271E+02  0.77933246411E+02  0.46700000000E-02 0.  1.
          1   -1    0    0  501    0  0.00000000000E+00 -0.00000000000E+00 -0.27663375080E+02  0.27663375474E+02  0.46700000000E-02 0. -1.
         23    2    1    2    0    0  0.00000000000E+00  0.00000000000E+00  0.50269871191E+02  0.10559662189E+03  0.92863268325E+02 0.  0.
        -13    1    3    3    0    0 -0.13406042087E+02  0.11883913147E+02 -0.23574885619E+02  0.29609724088E+02  0.10570000000E+00 0. -1.
         13    1    3    3    0    0  0.13406042087E+02 -0.11883913147E+02  0.73844756810E+02  0.75986897797E+02  0.10570000000E+00 0.  1.
<mgrwt>
<rscale>  0 0.92863268E+02</rscale>
<asrwt>0</asrwt>
<pdfrwt beam="2">  1        1 0.42559040E-02 0.92863268E+02</pdfrwt>
<pdfrwt beam="1">  1       -1 0.11989730E-01 0.92863268E+02</pdfrwt>
<totfact> 0.81125969E+04</totfact>
</mgrwt>
</event>
<event>
 5   1  0.1388354E+00  0.9384118E+02  0.7818608E-02  0.1293808E+00
         -1   -1    0    0    0  501 -0.00000000000E+00  0.00000000000E+00  0.68246939897E+02  0.68246940057E+02  0.46700000000E-02 0.  1.
          1   -1    0    0  501    0  0.00000000000E+00 -0.00000000000E+00 -0.32258468868E+02  0.32258469206E+02  0.46700000000E-02 0. -1.
         23    2    1    2    0    0  0.00000000000E+00  0.00000000000E+00  0.35988471030E+02  0.10050540926E+03  0.93841180960E+02 0.  0.
        -13    1    3    3    0    0 -0.24910312777E+02  0.15599126276E+01 -0.24558589098E+02  0.35015603394E+02  0.10570000000E+00 0. -1.
         13    1    3    3    0    0  0.24910312777E+02 -0.15599126276E+01  0.60547060128E+02  0.65489805869E+02  0.10570000000E+00 0.  1.
<mgrwt>
<rscale>  0 0.93841181E+02</rscale>
<asrwt>0</asrwt>
<pdfrwt beam="2">  1        1 0.49628415E-02 0.93841181E+02</pdfrwt>
<pdfrwt beam="1">  1       -1 0.10499529E-01 0.93841181E+02</pdfrwt>
<totfact> 0.80740226E+04</totfact>
</mgrwt>
</event>
<event>
 5   1  0.1388354E+00  0.9303171E+02  0.7818608E-02  0.1295672E+00
         -1   -1    0    0    0  501 -0.00000000000E+00  0.00000000000E+00  0.23360131359E+02  0.23360131826E+02  0.46700000000E-02 0.  1.
          1   -1    0    0  501    0  0.00000000000E+00 -0.00000000000E+00 -0.92624679868E+02  0.92624679986E+02  0.46700000000E-02 0. -1.
         23    2    1    2    0    0  0.00000000000E+00  0.00000000000E+00 -0.69264548509E+02  0.11598481181E+03  0.93031709060E+02 0.  0.
        -13    1    3    3    0    0  0.43761764029E+02 -0.10741543554E+02 -0.20241348225E+02  0.49398341058E+02  0.10570000000E+00 0. -1.
         13    1    3    3    0    0 -0.43761764029E+02  0.10741543554E+02 -0.49023200284E+02  0.66586470753E+02  0.10570000000E+00 0.  1.
<mgrwt>
<rscale>  0 0.93031709E+02</rscale>
<asrwt>0</asrwt>
<pdfrwt beam="2">  1        1 0.14249951E-01 0.93031709E+02</pdfrwt>
<pdfrwt beam="1">  1       -1 0.35938665E-02 0.93031709E+02</pdfrwt>
<totfact> 0.97607559E+04</totfact>
</mgrwt>
</event>
<event>
 5   1  0.1388354E+00  0.9114494E+02  0.7818608E-02  0.1300103E+00
          1   -1    0    0  501    0  0.00000000000E+00  0.00000000000E+00  0.56464531529E+02  0.56464531722E+02  0.46700000000E-02 0. -1.
         -1   -1    0    0    0  501 -0.00000000000E+00 -0.00000000000E+00 -0.36781497306E+02  0.36781497602E+02  0.46700000000E-02 0.  1.
         23    2    1    2    0    0  0.00000000000E+00  0.00000000000E+00  0.19683034223E+02  0.93246029324E+02  0.91144940334E+02 0.  0.
        -13    1    3    3    0    0  0.18088491258E+02 -0.26997875311E+02 -0.22844320634E+02  0.39723455854E+02  0.10570000000E+00 0.  1.
         13    1    3    3    0    0 -0.18088491258E+02  0.26997875311E+02  0.42527354857E+02  0.53522573470E+02  0.10570000000E+00 0. -1.
<mgrwt>
<rscale>  0 0.91144940E+02</rscale>
<asrwt>0</asrwt>
<pdfrwt beam="1">  1        1 0.86868510E-02 0.91144940E+02</pdfrwt>
<pdfrwt beam="2">  1       -1 0.56586920E-02 0.91144940E+02</pdfrwt>
<totfact> 0.95584975E+04</totfact>
</mgrwt>
</event>
<event>
 5   1  0.1388354E+00  0.8818818E+02  0.7818608E-02  0.1307300E+00
          1   -1    0    0  501    0  0.00000000000E+00  0.00000000000E+00  0.13198345153E+02  0.13198345980E+02  0.46700000000E-02 0. -1.
         -1   -1    0    0    0  501 -0.00000000000E+00 -0.00000000000E+00 -0.14731305546E+03  0.14731305553E+03  0.46700000000E-02 0.  1.
         23    2    1    2    0    0  0.00000000000E+00  0.00000000000E+00 -0.13411471031E+03  0.16051140151E+03  0.88188176619E+02 0.  0.
        -13    1    3    3    0    0  0.37902107728E+02 -0.22509930958E+02 -0.65227552006E+02  0.78726815477E+02  0.10570000000E+00 0. -1.
         13    1    3    3    0    0 -0.37902107728E+02  0.22509930958E+02 -0.68887158301E+02  0.81784586037E+02  0.10570000000E+00 0.  1.
<mgrwt>
<rscale>  0 0.88188177E+02</rscale>
<asrwt>0</asrwt>
<pdfrwt beam="1">  1        1 0.20305148E-02 0.88188177E+02</pdfrwt>
<pdfrwt beam="2">  1       -1 0.22663546E-01 0.88188177E+02</pdfrwt>
<totfact> 0.81876387E+04</totfact>
</mgrwt>
</event>
<event>
 5   1  0.1388354E+00  0.9389942E+02  0.7818608E-02  0.1293674E+00
         -1   -1    0    0    0  501 -0.00000000000E+00  0.00000000000E+00  0.14065704308E+02  0.14065705083E+02  0.46700000000E-02 0.  1.
          1   -1    0    0  501    0  0.00000000000E+00 -0.00000000000E+00 -0.15671274695E+03  0.15671274702E+03  0.46700000000E-02 0. -1.
         23    2    1    2    0    0  0.00000000000E+00  0.00000000000E+00 -0.14264704264E+03  0.17077845210E+03  0.93899419209E+02 0.  0.
        -13    1    3    3    0    0  0.12689243035E+02 -0.33773977591E+02 -0.12596337873E+03  0.13102855569E+03  0.10570000000E+00 0. -1.
         13    1    3    3    0    0 -0.12689243035E+02  0.33773977591E+02 -0.16683663910E+02  0.39749896416E+02  0.10570000000E+00 0.  1.
<mgrwt>
<rscale>  0 0.93899419E+02</rscale>
<asrwt>0</asrwt>
<pdfrwt beam="2">  1        1 0.24109652E-01 0.93899419E+02</pdfrwt>
<pdfrwt beam="1">  1       -1 0.21639547E-02 0.93899419E+02</pdfrwt>
<totfact> 0.10440412E+05</totfact>
</mgrwt>
</event>
<event>
 5   1  0.1388354E+00  0.9040324E+02  0.7818608E-02  0.1301878E+00
          1   -1    0    0  501    0  0.00000000000E+00  0.00000000000E+00  0.66134861861E+02  0.66134862026E+02  0.46700000000E-02 0. -1.
         -1   -1    0    0    0  501 -0.00000000000E+00 -0.00000000000E+00 -0.30894238876E+02  0.30894239229E+02  0.46700000000E-02 0.  1.
         23    2    1    2    0    0  0.00000000000E+00  0.00000000000E+00  0.35240622985E+02  0.97029101254E+02  0.90403235461E+02 0.  0.
        -13    1    3    3    0    0  0.33785563668E+02 -0.36375672746E+01  0.49612325813E+02  0.60133935952E+02  0.10570000000E+00 0. -1.
         13    1    3    3    0    0 -0.33785563668E+02  0.36375672746E+01 -0.14371702828E+02  0.36895165302E+02  0.10570000000E+00 0.  1.
<mgrwt>
<rscale>  0 0.90403235E+02</rscale>
<asrwt>0</asrwt>
<pdfrwt beam="1">  1        1 0.10174594E-01 0.90403235E+02</pdfrwt>
<pdfrwt beam="2">  1       -1 0.47529599E-02 0.90403235E+02</pdfrwt>
<totfact> 0.10013698E+05</totfact>
</mgrwt>
</event>
<event>
 5   1  0.1388354E+00  0.9372759E+02  0.7818608E-02  0.1294068E+00
          1   -1    0    0  501    0  0.00000000000E+00  0.00000000000E+00  0.22162791703E+02  0.22162792195E+02  0.46700000000E-02 0. -1.
         -1   -1    0    0    0  501 -0.00000000000E+00 -0.00000000000E+00 -0.99094712481E+02  0.99094712591E+02  0.46700000000E-02 0.  1.
         23    2    1    2    0    0  0.00000000000E+00  0.00000000000E+00 -0.76931920778E+02  0.12125750479E+03  0.93727594828E+02 0.  0.
        -13    1    3    3    0    0 -0.21162136545E+02  0.25977930617E+02 -0.80854192204E+02  0.87521999930E+02  0.10570000000E+00 0.  1.
         13    1    3    3    0    0  0.21162136545E+02 -0.25977930617E+02  0.39222714257E+01  0.33735504856E+02  0.10570000000E+00 0. -1.
<mgrwt>
<rscale>  0 0.93727595E+02</rscale>
<asrwt>0</asrwt>
<pdfrwt beam="1">  1        1 0.34096604E-02 0.93727595E+02</pdfrwt>
<pdfrwt beam="2">  1       -1 0.15245340E-01 0.93727595E+02</pdfrwt>
<totfact> 0.75911366E+04</totfact>
</mgrwt>
</event>
<event>
 5   1  0.1388354E+00  0.9228488E+02  0.7818608E-02  0.1297411E+00
          1   -1    0    0  501    0  0.00000000000E+00  0.00000000000E+00  0.49983724675E+02  0.49983724894E+02  0.46700000000E-02 0. -1.
         -1   -1    0    0    0  501 -0.00000000000E+00 -0.00000000000E+00 -0.42596363935E+02  0.42596364191E+02  0.46700000000E-02 0.  1.
         23    2    1    2    0    0  0.00000000000E+00  0.00000000000E+00  0.73873607403E+01  0.92580089085E+02  0.92284883899E+02 0.  0.
        -13    1    3    3    0    0 -0.31272125095E+02 -0.33759231744E+02  0.29429542698E+00  0.46018793098E+02  0.10570000000E+00 0. -1.
         13    1    3    3    0    0  0.31272125095E+02  0.33759231744E+02  0.70930653133E+01  0.46561295987E+02  0.10570000000E+00 0.  1.
<mgrwt>
<rscale>  0 0.92284884E+02</rscale>
<asrwt>0</asrwt>
<pdfrwt beam="1">  1        1 0.76898038E-02 0.92284884E+02</pdfrwt>
<pdfrwt beam="2">  1       -1 0.65532868E-02 0.92284884E+02</pdfrwt>
<totfact> 0.90640411E+04</totfact>
</mgrwt>
</event>
<event>
 5   1  0.1388354E+00  0.9025157E+02  0.7818608E-02  0.1302244E+00
          1   -1    0    0  501    0  0.00000000000E+00  0.00000000000E+00  0.44620223349E+02  0.44620223593E+02  0.46700000000E-02 0. -1.
         -1   -1    0    0    0  501 -0.00000000000E+00 -0.00000000000E+00 -0.45637073651E+02  0.45637073890E+02  0.46700000000E-02 0.  1.
         23    2    1    2    0    0  0.00000000000E+00  0.00000000000E+00 -0.10168503021E+01  0.90257297484E+02  0.90251569319E+02 0.  0.
        -13    1    3    3    0    0  0.64409885507E+01  0.37689450908E+02 -0.24475426083E+02  0.45398664052E+02  0.10570000000E+00 0.  1.
         13    1    3    3    0    0 -0.64409885507E+01 -0.37689450908E+02  0.23458575781E+02  0.44858633432E+02  0.10570000000E+00 0. -1.
<mgrwt>
<rscale>  0 0.90251569E+02</rscale>
<asrwt>0</asrwt>
<pdfrwt beam="1">  1        1 0.68646498E-02 0.90251569E+02</pdfrwt>
<pdfrwt beam="2">  1       -1 0.70210883E-02 0.90251569E+02</pdfrwt>
<totfact> 0.94849792E+04</totfact>
</mgrwt>
</event>
<event>
 5   1  0.1388354E+00  0.9101119E+02  0.7818608E-02  0.1300421E+00
         -1   -1    0    0    0  501 -0.00000000000E+00  0.00000000000E+00  0.29795583427E+03  0.29795583431E+03  0.46700000000E-02 0.  1.
          1   -1    0    0  501    0  0.00000000000E+00 -0.00000000000E+00 -0.69498862246E+01  0.69498877936E+01  0.46700000000E-02 0. -1.
         23    2    1    2    0    0  0.00000000000E+00  0.00000000000E+00  0.29100594805E+03  0.30490572210E+03  0.91011194761E+02 0.  0.
        -13    1    3    3    0    0  0.33773131054E+02  0.30490023552E+02  0.14317632560E+03  0.15023227783E+03  0.10570000000E+00 0.  1.
         13    1    3    3    0    0 -0.33773131054E+02 -0.30490023552E+02  0.14782962245E+03  0.15467344427E+03  0.10570000000E+00 0. -1.
<mgrwt>
<rscale>  0 0.91011195E+02</rscale>
<asrwt>0</asrwt>
<pdfrwt beam="2">  1        1 0.10692129E-02 0.91011195E+02</pdfrwt>
<pdfrwt beam="1">  1       -1 0.45839378E-01 0.91011195E+02</pdfrwt>
<totfact> 0.61038909E+04</totfact>
</mgrwt>
</event>
<event>
 5   1  0.1388354E+00  0.9015515E+02  0.7818608E-02  0.1302476E+00
          1   -1    0    0  501    0  0.00000000000E+00  0.00000000000E+00  0.43698020892E+02  0.43698021142E+02  0.46700000000E-02 0. -1.
         -1   -1    0    0    0  501 -0.00000000000E+00 -0.00000000000E+00 -0.46500677398E+02  0.46500677633E+02  0.46700000000E-02 0.  1.
         23    2    1    2    0    0  0.00000000000E+00  0.00000000000E+00 -0.28026565059E+01  0.90198698775E+02  0.90155146149E+02 0.  0.
        -13    1    3    3    0    0 -0.39046801971E+02  0.14350948043E+02 -0.18769840478E+02  0.45639024288E+02  0.10570000000E+00 0.  1.
         13    1    3    3    0    0  0.39046801971E+02 -0.14350948043E+02  0.15967183973E+02  0.44559674487E+02  0.10570000000E+00 0. -1.
<mgrwt>
<rscale>  0 0.90155146E+02</rscale>
<asrwt>0</asrwt>
<pdfrwt beam="1">  1        1 0.67227725E-02 0.90155146E+02</pdfrwt>
<pdfrwt beam="2">  1       -1 0.71539504E-02 0.90155146E+02</pdfrwt>
<totfact> 0.94838483E+04</totfact>
</mgrwt>
</event>
<event>
 5   1  0.1388354E+00  0.8943400E+02  0.7818608E-02  0.1304228E+00
          1   -1    0    0  501    0  0.00000000000E+00  0.00000000000E+00  0.36400827267E+03  0.36400827270E+03  0.46700000000E-02 0. -1.
         -1   -1    0    0    0  501 -0.00000000000E+00 -0.00000000000E+00 -0.54933090279E+01  0.54933110129E+01  0.46700000000E-02 0.  1.
         23    2    1    2    0    0  0.00000000000E+00  0.00000000000E+00  0.35851496364E+03  0.36950158371E+03  0.89434004780E+02 0.  0.
        -13    1    3    3    0    0 -0.94389707913E+01  0.43687335840E+02  0.18498478969E+03  0.19030780612E+03  0.10570000000E+00 0. -1.
         13    1    3    3    0    0  0.94389707913E+01 -0.43687335840E+02  0.17353017395E+03  0.17919377759E+03  0.10570000000E+00 0.  1.
<mgrwt>
<rscale>  0 0.89434005E+02</rscale>
<asrwt>0</asrwt>
<pdfrwt beam="1">  1        1 0.56001291E-01 0.89434005E+02</pdfrwt>
<pdfrwt beam="2">  1       -1 0.84512435E-03 0.89434005E+02</pdfrwt>
<totfact> 0.13972617E+05</totfact>
</mgrwt>
</event>
<event>
 5   1  0.1388354E+00  0.9102016E+02  0.7818608E-02  0.1300400E+00
         -1   -1    0    0    0  501 -0.00000000000E+00  0.00000000000E+00  0.19998259968E+02  0.19998260513E+02  0.46700000000E-02 0.  1.
          1   -1    0    0  501    0  0.00000000000E+00 -0.00000000000E+00 -0.10356738105E+03  0.10356738115E+03  0.46700000000E-02 0. -1.
         23    2    1    2    0    0  0.00000000000E+00  0.00000000000E+00 -0.83569121081E+02  0.12356564167E+03  0.91020161515E+02 0.  0.
        -13    1    3    3    0    0  0.32012598043E+02 -0.28826310824E+02 -0.21860558675E+02  0.48307947868E+02  0.10570000000E+00 0.  1.
         13    1    3    3    0    0 -0.32012598043E+02  0.28826310824E+02 -0.61708562406E+02  0.75257693798E+02  0.10570000000E+00 0. -1.
<mgrwt>
<rscale>  0 0.91020162E+02</rscale>
<asrwt>0</asrwt>
<pdfrwt beam="2">  1        1 0.15933443E-01 0.91020162E+02</pdfrwt>
<pdfrwt beam="1">  1       -1 0.30766555E-02 0.91020162E+02</pdfrwt>
<totfact> 0.10555847E+05</totfact>
</mgrwt>
</event>
<event>
 5   1  0.1388354E+00  0.9114185E+02  0.7818608E-02  0.1300110E+00
          1   -1    0    0  501    0  0.00000000000E+00  0.00000000000E+00  0.71680512197E+02  0.71680512349E+02  0.46700000000E-02 0. -1.
         -1   -1    0    0    0  501 -0.00000000000E+00 -0.00000000000E+00 -0.28971741828E+02  0.28971742204E+02  0.46700000000E-02 0.  1.
         23    2    1    2    0    0  0.00000000000E+00  0.00000000000E+00  0.42708770370E+02  0.10065225455E+03  0.91141852517E+02 0.  0.
        -13    1    3    3    0    0  0.43686447502E+02 -0.33078988169E+01  0.35202840643E+02  0.56202304683E+02  0.10570000000E+00 0. -1.
         13    1    3    3    0    0 -0.43686447502E+02  0.33078988169E+01  0.75059297268E+01  0.44449949870E+02  0.10570000000E+00 0.  1.
<mgrwt>
<rscale>  0 0.91141853E+02</rscale>
<asrwt>0</asrwt>
<pdfrwt beam="1">  1        1 0.11027771E-01 0.91141853E+02</pdfrwt>
<pdfrwt beam="2">  1       -1 0.44571911E-02 0.91141853E+02</pdfrwt>
<totfact> 0.99134485E+04</totfact>
</mgrwt>
</event>
<event>
 5   1  0.1388354E+00  0.9152422E+02  0.7818608E-02  0.1299202E+00
         -1   -1    0    0    0  501 -0.00000000000E+00  0.00000000000E+00  0.19118969487E+02  0.19118970057E+02  0.46700000000E-02 0.  1.
          1   -1    0    0  501    0  0.00000000000E+00 -0.00000000000E+00 -0.10953365973E+03  0.10953365983E+03  0.46700000000E-02 0. -1.
         23    2    1    2    0    0  0.00000000000E+00  0.00000000000E+00 -0.90414690244E+02  0.12865262989E+03  0.91524220648E+02 0.  0.
        -13    1    3    3    0    0  0.10327447300E+02 -0.44520375008E+02 -0.41928910561E+02  0.62022291734E+02  0.10570000000E+00 0.  1.
         13    1    3    3    0    0 -0.10327447300E+02  0.44520375008E+02 -0.48485779684E+02  0.66630338155E+02  0.10570000000E+00 0. -1.
<mgrwt>
<rscale>  0 0.91524221E+02</rscale>
<asrwt>0</asrwt>
<pdfrwt beam="2">  1        1 0.16851332E-01 0.91524221E+02</pdfrwt>
<pdfrwt beam="1">  1       -1 0.29413800E-02 0.91524221E+02</pdfrwt>
<totfact> 0.10497084E+05</totfact>
</mgrwt>
</event>
<event>
 5   1  0.1388354E+00  0.9704756E+02  0.7818608E-02  0.1286630E+00
         -1   -1    0    0    0  501 -0.00000000000E+00  0.00000000000E+00  0.82402636740E+02  0.82402636872E+02  0.46700000000E-02 0.  1.
          1   -1    0    0  501    0  0.00000000000E+00 -0.00000000000E+00 -0.28573806816E+02  0.28573807197E+02  0.46700000000E-02 0. -1.
         23    2    1    2    0    0  0.00000000000E+00  0.00000000000E+00  0.53828829924E+02  0.11097644407E+03  0.97047556421E+02 0.  0.
        -13    1    3    3    0    0 -0.19024975164E+02  0.44508959381E+02  0.30800509780E+02  0.57373162022E+02  0.10570000000E+00 0.  1.
         13    1    3    3    0    0  0.19024975164E+02 -0.44508959381E+02  0.23028320144E+02  0.53603282048E+02  0.10570000000E+00 0. -1.
<mgrwt>
<rscale>  0 0.97047556E+02</rscale>
<asrwt>0</asrwt>
<pdfrwt beam="2">  1        1 0.43959703E-02 0.97047556E+02</pdfrwt>
<pdfrwt beam="1">  1       -1 0.12677329E-01 0.97047556E+02</pdfrwt>
<totfact> 0.71764859E+04</totfact>
</mgrwt>
</event>
<event>
 5   1  0.1388354E+00  0.9010645E+02  0.7818608E-02  0.1302594E+00
          1   -1    0    0  501    0  0.00000000000E+00  0.00000000000E+00  0.68215194743E+02  0.68215194903E+02  0.46700000000E-02 0. -1.
         -1   -1    0    0    0  501 -0.00000000000E+00 -0.00000000000E+00 -0.29755734214E+02  0.29755734580E+02  0.46700000000E-02 0.  1.
         23    2    1    2    0    0  0.00000000000E+00  0.00000000000E+00  0.38459460529E+02  0.97970929483E+02  0.90106453263E+02 0.  0.
        -13    1    3    3    0    0 -0.24333423717E+02 -0.58410498202E+00 -0.21991303436E+02  0.32803738929E+02  0.10570000000E+00 0.  1.
         13    1    3    3    0    0  0.24333423717E+02  0.58410498202E+00  0.60450763965E+02  0.65167190555E+02  0.10570000000E+00 0. -1.
<mgrwt>
<rscale>  0 0.90106453E+02</rscale>
<asrwt>0</asrwt>
<pdfrwt beam="1">  1        1 0.10494645E-01 0.90106453E+02</pdfrwt>
<pdfrwt beam="2">  1       -1 0.45778054E-02 0.90106453E+02</pdfrwt>
<totfact> 0.10152636E+05</totfact>
</mgrwt>
</event>
<event>
 5   1  0.1388354E+00  0.8975687E+02  0.7818608E-02  0.1303442E+00
         -1   -1    0    0    0  501 -0.00000000000E+00  0.00000000000E+00  0.12995180174E+02  0.12995181013E+02  0.46700000000E-02 0.  1.
          1   -1    0    0  501    0  0.00000000000E+00 -0.00000000000E+00 -0.15498623098E+03  0.15498623105E+03  0.46700000000E-02 0. -1.
         23    2    1    2    0    0  0.00000000000E+00  0.00000000000E+00 -0.14199105080E+03  0.16798141206E+03  0.89756873216E+02 0.  0.
        -13    1    3    3    0    0  0.27812849700E+02  0.24453135034E+02 -0.11843586772E+03  0.12409100031E+03  0.10570000000E+00 0. -1.
         13    1    3    3    0    0 -0.27812849700E+02 -0.24453135034E+02 -0.23555183080E+02  0.43890411753E+02  0.10570000000E+00 0.  1.
<mgrwt>
<rscale>  0 0.89756873E+02</rscale>
<asrwt>0</asrwt>
<pdfrwt beam="2">  1        1 0.23844034E-01 0.89756873E+02</pdfrwt>
<pdfrwt beam="1">  1       -1 0.19992587E-02 0.89756873E+02</pdfrwt>
<totfact> 0.11767920E+05</totfact>
</mgrwt>
</event>
<event>
 5   1  0.1388354E+00  0.9184571E+02  0.7818608E-02  0.1298443E+00
          1   -1    0    0  501    0  0.00000000000E+00  0.00000000000E+00  0.85261998722E+02  0.85261998850E+02  0.46700000000E-02 0. -1.
         -1   -1    0    0    0  501 -0.00000000000E+00 -0.00000000000E+00 -0.24734451912E+02  0.24734452353E+02  0.46700000000E-02 0.  1.
         23    2    1    2    0    0  0.00000000000E+00  0.00000000000E+00  0.60527546811E+02  0.10999645120E+03  0.91845714948E+02 0.  0.
        -13    1    3    3    0    0 -0.66804407753E+01  0.44873716545E+02  0.21743053286E+02  0.50309544464E+02  0.10570000000E+00 0.  1.
         13    1    3    3    0    0  0.66804407753E+01 -0.44873716545E+02  0.38784493525E+02  0.59686906738E+02  0.10570000000E+00 0. -1.
<mgrwt>
<rscale>  0 0.91845715E+02</rscale>
<asrwt>0</asrwt>
<pdfrwt beam="1">  1        1 0.13117231E-01 0.91845715E+02</pdfrwt>
<pdfrwt beam="2">  1       -1 0.38053003E-02 0.91845715E+02</pdfrwt>
<totfact> 0.99749214E+04</totfact>
</mgrwt>
</event>
<event>
 5   1  0.1388354E+00  0.8776037E+02  0.7818608E-02  0.1308368E+00
         -1   -1    0    0    0  501 -0.00000000000E+00  0.00000000000E+00  0.16141795850E+02  0.16141796526E+02  0.46700000000E-02 0.  1.
          1   -1    0    0  501    0  0.00000000000E+00 -0.00000000000E+00 -0.11928477308E+03  0.11928477317E+03  0.46700000000E-02 0. -1.
         23    2    1    2    0    0  0.00000000000E+00  0.00000000000E+00 -0.10314297723E+03  0.13542656970E+03  0.87760367070E+02 0.  0.
        -13    1    3    3    0    0 -0.43642692916E+02  0.39844634780E+01 -0.48156040760E+02  0.65112026757E+02  0.10570000000E+00 0.  1.
         13    1    3    3    0    0  0.43642692916E+02 -0.39844634780E+01 -0.54986936472E+02  0.70314542942E+02  0.10570000000E+00 0. -1.
<mgrwt>
<rscale>  0 0.87760367E+02</rscale>
<asrwt>0</asrwt>
<pdfrwt beam="2">  1        1 0.18351503E-01 0.87760367E+02</pdfrwt>
<pdfrwt beam="1">  1       -1 0.24833534E-02 0.87760367E+02</pdfrwt>
<totfact> 0.11933595E+05</totfact>
</mgrwt>
</event>
<event>
 5   1  0.1388354E+00  0.9131618E+02  0.7818608E-02  0.1299695E+00
          1   -1    0    0  501    0  0.00000000000E+00  0.00000000000E+00  0.27395298637E+03  0.27395298641E+03  0.46700000000E-02 0. -1.
         -1   -1    0    0    0  501 -0.00000000000E+00 -0.00000000000E+00 -0.76095577872E+01  0.76095592202E+01  0.46700000000E-02 0.  1.
         23    2    1    2    0    0  0.00000000000E+00  0.00000000000E+00  0.26634342858E+03  0.28156254563E+03  0.91316182313E+02 0.  0.
        -13    1    3    3    0    0  0.75352460469E+01  0.42305094405E+02  0.18075469816E+03  0.18579228462E+03  0.10570000000E+00 0. -1.
         13    1    3    3    0    0 -0.75352460469E+01 -0.42305094405E+02  0.85588730417E+02  0.95770261003E+02  0.10570000000E+00 0.  1.
<mgrwt>
<rscale>  0 0.91316182E+02</rscale>
<asrwt>0</asrwt>
<pdfrwt beam="1">  1        1 0.42146609E-01 0.91316182E+02</pdfrwt>
<pdfrwt beam="2">  1       -1 0.11707014E-02 0.91316182E+02</pdfrwt>
<totfact> 0.12538593E+05</totfact>
</mgrwt>
</event>
<event>
 5   1  0.1388354E+00  0.9109393E+02  0.7818608E-02  0.1300224E+00
         -1   -1    0    0    0  501 -0.00000000000E+00  0.00000000000E+00  0.18656585902E+02  0.18656586486E+02  0.46700000000E-02 0. -1.
          1   -1    0    0  501    0  0.00000000000E+00 -0.00000000000E+00 -0.11119538108E+03  0.11119538118E+03  0.46700000000E-02 0.  1.
         23    2    1    2    0    0  0.00000000000E+00  0.00000000000E+00 -0.92538795183E+02  0.12985196767E+03  0.91093934451E+02 0.  0.
        -13    1    3    3    0    0  0.19829359360E+02  0.29455192933E+02 -0.56070846775E+01  0.35948052164E+02  0.10570000000E+00 0. -1.
         13    1    3    3    0    0 -0.19829359360E+02 -0.29455192933E+02 -0.86931710505E+02  0.93903915505E+02  0.10570000000E+00 0.  1.
<mgrwt>
<rscale>  0 0.91093934E+02</rscale>
<asrwt>0</asrwt>
<pdfrwt beam="2">  1        1 0.17106981E-01 0.91093934E+02</pdfrwt>
<pdfrwt beam="1">  1       -1 0.28702441E-02 0.91093934E+02</pdfrwt>
<totfact> 0.10659865E+05</totfact>
</mgrwt>
</event>
<event>
 5   1  0.1388354E+00  0.8989013E+02  0.7818608E-02  0.1303118E+00
          1   -1    0    0  501    0  0.00000000000E+00  0.00000000000E+00  0.71858700161E+02  0.71858700312E+02  0.46700000000E-02 0. -1.
         -1   -1    0    0    0  501 -0.00000000000E+00 -0.00000000000E+00 -0.28111538743E+02  0.28111539131E+02  0.46700000000E-02 0.  1.
         23    2    1    2    0    0  0.00000000000E+00  0.00000000000E+00  0.43747161417E+02  0.99970239443E+02  0.89890125388E+02 0.  0.
        -13    1    3    3    0    0  0.32246586854E+02 -0.88400357049E+01 -0.11528705448E+02  0.35368217608E+02  0.10570000000E+00 0.  1.
         13    1    3    3    0    0 -0.32246586854E+02  0.88400357049E+01  0.55275866865E+02  0.64602021835E+02  0.10570000000E+00 0. -1.
<mgrwt>
<rscale>  0 0.89890125E+02</rscale>
<asrwt>0</asrwt>
<pdfrwt beam="1">  1        1 0.11055185E-01 0.89890125E+02</pdfrwt>
<pdfrwt beam="2">  1       -1 0.43248521E-02 0.89890125E+02</pdfrwt>
<totfact> 0.10301706E+05</totfact>
</mgrwt>
</event>
<event>
 5   1  0.1388354E+00  0.9297873E+02  0.7818608E-02  0.1295794E+00
         -1   -1    0    0    0  501 -0.00000000000E+00  0.00000000000E+00  0.72108633312E+01  0.72108648435E+01  0.46700000000E-02 0.  1.
          1   -1    0    0  501    0  0.00000000000E+00 -0.00000000000E+00 -0.29972291173E+03  0.29972291177E+03  0.46700000000E-02 0. -1.
         23    2    1    2    0    0  0.00000000000E+00  0.00000000000E+00 -0.29251204840E+03  0.30693377661E+03  0.92978732868E+02 0.  0.
        -13    1    3    3    0    0  0.20918768703E+02 -0.34058336712E+02 -0.67880720719E+02  0.78774162017E+02  0.10570000000E+00 0.  1.
         13    1    3    3    0    0 -0.20918768703E+02  0.34058336712E+02 -0.22463132768E+03  0.22815961460E+03  0.10570000000E+00 0. -1.
<mgrwt>
<rscale>  0 0.92978733E+02</rscale>
<asrwt>0</asrwt>
<pdfrwt beam="2">  1        1 0.46111208E-01 0.92978733E+02</pdfrwt>
<pdfrwt beam="1">  1       -1 0.11093639E-02 0.92978733E+02</pdfrwt>
<totfact> 0.12158046E+05</totfact>
</mgrwt>
</event>
<event>
 5   1  0.1388354E+00  0.9625025E+02  0.7818608E-02  0.1288385E+00
         -1   -1    0    0    0  501 -0.00000000000E+00  0.00000000000E+00  0.77590659608E+01  0.77590673662E+01  0.46700000000E-02 0.  1.
          1   -1    0    0  501    0  0.00000000000E+00 -0.00000000000E+00 -0.29849310234E+03  0.29849310237E+03  0.46700000000E-02 0. -1.
         23    2    1    2    0    0  0.00000000000E+00  0.00000000000E+00 -0.29073403638E+03  0.30625216974E+03  0.96250254871E+02 0.  0.
        -13    1    3    3    0    0  0.22265289359E+02 -0.40489804216E+02 -0.18815637685E+03  0.19374725979E+03  0.10570000000E+00 0.  1.
         13    1    3    3    0    0 -0.22265289359E+02  0.40489804216E+02 -0.10257765953E+03  0.11250490995E+03  0.10570000000E+00 0. -1.
<mgrwt>
<rscale>  0 0.96250255E+02</rscale>
<asrwt>0</asrwt>
<pdfrwt beam="2">  1        1 0.45922007E-01 0.96250255E+02</pdfrwt>
<pdfrwt beam="1">  1       -1 0.11937028E-02 0.96250255E+02</pdfrwt>
<totfact> 0.11074662E+05</totfact>
</mgrwt>
</event>
<event>
 5   1  0.1388354E+00  0.6301748E+02  0.7818608E-02  0.1385588E+00
          1   -1    0    0  501    0  0.00000000000E+00  0.00000000000E+00  0.15428057239E+02  0.15428057945E+02  0.46700000000E-02 0. -1.
         -1   -1    0    0    0  501 -0.00000000000E+00 -0.00000000000E+00 -0.64350340519E+02  0.64350340688E+02  0.46700000000E-02 0.  1.
         23    2    1    2    0    0  0.00000000000E+00  0.00000000000E+00 -0.48922283280E+02  0.79778398634E+02  0.63017482393E+02 0.  0.
        -13    1    3    3    0    0 -0.30723488940E+02  0.62175749526E+01 -0.28504053722E+02  0.42368422936E+02  0.10570000000E+00 0.  1.
         13    1    3    3    0    0  0.30723488940E+02 -0.62175749526E+01 -0.20418229557E+02  0.37409975698E+02  0.10570000000E+00 0. -1.
<mgrwt>
<rscale>  0 0.63017482E+02</rscale>
<asrwt>0</asrwt>
<pdfrwt beam="1">  1        1 0.23735474E-02 0.63017482E+02</pdfrwt>
<pdfrwt beam="2">  1       -1 0.99000523E-02 0.63017482E+02</pdfrwt>
<totfact> 0.22315034E+05</totfact>
</mgrwt>
</event>
<event>
 5   1  0.1388354E+00  0.8301414E+02  0.7818608E-02  0.1320709E+00
          1   -1    0    0  501    0  0.00000000000E+00  0.00000000000E+00  0.22421927264E+03  0.22421927269E+03  0.46700000000E-02 0. -1.
         -1   -1    0    0    0  501 -0.00000000000E+00 -0.00000000000E+00 -0.76837134456E+01  0.76837148648E+01  0.46700000000E-02 0.  1.
         23    2    1    2    0    0  0.00000000000E+00  0.00000000000E+00  0.21653555920E+03  0.23190298756E+03  0.83014138800E+02 0.  0.
        -13    1    3    3    0    0  0.40674336111E+02  0.58203676533E+00  0.13131830368E+03  0.13747453742E+03  0.10570000000E+00 0.  1.
         13    1    3    3    0    0 -0.40674336111E+02 -0.58203676533E+00  0.85217255521E+02  0.94428450140E+02  0.10570000000E+00 0. -1.
<mgrwt>
<rscale>  0 0.83014139E+02</rscale>
<asrwt>0</asrwt>
<pdfrwt beam="1">  1        1 0.34495267E-01 0.83014139E+02</pdfrwt>
<pdfrwt beam="2">  1       -1 0.11821101E-02 0.83014139E+02</pdfrwt>
<totfact> 0.15539912E+05</totfact>
</mgrwt>
</event>
<event>
 5   1  0.1388354E+00  0.9083305E+02  0.7818608E-02  0.1300847E+00
         -1   -1    0    0    0  501 -0.00000000000E+00  0.00000000000E+00  0.26489861291E+02  0.26489861703E+02  0.46700000000E-02 0.  1.
          1   -1    0    0  501    0  0.00000000000E+00 -0.00000000000E+00 -0.77866037877E+02  0.77866038017E+02  0.46700000000E-02 0. -1.
         23    2    1    2    0    0  0.00000000000E+00  0.00000000000E+00 -0.51376176586E+02  0.10435589972E+03  0.90833046221E+02 0.  0.
        -13    1    3    3    0    0  0.11334617200E+02  0.12514633890E+02 -0.74125980508E+02  0.76024744441E+02  0.10570000000E+00 0. -1.
         13    1    3    3    0    0 -0.11334617200E+02 -0.12514633890E+02  0.22749803922E+02  0.28331155279E+02  0.10570000000E+00 0.  1.
<mgrwt>
<rscale>  0 0.90833046E+02</rscale>
<asrwt>0</asrwt>
<pdfrwt beam="2">  1        1 0.11979390E-01 0.90833046E+02</pdfrwt>
<pdfrwt beam="1">  1       -1 0.40753634E-02 0.90833046E+02</pdfrwt>
<totfact> 0.10136241E+05</totfact>
</mgrwt>
</event>
<event>
 5   1  0.1388354E+00  0.9184978E+02  0.7818608E-02  0.1298433E+00
         -1   -1    0    0    0  501 -0.00000000000E+00  0.00000000000E+00  0.66985120874E+02  0.66985121037E+02  0.46700000000E-02 0.  1.
          1   -1    0    0  501    0  0.00000000000E+00 -0.00000000000E+00 -0.31486030328E+02  0.31486030674E+02  0.46700000000E-02 0. -1.
         23    2    1    2    0    0  0.00000000000E+00  0.00000000000E+00  0.35499090546E+02  0.98471151711E+02  0.91849781109E+02 0.  0.
        -13    1    3    3    0    0 -0.22110446085E+02  0.97157586089E+01 -0.24128081375E+02  0.34138589232E+02  0.10570000000E+00 0. -1.
         13    1    3    3    0    0  0.22110446085E+02 -0.97157586089E+01  0.59627171920E+02  0.64332562479E+02  0.10570000000E+00 0.  1.
<mgrwt>
<rscale>  0 0.91849781E+02</rscale>
<asrwt>0</asrwt>
<pdfrwt beam="2">  1        1 0.48440047E-02 0.91849781E+02</pdfrwt>
<pdfrwt beam="1">  1       -1 0.10305403E-01 0.91849781E+02</pdfrwt>
<totfact> 0.85535922E+04</totfact>
</mgrwt>
</event>
<event>
 5   1  0.1388354E+00  0.9149820E+02  0.7818608E-02  0.1299264E+00
         -1   -1    0    0    0  501 -0.00000000000E+00  0.00000000000E+00  0.53153815718E+03  0.53153815720E+03  0.46700000000E-02 0.  1.
          1   -1    0    0  501    0  0.00000000000E+00 -0.00000000000E+00 -0.39375897471E+01  0.39375925164E+01  0.46700000000E-02 0. -1.
         23    2    1    2    0    0  0.00000000000E+00  0.00000000000E+00  0.52760056744E+03  0.53547574972E+03  0.91498195498E+02 0.  0.
        -13    1    3    3    0    0 -0.15556166469E+02  0.42979604774E+02  0.25250058102E+03  0.25660435563E+03  0.10570000000E+00 0. -1.
         13    1    3    3    0    0  0.15556166469E+02 -0.42979604774E+02  0.27509998642E+03  0.27887139409E+03  0.10570000000E+00 0.  1.
<mgrwt>
<rscale>  0 0.91498195E+02</rscale>
<asrwt>0</asrwt>
<pdfrwt beam="2">  1        1 0.60578376E-03 0.91498195E+02</pdfrwt>
<pdfrwt beam="1">  1       -1 0.81775033E-01 0.91498195E+02</pdfrwt>
<totfact> 0.44835625E+04</totfact>
</mgrwt>
</event>
<event>
 5   1  0.1388354E+00  0.9097250E+02  0.7818608E-02  0.1300514E+00
          1   -1    0    0  501    0  0.00000000000E+00  0.00000000000E+00  0.27024940615E+02  0.27024941018E+02  0.46700000000E-02 0.  1.
         -1   -1    0    0    0  501 -0.00000000000E+00 -0.00000000000E+00 -0.76558867072E+02  0.76558867214E+02  0.46700000000E-02 0. -1.
         23    2    1    2    0    0  0.00000000000E+00  0.00000000000E+00 -0.49533926457E+02  0.10358380823E+03  0.90972498359E+02 0.  0.
        -13    1    3    3    0    0  0.18370242666E+02  0.33932630288E+02  0.26571513609E+01  0.38677652976E+02  0.10570000000E+00 0.  1.
         13    1    3    3    0    0 -0.18370242666E+02 -0.33932630288E+02 -0.52191077818E+02  0.64906155256E+02  0.10570000000E+00 0. -1.
<mgrwt>
<rscale>  0 0.90972498E+02</rscale>
<asrwt>0</asrwt>
<pdfrwt beam="1">  1        1 0.41576832E-02 0.90972498E+02</pdfrwt>
<pdfrwt beam="2">  1       -1 0.11778287E-01 0.90972498E+02</pdfrwt>
<totfact> 0.85768106E+04</totfact>
</mgrwt>
</event>
<event>
 5   1  0.1388354E+00  0.9110493E+02  0.7818608E-02  0.1300198E+00
          1   -1    0    0  501    0  0.00000000000E+00  0.00000000000E+00  0.97303227464E+02  0.97303227577E+02  0.46700000000E-02 0. -1.
         -1   -1    0    0    0  501 -0.00000000000E+00 -0.00000000000E+00 -0.21325365045E+02  0.21325365556E+02  0.46700000000E-02 0.  1.
         23    2    1    2    0    0  0.00000000000E+00  0.00000000000E+00  0.75977862420E+02  0.11862859313E+03  0.91104925942E+02 0.  0.
        -13    1    3    3    0    0  0.42962392167E+02  0.14831428304E+02  0.34022879129E+02  0.56774165630E+02  0.10570000000E+00 0.  1.
         13    1    3    3    0    0 -0.42962392167E+02 -0.14831428304E+02  0.41954983291E+02  0.61854427503E+02  0.10570000000E+00 0. -1.
<mgrwt>
<rscale>  0 0.91104926E+02</rscale>
<asrwt>0</asrwt>
<pdfrwt beam="1">  1        1 0.14969727E-01 0.91104926E+02</pdfrwt>
<pdfrwt beam="2">  1       -1 0.32808254E-02 0.91104926E+02</pdfrwt>
<totfact> 0.10420389E+05</totfact>
</mgrwt>
</event>
<event>
 5   1  0.1388354E+00  0.9041147E+02  0.7818608E-02  0.1301858E+00
         -1   -1    0    0    0  501 -0.00000000000E+00  0.00000000000E+00  0.42005032463E+03  0.42005032466E+03  0.46700000000E-02 0.  1.
          1   -1    0    0  501    0  0.00000000000E+00 -0.00000000000E+00 -0.48650311799E+01  0.48650334213E+01  0.46700000000E-02 0. -1.
         23    2    1    2    0    0  0.00000000000E+00  0.00000000000E+00  0.41518529345E+03  0.42491535808E+03  0.90411468480E+02 0.  0.
        -13    1    3    3    0    0 -0.39423230761E+02  0.20804662508E+02  0.24292626922E+03  0.24698220291E+03  0.10570000000E+00 0.  1.
         13    1    3    3    0    0  0.39423230761E+02 -0.20804662508E+02  0.17225902423E+03  0.17793315516E+03  0.10570000000E+00 0. -1.
<mgrwt>
<rscale>  0 0.90411468E+02</rscale>
<asrwt>0</asrwt>
<pdfrwt beam="2">  1        1 0.74846640E-03 0.90411468E+02</pdfrwt>
<pdfrwt beam="1">  1       -1 0.64623136E-01 0.90411468E+02</pdfrwt>
<totfact> 0.53121156E+04</totfact>
</mgrwt>
</event>
<event>
 5   1  0.1388354E+00  0.8842184E+02  0.7818608E-02  0.1306719E+00
          1   -1    0    0  501    0  0.00000000000E+00  0.00000000000E+00  0.20419561738E+03  0.20419561744E+03  0.46700000000E-02 0. -1.
         -1   -1    0    0    0  501 -0.00000000000E+00 -0.00000000000E+00 -0.95722191965E+01  0.95722203356E+01  0.46700000000E-02 0.  1.
         23    2    1    2    0    0  0.00000000000E+00  0.00000000000E+00  0.19462339819E+03  0.21376783777E+03  0.88421837484E+02 0.  0.
        -13    1    3    3    0    0 -0.43808743428E+01 -0.37786512752E+02  0.15177898635E+03  0.15647327081E+03  0.10570000000E+00 0. -1.
         13    1    3    3    0    0  0.43808743428E+01  0.37786512752E+02  0.42844411834E+02  0.57294566966E+02  0.10570000000E+00 0.  1.
<mgrwt>
<rscale>  0 0.88421837E+02</rscale>
<asrwt>0</asrwt>
<pdfrwt beam="1">  1        1 0.31414709E-01 0.88421837E+02</pdfrwt>
<pdfrwt beam="2">  1       -1 0.14726493E-02 0.88421837E+02</pdfrwt>
<totfact> 0.12905153E+05</totfact>
</mgrwt>
</event>
<event>
 5   1  0.1388354E+00  0.8680360E+02  0.7818608E-02  0.1310782E+00
         -1   -1    0    0    0  501 -0.00000000000E+00  0.00000000000E+00  0.89852914486E+02  0.89852914608E+02  0.46700000000E-02 0.  1.
          1   -1    0    0  501    0  0.00000000000E+00 -0.00000000000E+00 -0.20964441668E+02  0.20964442188E+02  0.46700000000E-02 0. -1.
         23    2    1    2    0    0  0.00000000000E+00  0.00000000000E+00  0.68888472819E+02  0.11081735680E+03  0.86803599464E+02 0.  0.
        -13    1    3    3    0    0  0.13205020687E+02  0.66772227036E+01  0.86533017634E+02  0.87789134793E+02  0.10570000000E+00 0.  1.
         13    1    3    3    0    0 -0.13205020687E+02 -0.66772227036E+01 -0.17644544815E+02  0.23028222003E+02  0.10570000000E+00 0. -1.
<mgrwt>
<rscale>  0 0.86803599E+02</rscale>
<asrwt>0</asrwt>
<pdfrwt beam="2">  1        1 0.32252989E-02 0.86803599E+02</pdfrwt>
<pdfrwt beam="1">  1       -1 0.13823525E-01 0.86803599E+02</pdfrwt>
<totfact> 0.94110445E+04</totfact>
</mgrwt>
</event>
<event>
 5   1  0.1388354E+00  0.8745943E+02  0.7818608E-02  0.1309123E+00
         -1   -1    0    0    0  501 -0.00000000000E+00  0.00000000000E+00  0.13323141238E+03  0.13323141246E+03  0.46700000000E-02 0.  1.
          1   -1    0    0  501    0  0.00000000000E+00 -0.00000000000E+00 -0.14353131261E+02  0.14353132020E+02  0.46700000000E-02 0. -1.
         23    2    1    2    0    0  0.00000000000E+00  0.00000000000E+00  0.11887828112E+03  0.14758454448E+03  0.87459430870E+02 0.  0.
        -13    1    3    3    0    0 -0.22227287588E+02 -0.25319728718E+02  0.10648080807E+03  0.11168399454E+03  0.10570000000E+00 0.  1.
         13    1    3    3    0    0  0.22227287588E+02  0.25319728718E+02  0.12397473049E+02  0.35900549945E+02  0.10570000000E+00 0. -1.
<mgrwt>
<rscale>  0 0.87459431E+02</rscale>
<asrwt>0</asrwt>
<pdfrwt beam="2">  1        1 0.22081742E-02 0.87459431E+02</pdfrwt>
<pdfrwt beam="1">  1       -1 0.20497139E-01 0.87459431E+02</pdfrwt>
<totfact> 0.85545772E+04</totfact>
</mgrwt>
</event>
<event>
 5   1  0.1388354E+00  0.9044043E+02  0.7818608E-02  0.1301789E+00
         -1   -1    0    0    0  501 -0.00000000000E+00  0.00000000000E+00  0.20330673911E+02  0.20330674448E+02  0.46700000000E-02 0.  1.
          1   -1    0    0  501    0  0.00000000000E+00 -0.00000000000E+00 -0.10058043159E+03  0.10058043170E+03  0.46700000000E-02 0. -1.
         23    2    1    2    0    0  0.00000000000E+00  0.00000000000E+00 -0.80249757676E+02  0.12091110614E+03  0.90440433335E+02 0.  0.
        -13    1    3    3    0    0  0.39632893686E+02 -0.16415407035E+02 -0.21000696439E+02  0.47762666105E+02  0.10570000000E+00 0.  1.
         13    1    3    3    0    0 -0.39632893686E+02  0.16415407035E+02 -0.59249061237E+02  0.73148440039E+02  0.10570000000E+00 0. -1.
<mgrwt>
<rscale>  0 0.90440433E+02</rscale>
<asrwt>0</asrwt>
<pdfrwt beam="2">  1        1 0.15473912E-01 0.90440433E+02</pdfrwt>
<pdfrwt beam="1">  1       -1 0.31277961E-02 0.90440433E+02</pdfrwt>
<totfact> 0.10688640E+05</totfact>
</mgrwt>
</event>
<event>
 5   1  0.1388354E+00  0.9157556E+02  0.7818608E-02  0.1299080E+00
          1   -1    0    0  501    0  0.00000000000E+00  0.00000000000E+00  0.67087703542E+02  0.67087703704E+02  0.46700000000E-02 0. -1.
         -1   -1    0    0    0  501 -0.00000000000E+00 -0.00000000000E+00 -0.31250446769E+02  0.31250447118E+02  0.46700000000E-02 0.  1.
         23    2    1    2    0    0  0.00000000000E+00  0.00000000000E+00  0.35837256773E+02  0.98338150823E+02  0.91575558607E+02 0.  0.
        -13    1    3    3    0    0  0.18024228489E+02  0.15405882695E+02 -0.24144054548E+02  0.33840221287E+02  0.10570000000E+00 0.  1.
         13    1    3    3    0    0 -0.18024228489E+02 -0.15405882695E+02  0.59981311320E+02  0.64497929536E+02  0.10570000000E+00 0. -1.
<mgrwt>
<rscale>  0 0.91575559E+02</rscale>
<asrwt>0</asrwt>
<pdfrwt beam="1">  1        1 0.10321185E-01 0.91575559E+02</pdfrwt>
<pdfrwt beam="2">  1       -1 0.48077611E-02 0.91575559E+02</pdfrwt>
<totfact> 0.96848130E+04</totfact>
</mgrwt>
</event>
<event>
 5   1  0.1388354E+00  0.9221732E+02  0.7818608E-02  0.1297569E+00
         -1   -1    0    0    0  501 -0.00000000000E+00  0.00000000000E+00  0.30998970638E+02  0.30998970990E+02  0.46700000000E-02 0.  1.
          1   -1    0    0  501    0  0.00000000000E+00 -0.00000000000E+00 -0.68583198199E+02  0.68583198358E+02  0.46700000000E-02 0. -1.
         23    2    1    2    0    0  0.00000000000E+00  0.00000000000E+00 -0.37584227562E+02  0.99582169348E+02  0.92217320990E+02 0.  0.
        -13    1    3    3    0    0  0.15748242951E+02 -0.19632053724E+02 -0.60511396219E+02  0.65536744918E+02  0.10570000000E+00 0. -1.
         13    1    3    3    0    0 -0.15748242951E+02  0.19632053724E+02  0.22927168658E+02  0.34045424430E+02  0.10570000000E+00 0.  1.
<mgrwt>
<rscale>  0 0.92217321E+02</rscale>
<asrwt>0</asrwt>
<pdfrwt beam="2">  1        1 0.10551261E-01 0.92217321E+02</pdfrwt>
<pdfrwt beam="1">  1       -1 0.47690725E-02 0.92217321E+02</pdfrwt>
<totfact> 0.95318722E+04</totfact>
</mgrwt>
</event>
<event>
 5   1  0.1388354E+00  0.8740967E+02  0.7818608E-02  0.1309249E+00
          1   -1    0    0  501    0  0.00000000000E+00  0.00000000000E+00  0.23109172230E+03  0.23109172235E+03  0.46700000000E-02 0. -1.
         -1   -1    0    0    0  501 -0.00000000000E+00 -0.00000000000E+00 -0.82656032355E+01  0.82656045547E+01  0.46700000000E-02 0.  1.
         23    2    1    2    0    0  0.00000000000E+00  0.00000000000E+00  0.22282611906E+03  0.23935732690E+03  0.87409671114E+02 0.  0.
        -13    1    3    3    0    0  0.39006203463E+02  0.10836830374E+02  0.15650683630E+03  0.16165803964E+03  0.10570000000E+00 0. -1.
         13    1    3    3    0    0 -0.39006203463E+02 -0.10836830374E+02  0.66319282766E+02  0.77699287257E+02  0.10570000000E+00 0.  1.
<mgrwt>
<rscale>  0 0.87409671E+02</rscale>
<asrwt>0</asrwt>
<pdfrwt beam="1">  1        1 0.35552568E-01 0.87409671E+02</pdfrwt>
<pdfrwt beam="2">  1       -1 0.12716316E-02 0.87409671E+02</pdfrwt>
<totfact> 0.13629474E+05</totfact>
</mgrwt>
</event>
<event>
 5   1  0.1388354E+00  0.9101715E+02  0.7818608E-02  0.1300407E+00
         -1   -1    0    0    0  501 -0.00000000000E+00  0.00000000000E+00  0.66232955108E+02  0.66232955273E+02  0.46700000000E-02 0.  1.
          1   -1    0    0  501    0  0.00000000000E+00 -0.00000000000E+00 -0.31268879937E+02  0.31268880286E+02  0.46700000000E-02 0. -1.
         23    2    1    2    0    0  0.00000000000E+00  0.00000000000E+00  0.34964075171E+02  0.97501835559E+02  0.91017148850E+02 0.  0.
        -13    1    3    3    0    0 -0.15004040257E+02  0.24025995781E+02 -0.20673746900E+02  0.35068285967E+02  0.10570000000E+00 0. -1.
         13    1    3    3    0    0  0.15004040257E+02 -0.24025995781E+02  0.55637822072E+02  0.62433549592E+02  0.10570000000E+00 0.  1.
<mgrwt>
<rscale>  0 0.91017149E+02</rscale>
<asrwt>0</asrwt>
<pdfrwt beam="2">  1        1 0.48105970E-02 0.91017149E+02</pdfrwt>
<pdfrwt beam="1">  1       -1 0.10189685E-01 0.91017149E+02</pdfrwt>
<totfact> 0.87701814E+04</totfact>
</mgrwt>
</event>
<event>
 5   1  0.1388354E+00  0.8997447E+02  0.7818608E-02  0.1302914E+00
          1   -1    0    0  501    0  0.00000000000E+00  0.00000000000E+00  0.37792583980E+02  0.37792584268E+02  0.46700000000E-02 0. -1.
         -1   -1    0    0    0  501 -0.00000000000E+00 -0.00000000000E+00 -0.53551540158E+02  0.53551540361E+02  0.46700000000E-02 0.  1.
         23    2    1    2    0    0  0.00000000000E+00  0.00000000000E+00 -0.15758956178E+02  0.91344124629E+02  0.89974465292E+02 0.  0.
        -13    1    3    3    0    0 -0.25536938944E+02 -0.11887516288E+02 -0.43490384557E+02  0.51815760300E+02  0.10570000000E+00 0.  1.
         13    1    3    3    0    0  0.25536938944E+02  0.11887516288E+02  0.27731428379E+02  0.39528364329E+02  0.10570000000E+00 0. -1.
<mgrwt>
<rscale>  0 0.89974465E+02</rscale>
<asrwt>0</asrwt>
<pdfrwt beam="1">  1        1 0.58142437E-02 0.89974465E+02</pdfrwt>
<pdfrwt beam="2">  1       -1 0.82386985E-02 0.89974465E+02</pdfrwt>
<totfact> 0.93319800E+04</totfact>
</mgrwt>
</event>
<event>
 5   1  0.1388354E+00  0.9187984E+02  0.7818608E-02  0.1298362E+00
          1   -1    0    0  501    0  0.00000000000E+00  0.00000000000E+00  0.79455092354E+02  0.79455092491E+02  0.46700000000E-02 0. -1.
         -1   -1    0    0    0  501 -0.00000000000E+00 -0.00000000000E+00 -0.26561873948E+02  0.26561874358E+02  0.46700000000E-02 0.  1.
         23    2    1    2    0    0  0.00000000000E+00  0.00000000000E+00  0.52893218406E+02  0.10601696685E+03  0.91879838412E+02 0.  0.
        -13    1    3    3    0    0 -0.31799171874E+02 -0.32474340010E+02  0.18732528088E+02  0.49159829861E+02  0.10570000000E+00 0.  1.
         13    1    3    3    0    0  0.31799171874E+02  0.32474340010E+02  0.34160690318E+02  0.56857136988E+02  0.10570000000E+00 0. -1.
<mgrwt>
<rscale>  0 0.91879838E+02</rscale>
<asrwt>0</asrwt>
<pdfrwt beam="1">  1        1 0.12223860E-01 0.91879838E+02</pdfrwt>
<pdfrwt beam="2">  1       -1 0.40864422E-02 0.91879838E+02</pdfrwt>
<totfact> 0.98532654E+04</totfact>
</mgrwt>
</event>
<event>
 5   1  0.1388354E+00  0.9049049E+02  0.7818608E-02  0.1301668E+00
          1   -1    0    0  501    0  0.00000000000E+00  0.00000000000E+00  0.16554899415E+03  0.16554899422E+03  0.46700000000E-02 0. -1.
         -1   -1    0    0    0  501 -0.00000000000E+00 -0.00000000000E+00 -0.12365718806E+02  0.12365719688E+02  0.46700000000E-02 0.  1.
         23    2    1    2    0    0  0.00000000000E+00  0.00000000000E+00  0.15318327534E+03  0.17791471390E+03  0.90490494409E+02 0.  0.
        -13    1    3    3    0    0  0.35527331649E+02  0.18337790332E+02  0.11823687510E+03  0.12481360365E+03  0.10570000000E+00 0.  1.
         13    1    3    3    0    0 -0.35527331649E+02 -0.18337790332E+02  0.34946400240E+02  0.53101110257E+02  0.10570000000E+00 0. -1.
<mgrwt>
<rscale>  0 0.90490494E+02</rscale>
<asrwt>0</asrwt>
<pdfrwt beam="1">  1        1 0.25469074E-01 0.90490494E+02</pdfrwt>
<pdfrwt beam="2">  1       -1 0.19024185E-02 0.90490494E+02</pdfrwt>
<totfact> 0.11654931E+05</totfact>
</mgrwt>
</event>
<event>
 5   1  0.1388354E+00  0.8978201E+02  0.7818608E-02  0.1303380E+00
          1   -1    0    0  501    0  0.00000000000E+00  0.00000000000E+00  0.28866550792E+02  0.28866551170E+02  0.46700000000E-02 0.  1.
         -1   -1    0    0    0  501 -0.00000000000E+00 -0.00000000000E+00 -0.69810981387E+02  0.69810981543E+02  0.46700000000E-02 0. -1.
         23    2    1    2    0    0  0.00000000000E+00  0.00000000000E+00 -0.40944430595E+02  0.98677532713E+02  0.89782008585E+02 0.  0.
        -13    1    3    3    0    0 -0.23041940286E+02  0.15864456280E+02  0.18114371653E+02  0.33327970506E+02  0.10570000000E+00 0.  1.
         13    1    3    3    0    0  0.23041940286E+02 -0.15864456280E+02 -0.59058802248E+02  0.65349562207E+02  0.10570000000E+00 0. -1.
<mgrwt>
<rscale>  0 0.89782009E+02</rscale>
<asrwt>0</asrwt>
<pdfrwt beam="1">  1        1 0.44410079E-02 0.89782009E+02</pdfrwt>
<pdfrwt beam="2">  1       -1 0.10740151E-01 0.89782009E+02</pdfrwt>
<totfact> 0.90043723E+04</totfact>
</mgrwt>
</event>
<event>
 5   1  0.1388354E+00  0.8748012E+02  0.7818608E-02  0.1309071E+00
          1   -1    0    0  501    0  0.00000000000E+00  0.00000000000E+00  0.11392845476E+03  0.11392845485E+03  0.46700000000E-02 0. -1.
         -1   -1    0    0    0  501 -0.00000000000E+00 -0.00000000000E+00 -0.16792932659E+02  0.16792933308E+02  0.46700000000E-02 0.  1.
         23    2    1    2    0    0  0.00000000000E+00  0.00000000000E+00  0.97135522099E+02  0.13072138816E+03  0.87480121568E+02 0.  0.
        -13    1    3    3    0    0  0.13604143126E+02 -0.36298797353E+02  0.78843671396E+02  0.87857902838E+02  0.10570000000E+00 0.  1.
         13    1    3    3    0    0 -0.13604143126E+02  0.36298797353E+02  0.18291850703E+02  0.42863485324E+02  0.10570000000E+00 0. -1.
<mgrwt>
<rscale>  0 0.87480122E+02</rscale>
<asrwt>0</asrwt>
<pdfrwt beam="1">  1        1 0.17527454E-01 0.87480122E+02</pdfrwt>
<pdfrwt beam="2">  1       -1 0.25835282E-02 0.87480122E+02</pdfrwt>
<totfact> 0.11943536E+05</totfact>
</mgrwt>
</event>
<event>
 5   1  0.1388354E+00  0.9421322E+02  0.7818608E-02  0.1292958E+00
         -1   -1    0    0    0  501 -0.00000000000E+00  0.00000000000E+00  0.11011017782E+03  0.11011017791E+03  0.46700000000E-02 0.  1.
          1   -1    0    0  501    0  0.00000000000E+00 -0.00000000000E+00 -0.20152836787E+02  0.20152837328E+02  0.46700000000E-02 0. -1.
         23    2    1    2    0    0  0.00000000000E+00  0.00000000000E+00  0.89957341029E+02  0.13026301524E+03  0.94213215289E+02 0.  0.
        -13    1    3    3    0    0 -0.23498267358E+02 -0.43091095664E+01  0.10111258962E+03  0.10389660218E+03  0.10570000000E+00 0.  1.
         13    1    3    3    0    0  0.23498267358E+02  0.43091095664E+01 -0.11155248587E+02  0.26366413059E+02  0.10570000000E+00 0. -1.
<mgrwt>
<rscale>  0 0.94213215E+02</rscale>
<asrwt>0</asrwt>
<pdfrwt beam="2">  1        1 0.31004365E-02 0.94213215E+02</pdfrwt>
<pdfrwt beam="1">  1       -1 0.16940027E-01 0.94213215E+02</pdfrwt>
<totfact> 0.73405627E+04</totfact>
</mgrwt>
</event>
<event>
 5   1  0.1388354E+00  0.9064910E+02  0.7818608E-02  0.1301287E+00
         -1   -1    0    0    0  501 -0.00000000000E+00  0.00000000000E+00  0.18498529298E+03  0.18498529303E+03  0.46700000000E-02 0.  1.
          1   -1    0    0  501    0  0.00000000000E+00 -0.00000000000E+00 -0.11105286444E+02  0.11105287426E+02  0.46700000000E-02 0. -1.
         23    2    1    2    0    0  0.00000000000E+00  0.00000000000E+00  0.17388000653E+03  0.19609058046E+03  0.90649098584E+02 0.  0.
        -13    1    3    3    0    0 -0.35751790717E+02 -0.87844063701E+00  0.14717372925E+03  0.15145652826E+03  0.10570000000E+00 0.  1.
         13    1    3    3    0    0  0.35751790717E+02  0.87844063701E+00  0.26706277279E+02  0.44634052203E+02  0.10570000000E+00 0. -1.
<mgrwt>
<rscale>  0 0.90649099E+02</rscale>
<asrwt>0</asrwt>
<pdfrwt beam="2">  1        1 0.17085057E-02 0.90649099E+02</pdfrwt>
<pdfrwt beam="1">  1       -1 0.28459275E-01 0.90649099E+02</pdfrwt>
<totfact> 0.72027716E+04</totfact>
</mgrwt>
</event>
<event>
 5   1  0.1388354E+00  0.1162231E+03  0.7818608E-02  0.1249461E+00
          1   -1    0    0  501    0  0.00000000000E+00  0.00000000000E+00  0.16798478367E+03  0.16798478373E+03  0.46700000000E-02 0. -1.
         -1   -1    0    0    0  501 -0.00000000000E+00 -0.00000000000E+00 -0.20102724066E+02  0.20102724608E+02  0.46700000000E-02 0.  1.
         23    2    1    2    0    0  0.00000000000E+00  0.00000000000E+00  0.14788205960E+03  0.18808750834E+03  0.11622309255E+03 0.  0.
        -13    1    3    3    0    0  0.25140435370E+02  0.49989668273E+02  0.48561987181E+02  0.74089717209E+02  0.10570000000E+00 0.  1.
         13    1    3    3    0    0 -0.25140435370E+02 -0.49989668273E+02  0.99320072420E+02  0.11399779113E+03  0.10570000000E+00 0. -1.
<mgrwt>
<rscale>  0 0.11622309E+03</rscale>
<asrwt>0</asrwt>
<pdfrwt beam="1">  1        1 0.25843813E-01 0.11622309E+03</pdfrwt>
<pdfrwt beam="2">  1       -1 0.30927268E-02 0.11622309E+03</pdfrwt>
<totfact> 0.59019703E+04</totfact>
</mgrwt>
</event>
<event>
 5   1  0.1388354E+00  0.9205705E+02  0.7818608E-02  0.1297945E+00
          1   -1    0    0  501    0  0.00000000000E+00  0.00000000000E+00  0.34866380753E+02  0.34866381065E+02  0.46700000000E-02 0. -1.
         -1   -1    0    0    0  501 -0.00000000000E+00 -0.00000000000E+00 -0.60764125976E+02  0.60764126156E+02  0.46700000000E-02 0.  1.
         23    2    1    2    0    0  0.00000000000E+00  0.00000000000E+00 -0.25897745223E+02  0.95630507221E+02  0.92057051352E+02 0.  0.
        -13    1    3    3    0    0  0.13341210621E+02 -0.14733404205E+02  0.30178371632E+02  0.36135943147E+02  0.10570000000E+00 0. -1.
         13    1    3    3    0    0 -0.13341210621E+02  0.14733404205E+02 -0.56076116855E+02  0.59494564074E+02  0.10570000000E+00 0.  1.
<mgrwt>
<rscale>  0 0.92057051E+02</rscale>
<asrwt>0</asrwt>
<pdfrwt beam="1">  1        1 0.53640586E-02 0.92057051E+02</pdfrwt>
<pdfrwt beam="2">  1       -1 0.93483271E-02 0.92057051E+02</pdfrwt>
<totfact> 0.86372529E+04</totfact>
</mgrwt>
</event>
<event>
 5   1  0.1388354E+00  0.9232342E+02  0.7818608E-02  0.1297321E+00
          1   -1    0    0  501    0  0.00000000000E+00  0.00000000000E+00  0.18876946696E+02  0.18876947274E+02  0.46700000000E-02 0. -1.
         -1   -1    0    0    0  501 -0.00000000000E+00 -0.00000000000E+00 -0.11288389854E+03  0.11288389863E+03  0.46700000000E-02 0.  1.
         23    2    1    2    0    0  0.00000000000E+00  0.00000000000E+00 -0.94006951839E+02  0.13176084591E+03  0.92323418046E+02 0.  0.
        -13    1    3    3    0    0  0.43545699431E+02  0.15067229719E+02 -0.43057972988E+02  0.63065438718E+02  0.10570000000E+00 0. -1.
         13    1    3    3    0    0 -0.43545699431E+02 -0.15067229719E+02 -0.50948978851E+02  0.68695407189E+02  0.10570000000E+00 0.  1.
<mgrwt>
<rscale>  0 0.92323418E+02</rscale>
<asrwt>0</asrwt>
<pdfrwt beam="1">  1        1 0.29041458E-02 0.92323418E+02</pdfrwt>
<pdfrwt beam="2">  1       -1 0.17366753E-01 0.92323418E+02</pdfrwt>
<totfact> 0.76974834E+04</totfact>
</mgrwt>
</event>
<event>
 5   1  0.1388354E+00  0.9036781E+02  0.7818608E-02  0.1301963E+00
          1   -1    0    0  501    0  0.00000000000E+00  0.00000000000E+00  0.21536372375E+03  0.21536372380E+03  0.46700000000E-02 0. -1.
         -1   -1    0    0    0  501 -0.00000000000E+00 -0.00000000000E+00 -0.94797073368E+01  0.94797084871E+01  0.46700000000E-02 0.  1.
         23    2    1    2    0    0  0.00000000000E+00  0.00000000000E+00  0.20588401641E+03  0.22484343228E+03  0.90367808584E+02 0.  0.
        -13    1    3    3    0    0  0.30359647189E+01  0.41650576549E+02  0.60020693692E+02  0.73119644777E+02  0.10570000000E+00 0.  1.
         13    1    3    3    0    0 -0.30359647189E+01 -0.41650576549E+02  0.14586332272E+03  0.15172378751E+03  0.10570000000E+00 0. -1.
<mgrwt>
<rscale>  0 0.90367809E+02</rscale>
<asrwt>0</asrwt>
<pdfrwt beam="1">  1        1 0.33132881E-01 0.90367809E+02</pdfrwt>
<pdfrwt beam="2">  1       -1 0.14584166E-02 0.90367809E+02</pdfrwt>
<totfact> 0.12302223E+05</totfact>
</mgrwt>
</event>
<event>
 5   1  0.1388354E+00  0.9025809E+02  0.7818608E-02  0.1302228E+00
          1   -1    0    0  501    0  0.00000000000E+00  0.00000000000E+00  0.99811869285E+02  0.99811869394E+02  0.46700000000E-02 0. -1.
         -1   -1    0    0    0  501 -0.00000000000E+00 -0.00000000000E+00 -0.20404695854E+02  0.20404696388E+02  0.46700000000E-02 0.  1.
         23    2    1    2    0    0  0.00000000000E+00  0.00000000000E+00  0.79407173431E+02  0.12021656578E+03  0.90258093799E+02 0.  0.
        -13    1    3    3    0    0 -0.34427829696E+02  0.23984060519E+02  0.17571696435E+02  0.45489408708E+02  0.10570000000E+00 0.  1.
         13    1    3    3    0    0  0.34427829696E+02 -0.23984060519E+02  0.61835476996E+02  0.74727157074E+02  0.10570000000E+00 0. -1.
<mgrwt>
<rscale>  0 0.90258094E+02</rscale>
<asrwt>0</asrwt>
<pdfrwt beam="1">  1        1 0.15355672E-01 0.90258094E+02</pdfrwt>
<pdfrwt beam="2">  1       -1 0.31391841E-02 0.90258094E+02</pdfrwt>
<totfact> 0.10733832E+05</totfact>
</mgrwt>
</event>
<event>
 5   1  0.1388354E+00  0.9672394E+02  0.7818608E-02  0.1287340E+00
          1   -1    0    0  501    0  0.00000000000E+00  0.00000000000E+00  0.11243095434E+03  0.11243095444E+03  0.46700000000E-02 0. -1.
         -1   -1    0    0    0  501 -0.00000000000E+00 -0.00000000000E+00 -0.20802812692E+02  0.20802813217E+02  0.46700000000E-02 0.  1.
         23    2    1    2    0    0  0.00000000000E+00  0.00000000000E+00  0.91628141647E+02  0.13323376765E+03  0.96723939650E+02 0.  0.
        -13    1    3    3    0    0 -0.77364167952E+01  0.44675757164E+02  0.22637706793E+02  0.50677927782E+02  0.10570000000E+00 0.  1.
         13    1    3    3    0    0  0.77364167952E+01 -0.44675757164E+02  0.68990434854E+02  0.82555839871E+02  0.10570000000E+00 0. -1.
<mgrwt>
<rscale>  0 0.96723940E+02</rscale>
<asrwt>0</asrwt>
<pdfrwt beam="1">  1        1 0.17297070E-01 0.96723940E+02</pdfrwt>
<pdfrwt beam="2">  1       -1 0.32004327E-02 0.96723940E+02</pdfrwt>
<totfact> 0.90675497E+04</totfact>
</mgrwt>
</event>
<event>
 5   1  0.1388354E+00  0.9174785E+02  0.7818608E-02  0.1298673E+00
         -1   -1    0    0    0  501 -0.00000000000E+00  0.00000000000E+00  0.74063054739E+01  0.74063069462E+01  0.46700000000E-02 0.  1.
          1   -1    0    0  501    0  0.00000000000E+00 -0.00000000000E+00 -0.28413855729E+03  0.28413855733E+03  0.46700000000E-02 0. -1.
         23    2    1    2    0    0  0.00000000000E+00  0.00000000000E+00 -0.27673225181E+03  0.29154486427E+03  0.91747853869E+02 0.  0.
        -13    1    3    3    0    0 -0.26622495182E+02 -0.26597834666E+02 -0.55004138682E+02  0.66645843856E+02  0.10570000000E+00 0.  1.
         13    1    3    3    0    0  0.26622495182E+02  0.26597834666E+02 -0.22172811313E+03  0.22489902042E+03  0.10570000000E+00 0. -1.
<mgrwt>
<rscale>  0 0.91747854E+02</rscale>
<asrwt>0</asrwt>
<pdfrwt beam="2">  1        1 0.43713616E-01 0.91747854E+02</pdfrwt>
<pdfrwt beam="1">  1       -1 0.11394319E-02 0.91747854E+02</pdfrwt>
<totfact> 0.12469726E+05</totfact>
</mgrwt>
</event>
<event>
 5   1  0.1388354E+00  0.9193959E+02  0.7818608E-02  0.1298222E+00
         -1   -1    0    0    0  501 -0.00000000000E+00  0.00000000000E+00  0.19417449007E+03  0.19417449013E+03  0.46700000000E-02 0.  1.
          1   -1    0    0  501    0  0.00000000000E+00 -0.00000000000E+00 -0.10883106978E+02  0.10883107980E+02  0.46700000000E-02 0. -1.
         23    2    1    2    0    0  0.00000000000E+00  0.00000000000E+00  0.18329138309E+03  0.20505759811E+03  0.91939585736E+02 0.  0.
        -13    1    3    3    0    0 -0.15546822934E+02 -0.43160822717E+02  0.98205489862E+02  0.10839229554E+03  0.10570000000E+00 0.  1.
         13    1    3    3    0    0  0.15546822934E+02  0.43160822717E+02  0.85085893232E+02  0.96665302568E+02  0.10570000000E+00 0. -1.
<mgrwt>
<rscale>  0 0.91939586E+02</rscale>
<asrwt>0</asrwt>
<pdfrwt beam="2">  1        1 0.16743243E-02 0.91939586E+02</pdfrwt>
<pdfrwt beam="1">  1       -1 0.29872997E-01 0.91939586E+02</pdfrwt>
<totfact> 0.68503570E+04</totfact>
</mgrwt>
</event>
<event>
 5   1  0.1388354E+00  0.9433367E+02  0.7818608E-02  0.1292684E+00
         -1   -1    0    0    0  501 -0.00000000000E+00  0.00000000000E+00  0.97294346644E+01  0.97294357852E+01  0.46700000000E-02 0.  1.
          1   -1    0    0  501    0  0.00000000000E+00 -0.00000000000E+00 -0.22865771073E+03  0.22865771078E+03  0.46700000000E-02 0. -1.
         23    2    1    2    0    0  0.00000000000E+00  0.00000000000E+00 -0.21892827607E+03  0.23838714656E+03  0.94333671536E+02 0.  0.
        -13    1    3    3    0    0 -0.22211040006E+02 -0.40182790127E+02 -0.82163398134E+02  0.94121315789E+02  0.10570000000E+00 0.  1.
         13    1    3    3    0    0  0.22211040006E+02  0.40182790127E+02 -0.13676487793E+03  0.14426583078E+03  0.10570000000E+00 0. -1.
<mgrwt>
<rscale>  0 0.94333672E+02</rscale>
<asrwt>0</asrwt>
<pdfrwt beam="2">  1        1 0.35178106E-01 0.94333672E+02</pdfrwt>
<pdfrwt beam="1">  1       -1 0.14968364E-02 0.94333672E+02</pdfrwt>
<totfact> 0.11093126E+05</totfact>
</mgrwt>
</event>
<event>
 5   1  0.1388354E+00  0.9196832E+02  0.7818608E-02  0.1298154E+00
          1   -1    0    0  501    0  0.00000000000E+00  0.00000000000E+00  0.13630055306E+03  0.13630055314E+03  0.46700000000E-02 0. -1.
         -1   -1    0    0    0  501 -0.00000000000E+00 -0.00000000000E+00 -0.15513825667E+02  0.15513826370E+02  0.46700000000E-02 0.  1.
         23    2    1    2    0    0  0.00000000000E+00  0.00000000000E+00  0.12078672739E+03  0.15181437951E+03  0.91968322325E+02 0.  0.
        -13    1    3    3    0    0  0.20091363649E+02 -0.14854283761E+02  0.12411687987E+03  0.12660696537E+03  0.10570000000E+00 0. -1.
         13    1    3    3    0    0 -0.20091363649E+02  0.14854283761E+02 -0.33301524804E+01  0.25207414135E+02  0.10570000000E+00 0.  1.
<mgrwt>
<rscale>  0 0.91968322E+02</rscale>
<asrwt>0</asrwt>
<pdfrwt beam="1">  1        1 0.20969316E-01 0.91968322E+02</pdfrwt>
<pdfrwt beam="2">  1       -1 0.23867424E-02 0.91968322E+02</pdfrwt>
<totfact> 0.10764735E+05</totfact>
</mgrwt>
</event>
<event>
 5   1  0.1388354E+00  0.9321194E+02  0.7818608E-02  0.1295255E+00
          1   -1    0    0  501    0  0.00000000000E+00  0.00000000000E+00  0.13043892994E+02  0.13043893830E+02  0.46700000000E-02 0. -1.
         -1   -1    0    0    0  501 -0.00000000000E+00 -0.00000000000E+00 -0.16652362615E+03  0.16652362622E+03  0.46700000000E-02 0.  1.
         23    2    1    2    0    0  0.00000000000E+00  0.00000000000E+00 -0.15347973316E+03  0.17956752005E+03  0.93211940037E+02 0.  0.
        -13    1    3    3    0    0  0.18212801147E+02 -0.42722766460E+02 -0.84241717230E+02  0.96195732722E+02  0.10570000000E+00 0.  1.
         13    1    3    3    0    0 -0.18212801147E+02  0.42722766460E+02 -0.69238015926E+02  0.83371787323E+02  0.10570000000E+00 0. -1.
<mgrwt>
<rscale>  0 0.93211940E+02</rscale>
<asrwt>0</asrwt>
<pdfrwt beam="1">  1        1 0.20067529E-02 0.93211940E+02</pdfrwt>
<pdfrwt beam="2">  1       -1 0.25619018E-01 0.93211940E+02</pdfrwt>
<totfact> 0.68846294E+04</totfact>
</mgrwt>
</event>
<event>
 5   1  0.1388354E+00  0.7115298E+02  0.7818608E-02  0.1356216E+00
          1   -1    0    0  501    0  0.00000000000E+00  0.00000000000E+00  0.22875646163E+02  0.22875646640E+02  0.46700000000E-02 0. -1.
         -1   -1    0    0    0  501 -0.00000000000E+00 -0.00000000000E+00 -0.55328995086E+02  0.55328995283E+02  0.46700000000E-02 0.  1.
         23    2    1    2    0    0  0.00000000000E+00  0.00000000000E+00 -0.32453348923E+02  0.78204641923E+02  0.71152977182E+02 0.  0.
        -13    1    3    3    0    0 -0.25826633825E+02 -0.21470692182E+02 -0.33305657244E+01  0.33750695964E+02  0.10570000000E+00 0. -1.
         13    1    3    3    0    0  0.25826633825E+02  0.21470692182E+02 -0.29122783198E+02  0.44453945958E+02  0.10570000000E+00 0.  1.
<mgrwt>
<rscale>  0 0.71152977E+02</rscale>
<asrwt>0</asrwt>
<pdfrwt beam="1">  1        1 0.35193302E-02 0.71152977E+02</pdfrwt>
<pdfrwt beam="2">  1       -1 0.85121531E-02 0.71152977E+02</pdfrwt>
<totfact> 0.16782557E+05</totfact>
</mgrwt>
</event>
<event>
 5   1  0.1388354E+00  0.8979721E+02  0.7818608E-02  0.1303344E+00
         -1   -1    0    0    0  501 -0.00000000000E+00  0.00000000000E+00  0.32785412060E+03  0.32785412064E+03  0.46700000000E-02 0.  1.
          1   -1    0    0  501    0  0.00000000000E+00 -0.00000000000E+00 -0.61487244115E+01  0.61487261850E+01  0.46700000000E-02 0. -1.
         23    2    1    2    0    0  0.00000000000E+00  0.00000000000E+00  0.32170539619E+03  0.33400284682E+03  0.89797214578E+02 0.  0.
        -13    1    3    3    0    0 -0.44560953410E+02 -0.14548198853E+01  0.14114319126E+03  0.14801758910E+03  0.10570000000E+00 0. -1.
         13    1    3    3    0    0  0.44560953410E+02  0.14548198853E+01  0.18056220493E+03  0.18598525772E+03  0.10570000000E+00 0.  1.
<mgrwt>
<rscale>  0 0.89797215E+02</rscale>
<asrwt>0</asrwt>
<pdfrwt beam="2">  1        1 0.94595768E-03 0.89797215E+02</pdfrwt>
<pdfrwt beam="1">  1       -1 0.50439099E-01 0.89797215E+02</pdfrwt>
<totfact> 0.60803957E+04</totfact>
</mgrwt>
</event>
<event>
 5   1  0.1388354E+00  0.9130314E+02  0.7818608E-02  0.1299726E+00
         -1   -1    0    0    0  501 -0.00000000000E+00  0.00000000000E+00  0.31782970704E+02  0.31782971047E+02  0.46700000000E-02 0.  1.
          1   -1    0    0  501    0  0.00000000000E+00 -0.00000000000E+00 -0.65571769611E+02  0.65571769777E+02  0.46700000000E-02 0. -1.
         23    2    1    2    0    0  0.00000000000E+00  0.00000000000E+00 -0.33788798907E+02  0.97354740824E+02  0.91303135923E+02 0.  0.
        -13    1    3    3    0    0  0.26556273218E+02  0.99508270895E+01  0.21251024226E+02  0.35438281704E+02  0.10570000000E+00 0.  1.
         13    1    3    3    0    0 -0.26556273218E+02 -0.99508270895E+01 -0.55039823133E+02  0.61916459120E+02  0.10570000000E+00 0. -1.
<mgrwt>
<rscale>  0 0.91303136E+02</rscale>
<asrwt>0</asrwt>
<pdfrwt beam="2">  1        1 0.10087965E-01 0.91303136E+02</pdfrwt>
<pdfrwt beam="1">  1       -1 0.48896879E-02 0.91303136E+02</pdfrwt>
<totfact> 0.97308049E+04</totfact>
</mgrwt>
</event>
<event>
 5   1  0.1388354E+00  0.9054368E+02  0.7818608E-02  0.1301540E+00
         -1   -1    0    0    0  501 -0.00000000000E+00  0.00000000000E+00  0.65581026112E+01  0.65581042740E+01  0.46700000000E-02 0. -1.
          1   -1    0    0  501    0  0.00000000000E+00 -0.00000000000E+00 -0.31252017225E+03  0.31252017228E+03  0.46700000000E-02 0.  1.
         23    2    1    2    0    0  0.00000000000E+00  0.00000000000E+00 -0.30596206964E+03  0.31907827656E+03  0.90543682906E+02 0.  0.
        -13    1    3    3    0    0 -0.34974031356E+02 -0.18052333117E+02 -0.23181679711E+03  0.23513423441E+03  0.10570000000E+00 0.  1.
         13    1    3    3    0    0  0.34974031356E+02  0.18052333117E+02 -0.74145272532E+02  0.83944042145E+02  0.10570000000E+00 0. -1.
<mgrwt>
<rscale>  0 0.90543683E+02</rscale>
<asrwt>0</asrwt>
<pdfrwt beam="2">  1        1 0.48080015E-01 0.90543683E+02</pdfrwt>
<pdfrwt beam="1">  1       -1 0.10089392E-02 0.90543683E+02</pdfrwt>
<totfact> 0.13153484E+05</totfact>
</mgrwt>
</event>
<event>
 5   1  0.1388354E+00  0.9238515E+02  0.7818608E-02  0.1297176E+00
         -1   -1    0    0    0  501 -0.00000000000E+00  0.00000000000E+00  0.12616761877E+02  0.12616762742E+02  0.46700000000E-02 0.  1.
          1   -1    0    0  501    0  0.00000000000E+00 -0.00000000000E+00 -0.16912057267E+03  0.16912057273E+03  0.46700000000E-02 0. -1.
         23    2    1    2    0    0  0.00000000000E+00  0.00000000000E+00 -0.15650381079E+03  0.18173733547E+03  0.92385152017E+02 0.  0.
        -13    1    3    3    0    0  0.73986737603E+01  0.43445323921E+02 -0.10547475485E+03  0.11431173005E+03  0.10570000000E+00 0. -1.
         13    1    3    3    0    0 -0.73986737603E+01 -0.43445323921E+02 -0.51029055937E+02  0.67425605420E+02  0.10570000000E+00 0.  1.
<mgrwt>
<rscale>  0 0.92385152E+02</rscale>
<asrwt>0</asrwt>
<pdfrwt beam="2">  1        1 0.26018548E-01 0.92385152E+02</pdfrwt>
<pdfrwt beam="1">  1       -1 0.19410405E-02 0.92385152E+02</pdfrwt>
<totfact> 0.11066693E+05</totfact>
</mgrwt>
</event>
<event>
 5   1  0.1388354E+00  0.8887624E+02  0.7818608E-02  0.1305596E+00
          1   -1    0    0  501    0  0.00000000000E+00  0.00000000000E+00  0.70561141243E+02  0.70561141398E+02  0.46700000000E-02 0. -1.
         -1   -1    0    0    0  501 -0.00000000000E+00 -0.00000000000E+00 -0.27986317663E+02  0.27986318052E+02  0.46700000000E-02 0.  1.
         23    2    1    2    0    0  0.00000000000E+00  0.00000000000E+00  0.42574823580E+02  0.98547459450E+02  0.88876240701E+02 0.  0.
        -13    1    3    3    0    0  0.29110472283E+02  0.30445185837E+02  0.55904506671E+01  0.42492272808E+02  0.10570000000E+00 0.  1.
         13    1    3    3    0    0 -0.29110472283E+02 -0.30445185837E+02  0.36984372913E+02  0.56055186642E+02  0.10570000000E+00 0. -1.
<mgrwt>
<rscale>  0 0.88876241E+02</rscale>
<asrwt>0</asrwt>
<pdfrwt beam="1">  1        1 0.10855560E-01 0.88876241E+02</pdfrwt>
<pdfrwt beam="2">  1       -1 0.43055874E-02 0.88876241E+02</pdfrwt>
<totfact> 0.10598065E+05</totfact>
</mgrwt>
</event>
<event>
 5   1  0.1388354E+00  0.8968581E+02  0.7818608E-02  0.1303614E+00
          1   -1    0    0  501    0  0.00000000000E+00  0.00000000000E+00  0.13647314982E+03  0.13647314990E+03  0.46700000000E-02 0. -1.
         -1   -1    0    0    0  501 -0.00000000000E+00 -0.00000000000E+00 -0.14734665644E+02  0.14734666384E+02  0.46700000000E-02 0.  1.
         23    2    1    2    0    0  0.00000000000E+00  0.00000000000E+00  0.12173848418E+03  0.15120781629E+03  0.89685813685E+02 0.  0.
        -13    1    3    3    0    0 -0.28610900528E+02  0.32213987802E+02  0.39909512691E+02  0.58729081508E+02  0.10570000000E+00 0.  1.
         13    1    3    3    0    0  0.28610900528E+02 -0.32213987802E+02  0.81828971490E+02  0.92478734781E+02  0.10570000000E+00 0. -1.
<mgrwt>
<rscale>  0 0.89685814E+02</rscale>
<asrwt>0</asrwt>
<pdfrwt beam="1">  1        1 0.20995869E-01 0.89685814E+02</pdfrwt>
<pdfrwt beam="2">  1       -1 0.22668717E-02 0.89685814E+02</pdfrwt>
<totfact> 0.11523714E+05</totfact>
</mgrwt>
</event>
<event>
 5   1  0.1388354E+00  0.9558896E+02  0.7818608E-02  0.1289855E+00
          1   -1    0    0  501    0  0.00000000000E+00  0.00000000000E+00  0.28613264473E+03  0.28613264477E+03  0.46700000000E-02 0.  1.
         -1   -1    0    0    0  501 -0.00000000000E+00 -0.00000000000E+00 -0.79834024073E+01  0.79834037732E+01  0.46700000000E-02 0. -1.
         23    2    1    2    0    0  0.00000000000E+00  0.00000000000E+00  0.27814924232E+03  0.29411604854E+03  0.95588958593E+02 0.  0.
        -13    1    3    3    0    0  0.12623184488E+02 -0.37024480544E+02  0.54578228052E+02  0.67148723711E+02  0.10570000000E+00 0. -1.
         13    1    3    3    0    0 -0.12623184488E+02  0.37024480544E+02  0.22357101427E+03  0.22696732483E+03  0.10570000000E+00 0.  1.
<mgrwt>
<rscale>  0 0.95588959E+02</rscale>
<asrwt>0</asrwt>
<pdfrwt beam="1">  1        1 0.44020409E-01 0.95588959E+02</pdfrwt>
<pdfrwt beam="2">  1       -1 0.12282158E-02 0.95588959E+02</pdfrwt>
<totfact> 0.11189107E+05</totfact>
</mgrwt>
</event>
<event>
 5   1  0.1388354E+00  0.9123497E+02  0.7818608E-02  0.1299888E+00
         -1   -1    0    0    0  501 -0.00000000000E+00  0.00000000000E+00  0.90237056146E+02  0.90237056267E+02  0.46700000000E-02 0.  1.
          1   -1    0    0  501    0  0.00000000000E+00 -0.00000000000E+00 -0.23060978168E+02  0.23060978641E+02  0.46700000000E-02 0. -1.
         23    2    1    2    0    0  0.00000000000E+00  0.00000000000E+00  0.67176077978E+02  0.11329803491E+03  0.91234967319E+02 0.  0.
        -13    1    3    3    0    0  0.90468172425E+01 -0.13298406732E+02 -0.19422860002E+02  0.25218072626E+02  0.10570000000E+00 0. -1.
         13    1    3    3    0    0 -0.90468172425E+01  0.13298406732E+02  0.86598937980E+02  0.88079962282E+02  0.10570000000E+00 0.  1.
<mgrwt>
<rscale>  0 0.91234967E+02</rscale>
<asrwt>0</asrwt>
<pdfrwt beam="2">  1        1 0.35478428E-02 0.91234967E+02</pdfrwt>
<pdfrwt beam="1">  1       -1 0.13882624E-01 0.91234967E+02</pdfrwt>
<totfact> 0.82767637E+04</totfact>
</mgrwt>
</event>
<event>
 5   1  0.1388354E+00  0.9767116E+02  0.7818608E-02  0.1285271E+00
         -1   -1    0    0    0  501 -0.00000000000E+00  0.00000000000E+00  0.14292233837E+02  0.14292234600E+02  0.46700000000E-02 0.  1.
          1   -1    0    0  501    0  0.00000000000E+00 -0.00000000000E+00 -0.16686780139E+03  0.16686780145E+03  0.46700000000E-02 0. -1.
         23    2    1    2    0    0  0.00000000000E+00  0.00000000000E+00 -0.15257556755E+03  0.18116003605E+03  0.97671156690E+02 0.  0.
        -13    1    3    3    0    0 -0.30160711436E+01  0.33526549400E+02 -0.14191129091E+03  0.14584907219E+03  0.10570000000E+00 0. -1.
         13    1    3    3    0    0  0.30160711436E+01 -0.33526549400E+02 -0.10664276641E+02  0.35310963858E+02  0.10570000000E+00 0.  1.
<mgrwt>
<rscale>  0 0.97671157E+02</rscale>
<asrwt>0</asrwt>
<pdfrwt beam="2">  1        1 0.25671968E-01 0.97671157E+02</pdfrwt>
<pdfrwt beam="1">  1       -1 0.21988054E-02 0.97671157E+02</pdfrwt>
<totfact> 0.94958205E+04</totfact>
</mgrwt>
</event>
<event>
 5   1  0.1388354E+00  0.9142169E+02  0.7818608E-02  0.1299445E+00
          1   -1    0    0  501    0  0.00000000000E+00  0.00000000000E+00  0.30021329138E+02  0.30021329502E+02  0.46700000000E-02 0. -1.
         -1   -1    0    0    0  501 -0.00000000000E+00 -0.00000000000E+00 -0.69599892899E+02  0.69599893056E+02  0.46700000000E-02 0.  1.
         23    2    1    2    0    0  0.00000000000E+00  0.00000000000E+00 -0.39578563761E+02  0.99621222557E+02  0.91421689300E+02 0.  0.
        -13    1    3    3    0    0  0.11917632194E+02 -0.44129375725E+02 -0.19575783202E+02  0.49725790285E+02  0.10570000000E+00 0. -1.
         13    1    3    3    0    0 -0.11917632194E+02  0.44129375725E+02 -0.20002780558E+02  0.49895432272E+02  0.10570000000E+00 0.  1.
<mgrwt>
<rscale>  0 0.91421689E+02</rscale>
<asrwt>0</asrwt>
<pdfrwt beam="1">  1        1 0.46186661E-02 0.91421689E+02</pdfrwt>
<pdfrwt beam="2">  1       -1 0.10707676E-01 0.91421689E+02</pdfrwt>
<totfact> 0.86028766E+04</totfact>
</mgrwt>
</event>
<event>
 5   1  0.1388354E+00  0.9000797E+02  0.7818608E-02  0.1302832E+00
         -1   -1    0    0    0  501 -0.00000000000E+00  0.00000000000E+00  0.93947591693E+01  0.93947603300E+01  0.46700000000E-02 0.  1.
          1   -1    0    0  501    0  0.00000000000E+00 -0.00000000000E+00 -0.21558388037E+03  0.21558388042E+03  0.46700000000E-02 0. -1.
         23    2    1    2    0    0  0.00000000000E+00  0.00000000000E+00 -0.20618912120E+03  0.22497864075E+03  0.90007972382E+02 0.  0.
        -13    1    3    3    0    0  0.27742518357E+02  0.35197020430E+02 -0.92828159692E+02  0.10308033749E+03  0.10570000000E+00 0.  1.
         13    1    3    3    0    0 -0.27742518357E+02 -0.35197020430E+02 -0.11336096150E+03  0.12189830326E+03  0.10570000000E+00 0. -1.
<mgrwt>
<rscale>  0 0.90007972E+02</rscale>
<asrwt>0</asrwt>
<pdfrwt beam="2">  1        1 0.33166747E-01 0.90007972E+02</pdfrwt>
<pdfrwt beam="1">  1       -1 0.14453478E-02 0.90007972E+02</pdfrwt>
<totfact> 0.12436605E+05</totfact>
</mgrwt>
</event>
<event>
 5   1  0.1388354E+00  0.9178428E+02  0.7818608E-02  0.1298587E+00
          1   -1    0    0  501    0  0.00000000000E+00  0.00000000000E+00  0.14934352304E+03  0.14934352311E+03  0.46700000000E-02 0. -1.
         -1   -1    0    0    0  501 -0.00000000000E+00 -0.00000000000E+00 -0.14102309111E+02  0.14102309885E+02  0.46700000000E-02 0.  1.
         23    2    1    2    0    0  0.00000000000E+00  0.00000000000E+00  0.13524121393E+03  0.16344583299E+03  0.91784281765E+02 0.  0.
        -13    1    3    3    0    0  0.30870016134E+02 -0.18308488005E+02  0.16692136575E+02  0.39582789506E+02  0.10570000000E+00 0.  1.
         13    1    3    3    0    0 -0.30870016134E+02  0.18308488005E+02  0.11854907735E+03  0.12386304349E+03  0.10570000000E+00 0. -1.
<mgrwt>
<rscale>  0 0.91784282E+02</rscale>
<asrwt>0</asrwt>
<pdfrwt beam="1">  1        1 0.22975926E-01 0.91784282E+02</pdfrwt>
<pdfrwt beam="2">  1       -1 0.21695861E-02 0.91784282E+02</pdfrwt>
<totfact> 0.11005047E+05</totfact>
</mgrwt>
</event>
<event>
 5   1  0.1388354E+00  0.8976218E+02  0.7818608E-02  0.1303429E+00
         -1   -1    0    0    0  501 -0.00000000000E+00  0.00000000000E+00  0.21740102467E+02  0.21740102969E+02  0.46700000000E-02 0.  1.
          1   -1    0    0  501    0  0.00000000000E+00 -0.00000000000E+00 -0.92654223662E+02  0.92654223780E+02  0.46700000000E-02 0. -1.
         23    2    1    2    0    0  0.00000000000E+00  0.00000000000E+00 -0.70914121195E+02  0.11439432675E+03  0.89762182501E+02 0.  0.
        -13    1    3    3    0    0  0.25379901903E+02 -0.21477034325E+02  0.29639547241E+01  0.33379613900E+02  0.10570000000E+00 0.  1.
         13    1    3    3    0    0 -0.25379901903E+02  0.21477034325E+02 -0.73878075919E+02  0.81014712849E+02  0.10570000000E+00 0. -1.
<mgrwt>
<rscale>  0 0.89762183E+02</rscale>
<asrwt>0</asrwt>
<pdfrwt beam="2">  1        1 0.14254496E-01 0.89762183E+02</pdfrwt>
<pdfrwt beam="1">  1       -1 0.33446312E-02 0.89762183E+02</pdfrwt>
<totfact> 0.10764107E+05</totfact>
</mgrwt>
</event>
<event>
 5   1  0.1388354E+00  0.9062726E+02  0.7818608E-02  0.1301340E+00
         -1   -1    0    0    0  501 -0.00000000000E+00  0.00000000000E+00  0.60017129807E+01  0.60017147976E+01  0.46700000000E-02 0.  1.
          1   -1    0    0  501    0  0.00000000000E+00 -0.00000000000E+00 -0.34212310298E+03  0.34212310301E+03  0.46700000000E-02 0. -1.
         23    2    1    2    0    0  0.00000000000E+00  0.00000000000E+00 -0.33612139000E+03  0.34812481781E+03  0.90627258370E+02 0.  0.
        -13    1    3    3    0    0 -0.30208115646E+02  0.29036951284E+02 -0.23433132222E+03  0.23804800889E+03  0.10570000000E+00 0.  1.
         13    1    3    3    0    0  0.30208115646E+02 -0.29036951284E+02 -0.10179006777E+03  0.11007680891E+03  0.10570000000E+00 0. -1.
<mgrwt>
<rscale>  0 0.90627258E+02</rscale>
<asrwt>0</asrwt>
<pdfrwt beam="2">  1        1 0.52634308E-01 0.90627258E+02</pdfrwt>
<pdfrwt beam="1">  1       -1 0.92334087E-03 0.90627258E+02</pdfrwt>
<totfact> 0.13342157E+05</totfact>
</mgrwt>
</event>
<event>
 5   1  0.1388354E+00  0.9119039E+02  0.7818608E-02  0.1299994E+00
          1   -1    0    0  501    0  0.00000000000E+00  0.00000000000E+00  0.19724913866E+03  0.19724913872E+03  0.46700000000E-02 0. -1.
         -1   -1    0    0    0  501 -0.00000000000E+00 -0.00000000000E+00 -0.10539573733E+02  0.10539574767E+02  0.46700000000E-02 0.  1.
         23    2    1    2    0    0  0.00000000000E+00  0.00000000000E+00  0.18670956493E+03  0.20778871349E+03  0.91190393220E+02 0.  0.
        -13    1    3    3    0    0  0.26281745191E+02 -0.16812038107E+02  0.16911815793E+03  0.17197190838E+03  0.10570000000E+00 0. -1.
         13    1    3    3    0    0 -0.26281745191E+02  0.16812038107E+02  0.17591406998E+02  0.35816805109E+02  0.10570000000E+00 0.  1.
<mgrwt>
<rscale>  0 0.91190393E+02</rscale>
<asrwt>0</asrwt>
<pdfrwt beam="1">  1        1 0.30346019E-01 0.91190393E+02</pdfrwt>
<pdfrwt beam="2">  1       -1 0.16214731E-02 0.91190393E+02</pdfrwt>
<totfact> 0.11804152E+05</totfact>
</mgrwt>
</event>
<event>
 5   1  0.1388354E+00  0.8882124E+02  0.7818608E-02  0.1305732E+00
          1   -1    0    0  501    0  0.00000000000E+00  0.00000000000E+00  0.17086223128E+03  0.17086223134E+03  0.46700000000E-02 0. -1.
         -1   -1    0    0    0  501 -0.00000000000E+00 -0.00000000000E+00 -0.11543236532E+02  0.11543237477E+02  0.46700000000E-02 0.  1.
         23    2    1    2    0    0  0.00000000000E+00  0.00000000000E+00  0.15931899475E+03  0.18240546882E+03  0.88821241648E+02 0.  0.
        -13    1    3    3    0    0 -0.12362644518E+02  0.41264845201E+02  0.10184145876E+03  0.11057719622E+03  0.10570000000E+00 0. -1.
         13    1    3    3    0    0  0.12362644518E+02 -0.41264845201E+02  0.57477535984E+02  0.71828272596E+02  0.10570000000E+00 0.  1.
<mgrwt>
<rscale>  0 0.88821242E+02</rscale>
<asrwt>0</asrwt>
<pdfrwt beam="1">  1        1 0.26286496E-01 0.88821242E+02</pdfrwt>
<pdfrwt beam="2">  1       -1 0.17758827E-02 0.88821242E+02</pdfrwt>
<totfact> 0.12324660E+05</totfact>
</mgrwt>
</event>
<event>
 5   1  0.1388354E+00  0.9795182E+02  0.7818608E-02  0.1284663E+00
         -1   -1    0    0    0  501 -0.00000000000E+00  0.00000000000E+00  0.19885068631E+02  0.19885069180E+02  0.46700000000E-02 0.  1.
          1   -1    0    0  501    0  0.00000000000E+00 -0.00000000000E+00 -0.12062517198E+03  0.12062517207E+03  0.46700000000E-02 0. -1.
         23    2    1    2    0    0  0.00000000000E+00  0.00000000000E+00 -0.10074010335E+03  0.14051024125E+03  0.97951822207E+02 0.  0.
        -13    1    3    3    0    0  0.75745505793E+01  0.47324814249E+02 -0.35909718701E+02  0.59887652566E+02  0.10570000000E+00 0.  1.
         13    1    3    3    0    0 -0.75745505793E+01 -0.47324814249E+02 -0.64830384652E+02  0.80622588689E+02  0.10570000000E+00 0. -1.
<mgrwt>
<rscale>  0 0.97951822E+02</rscale>
<asrwt>0</asrwt>
<pdfrwt beam="2">  1        1 0.18557718E-01 0.97951822E+02</pdfrwt>
<pdfrwt beam="1">  1       -1 0.30592414E-02 0.97951822E+02</pdfrwt>
<totfact> 0.88697448E+04</totfact>
</mgrwt>
</event>
<event>
 5   1  0.1388354E+00  0.9181813E+02  0.7818608E-02  0.1298508E+00
          1   -1    0    0  501    0  0.00000000000E+00  0.00000000000E+00  0.40075267556E+02  0.40075267828E+02  0.46700000000E-02 0. -1.
         -1   -1    0    0    0  501 -0.00000000000E+00 -0.00000000000E+00 -0.52592099013E+02  0.52592099220E+02  0.46700000000E-02 0.  1.
         23    2    1    2    0    0  0.00000000000E+00  0.00000000000E+00 -0.12516831456E+02  0.92667367048E+02  0.91818134625E+02 0.  0.
        -13    1    3    3    0    0 -0.66949677178E+01  0.39561726669E+02  0.16256627692E+02  0.43292515822E+02  0.10570000000E+00 0. -1.
         13    1    3    3    0    0  0.66949677178E+01 -0.39561726669E+02 -0.28773459148E+02  0.49374851226E+02  0.10570000000E+00 0.  1.
<mgrwt>
<rscale>  0 0.91818135E+02</rscale>
<asrwt>0</asrwt>
<pdfrwt beam="1">  1        1 0.61654259E-02 0.91818135E+02</pdfrwt>
<pdfrwt beam="2">  1       -1 0.80910921E-02 0.91818135E+02</pdfrwt>
<totfact> 0.88909133E+04</totfact>
</mgrwt>
</event>
<event>
 5   1  0.1388354E+00  0.9125390E+02  0.7818608E-02  0.1299843E+00
          1   -1    0    0  501    0  0.00000000000E+00  0.00000000000E+00  0.19507009877E+02  0.19507010436E+02  0.46700000000E-02 0. -1.
         -1   -1    0    0    0  501 -0.00000000000E+00 -0.00000000000E+00 -0.10672156762E+03  0.10672156772E+03  0.46700000000E-02 0.  1.
         23    2    1    2    0    0  0.00000000000E+00  0.00000000000E+00 -0.87214557739E+02  0.12622857815E+03  0.91253903265E+02 0.  0.
        -13    1    3    3    0    0  0.35057581694E+02  0.25865466922E+02 -0.24856416373E+02  0.50158837912E+02  0.10570000000E+00 0. -1.
         13    1    3    3    0    0 -0.35057581694E+02 -0.25865466922E+02 -0.62358141366E+02  0.76069740241E+02  0.10570000000E+00 0.  1.
<mgrwt>
<rscale>  0 0.91253903E+02</rscale>
<asrwt>0</asrwt>
<pdfrwt beam="1">  1        1 0.30010786E-02 0.91253903E+02</pdfrwt>
<pdfrwt beam="2">  1       -1 0.16418702E-01 0.91253903E+02</pdfrwt>
<totfact> 0.80201462E+04</totfact>
</mgrwt>
</event>
<event>
 5   1  0.1388354E+00  0.9408302E+02  0.7818608E-02  0.1293255E+00
         -1   -1    0    0    0  501 -0.00000000000E+00  0.00000000000E+00  0.12121449678E+02  0.12121450578E+02  0.46700000000E-02 0.  1.
          1   -1    0    0  501    0  0.00000000000E+00 -0.00000000000E+00 -0.18256096150E+03  0.18256096156E+03  0.46700000000E-02 0. -1.
         23    2    1    2    0    0  0.00000000000E+00  0.00000000000E+00 -0.17043951182E+03  0.19468241214E+03  0.94083018690E+02 0.  0.
        -13    1    3    3    0    0  0.72687238130E+01  0.38457054519E+02 -0.31215862320E+02  0.50062167562E+02  0.10570000000E+00 0.  1.
         13    1    3    3    0    0 -0.72687238130E+01 -0.38457054519E+02 -0.13922364950E+03  0.14462024458E+03  0.10570000000E+00 0. -1.
<mgrwt>
<rscale>  0 0.94083019E+02</rscale>
<asrwt>0</asrwt>
<pdfrwt beam="2">  1        1 0.28086300E-01 0.94083019E+02</pdfrwt>
<pdfrwt beam="1">  1       -1 0.18648386E-02 0.94083019E+02</pdfrwt>
<totfact> 0.10691332E+05</totfact>
</mgrwt>
</event>
<event>
 5   1  0.1388354E+00  0.1040836E+03  0.7818608E-02  0.1271936E+00
          1   -1    0    0  501    0  0.00000000000E+00  0.00000000000E+00  0.51512258580E+03  0.51512258582E+03  0.46700000000E-02 0. -1.
         -1   -1    0    0    0  501 -0.00000000000E+00 -0.00000000000E+00 -0.52576747509E+01  0.52576768249E+01  0.46700000000E-02 0.  1.
         23    2    1    2    0    0  0.00000000000E+00  0.00000000000E+00  0.50986491105E+03  0.52038026265E+03  0.10408357331E+03 0.  0.
        -13    1    3    3    0    0 -0.32514172460E+02  0.39775690955E+02  0.21338446996E+03  0.21948170811E+03  0.10570000000E+00 0.  1.
         13    1    3    3    0    0  0.32514172460E+02 -0.39775690955E+02  0.29648044109E+03  0.30089855454E+03  0.10570000000E+00 0. -1.
<mgrwt>
<rscale>  0 0.10408357E+03</rscale>
<asrwt>0</asrwt>
<pdfrwt beam="1">  1        1 0.79249659E-01 0.10408357E+03</pdfrwt>
<pdfrwt beam="2">  1       -1 0.80887289E-03 0.10408357E+03</pdfrwt>
<totfact> 0.98167558E+04</totfact>
</mgrwt>
</event>
<event>
 5   1  0.1388354E+00  0.9953913E+02  0.7818608E-02  0.1281268E+00
         -1   -1    0    0    0  501 -0.00000000000E+00  0.00000000000E+00  0.38404324132E+02  0.38404324416E+02  0.46700000000E-02 0.  1.
          1   -1    0    0  501    0  0.00000000000E+00 -0.00000000000E+00 -0.64498197693E+02  0.64498197862E+02  0.46700000000E-02 0. -1.
         23    2    1    2    0    0  0.00000000000E+00  0.00000000000E+00 -0.26093873561E+02  0.10290252228E+03  0.99539132274E+02 0.  0.
        -13    1    3    3    0    0  0.44989581011E+01  0.21231088778E+02  0.33254823537E+02  0.39710127369E+02  0.10570000000E+00 0.  1.
         13    1    3    3    0    0 -0.44989581011E+01 -0.21231088778E+02 -0.59348697097E+02  0.63192394909E+02  0.10570000000E+00 0. -1.
<mgrwt>
<rscale>  0 0.99539132E+02</rscale>
<asrwt>0</asrwt>
<pdfrwt beam="2">  1        1 0.99227997E-02 0.99539132E+02</pdfrwt>
<pdfrwt beam="1">  1       -1 0.59083576E-02 0.99539132E+02</pdfrwt>
<totfact> 0.76302434E+04</totfact>
</mgrwt>
</event>
<event>
 5   1  0.1388354E+00  0.8894580E+02  0.7818608E-02  0.1305425E+00
         -1   -1    0    0    0  501 -0.00000000000E+00  0.00000000000E+00  0.15704602846E+02  0.15704603540E+02  0.46700000000E-02 0.  1.
          1   -1    0    0  501    0  0.00000000000E+00 -0.00000000000E+00 -0.12594007030E+03  0.12594007039E+03  0.46700000000E-02 0. -1.
         23    2    1    2    0    0  0.00000000000E+00  0.00000000000E+00 -0.11023546745E+03  0.14164467393E+03  0.88945800164E+02 0.  0.
        -13    1    3    3    0    0 -0.46024521463E+01 -0.25207800517E+02  0.27666002100E+01  0.25773649759E+02  0.10570000000E+00 0.  1.
         13    1    3    3    0    0  0.46024521463E+01  0.25207800517E+02 -0.11300206766E+03  0.11587102417E+03  0.10570000000E+00 0. -1.
<mgrwt>
<rscale>  0 0.88945800E+02</rscale>
<asrwt>0</asrwt>
<pdfrwt beam="2">  1        1 0.19375395E-01 0.88945800E+02</pdfrwt>
<pdfrwt beam="1">  1       -1 0.24160929E-02 0.88945800E+02</pdfrwt>
<totfact> 0.11617883E+05</totfact>
</mgrwt>
</event>
<event>
 5   1  0.1388354E+00  0.8312818E+02  0.7818608E-02  0.1320401E+00
         -1   -1    0    0    0  501 -0.00000000000E+00  0.00000000000E+00  0.19081255283E+03  0.19081255289E+03  0.46700000000E-02 0.  1.
          1   -1    0    0  501    0  0.00000000000E+00 -0.00000000000E+00 -0.90537734027E+01  0.90537746071E+01  0.46700000000E-02 0. -1.
         23    2    1    2    0    0  0.00000000000E+00  0.00000000000E+00  0.18175877943E+03  0.19986632750E+03  0.83128183952E+02 0.  0.
        -13    1    3    3    0    0 -0.21209687552E+02 -0.30173549441E+02  0.44802488774E+02  0.58030751372E+02  0.10570000000E+00 0. -1.
         13    1    3    3    0    0  0.21209687552E+02  0.30173549441E+02  0.13695629065E+03  0.14183557612E+03  0.10570000000E+00 0.  1.
<mgrwt>
<rscale>  0 0.83128184E+02</rscale>
<asrwt>0</asrwt>
<pdfrwt beam="2">  1        1 0.13928884E-02 0.83128184E+02</pdfrwt>
<pdfrwt beam="1">  1       -1 0.29355775E-01 0.83128184E+02</pdfrwt>
<totfact> 0.89418059E+04</totfact>
</mgrwt>
</event>
<event>
 5   1  0.1388354E+00  0.9110643E+02  0.7818608E-02  0.1300194E+00
          1   -1    0    0  501    0  0.00000000000E+00  0.00000000000E+00  0.63675509821E+02  0.63675509992E+02  0.46700000000E-02 0. -1.
         -1   -1    0    0    0  501 -0.00000000000E+00 -0.00000000000E+00 -0.32588593217E+02  0.32588593551E+02  0.46700000000E-02 0.  1.
         23    2    1    2    0    0  0.00000000000E+00  0.00000000000E+00  0.31086916604E+02  0.96264103543E+02  0.91106428133E+02 0.  0.
        -13    1    3    3    0    0 -0.27955803195E+02 -0.33493291001E+02  0.16959335572E+01  0.43660220309E+02  0.10570000000E+00 0.  1.
         13    1    3    3    0    0  0.27955803195E+02  0.33493291001E+02  0.29390983046E+02  0.52603883234E+02  0.10570000000E+00 0. -1.
<mgrwt>
<rscale>  0 0.91106428E+02</rscale>
<asrwt>0</asrwt>
<pdfrwt beam="1">  1        1 0.97962322E-02 0.91106428E+02</pdfrwt>
<pdfrwt beam="2">  1       -1 0.50136298E-02 0.91106428E+02</pdfrwt>
<totfact> 0.97453409E+04</totfact>
</mgrwt>
</event>
<event>
 5   1  0.1388354E+00  0.9362168E+02  0.7818608E-02  0.1294311E+00
         -1   -1    0    0    0  501 -0.00000000000E+00  0.00000000000E+00  0.19237080280E+02  0.19237080847E+02  0.46700000000E-02 0.  1.
          1   -1    0    0  501    0  0.00000000000E+00 -0.00000000000E+00 -0.11390786701E+03  0.11390786710E+03  0.46700000000E-02 0. -1.
         23    2    1    2    0    0  0.00000000000E+00  0.00000000000E+00 -0.94670786726E+02  0.13314494795E+03  0.93621681810E+02 0.  0.
        -13    1    3    3    0    0 -0.30221057110E+02  0.20180443945E+02 -0.89299482240E+02  0.96410431550E+02  0.10570000000E+00 0. -1.
         13    1    3    3    0    0  0.30221057110E+02 -0.20180443945E+02 -0.53713044855E+01  0.36734516399E+02  0.10570000000E+00 0.  1.
<mgrwt>
<rscale>  0 0.93621682E+02</rscale>
<asrwt>0</asrwt>
<pdfrwt beam="2">  1        1 0.17524287E-01 0.93621682E+02</pdfrwt>
<pdfrwt beam="1">  1       -1 0.29595509E-02 0.93621682E+02</pdfrwt>
<totfact> 0.99351965E+04</totfact>
</mgrwt>
</event>
<event>
 5   1  0.1388354E+00  0.9055858E+02  0.7818608E-02  0.1301505E+00
         -1   -1    0    0    0  501 -0.00000000000E+00  0.00000000000E+00  0.12431416971E+03  0.12431416980E+03  0.46700000000E-02 0.  1.
          1   -1    0    0  501    0  0.00000000000E+00 -0.00000000000E+00 -0.16492199923E+02  0.16492200584E+02  0.46700000000E-02 0. -1.
         23    2    1    2    0    0  0.00000000000E+00  0.00000000000E+00  0.10782196978E+03  0.14080637038E+03  0.90558581986E+02 0.  0.
        -13    1    3    3    0    0  0.26421164049E+02  0.34677598568E+01  0.11083050811E+03  0.11398910461E+03  0.10570000000E+00 0.  1.
         13    1    3    3    0    0 -0.26421164049E+02 -0.34677598568E+01 -0.30085383284E+01  0.26817265772E+02  0.10570000000E+00 0. -1.
<mgrwt>
<rscale>  0 0.90558582E+02</rscale>
<asrwt>0</asrwt>
<pdfrwt beam="2">  1        1 0.25372616E-02 0.90558582E+02</pdfrwt>
<pdfrwt beam="1">  1       -1 0.19125257E-01 0.90558582E+02</pdfrwt>
<totfact> 0.79342753E+04</totfact>
</mgrwt>
</event>
<event>
 5   1  0.1388354E+00  0.9071973E+02  0.7818608E-02  0.1301118E+00
          1   -1    0    0  501    0  0.00000000000E+00  0.00000000000E+00  0.69007374363E+02  0.69007374521E+02  0.46700000000E-02 0. -1.
         -1   -1    0    0    0  501 -0.00000000000E+00 -0.00000000000E+00 -0.29815905308E+02  0.29815905674E+02  0.46700000000E-02 0.  1.
         23    2    1    2    0    0  0.00000000000E+00  0.00000000000E+00  0.39191469055E+02  0.98823280194E+02  0.90719730278E+02 0.  0.
        -13    1    3    3    0    0 -0.91692425405E+01 -0.99706107966E+01 -0.27561074065E+02  0.30710129673E+02  0.10570000000E+00 0.  1.
         13    1    3    3    0    0  0.91692425405E+01  0.99706107966E+01  0.66752543120E+02  0.68113150521E+02  0.10570000000E+00 0. -1.
<mgrwt>
<rscale>  0 0.90719730E+02</rscale>
<asrwt>0</asrwt>
<pdfrwt beam="1">  1        1 0.10616519E-01 0.90719730E+02</pdfrwt>
<pdfrwt beam="2">  1       -1 0.45870625E-02 0.90719730E+02</pdfrwt>
<totfact> 0.99823777E+04</totfact>
</mgrwt>
</event>
<event>
 5   1  0.1388354E+00  0.9188816E+02  0.7818608E-02  0.1298343E+00
         -1   -1    0    0    0  501 -0.00000000000E+00  0.00000000000E+00  0.66327480028E+02  0.66327480192E+02  0.46700000000E-02 0.  1.
          1   -1    0    0  501    0  0.00000000000E+00 -0.00000000000E+00 -0.31824796102E+02  0.31824796445E+02  0.46700000000E-02 0. -1.
         23    2    1    2    0    0  0.00000000000E+00  0.00000000000E+00  0.34502683926E+02  0.98152276637E+02  0.91888161430E+02 0.  0.
        -13    1    3    3    0    0 -0.24724144723E+02 -0.13680374631E+02 -0.21445525704E+02  0.35473338263E+02  0.10570000000E+00 0. -1.
         13    1    3    3    0    0  0.24724144723E+02  0.13680374631E+02  0.55948209630E+02  0.62678938374E+02  0.10570000000E+00 0.  1.
<mgrwt>
<rscale>  0 0.91888161E+02</rscale>
<asrwt>0</asrwt>
<pdfrwt beam="2">  1        1 0.48961225E-02 0.91888161E+02</pdfrwt>
<pdfrwt beam="1">  1       -1 0.10204228E-01 0.91888161E+02</pdfrwt>
<totfact> 0.85580136E+04</totfact>
</mgrwt>
</event>
<event>
 5   1  0.1388354E+00  0.8888666E+02  0.7818608E-02  0.1305570E+00
          1   -1    0    0  501    0  0.00000000000E+00  0.00000000000E+00  0.30051796689E+03  0.30051796693E+03  0.46700000000E-02 0. -1.
         -1   -1    0    0    0  501 -0.00000000000E+00 -0.00000000000E+00 -0.65726828099E+01  0.65726844690E+01  0.46700000000E-02 0.  1.
         23    2    1    2    0    0  0.00000000000E+00  0.00000000000E+00  0.29394528408E+03  0.30709065140E+03  0.88886658963E+02 0.  0.
        -13    1    3    3    0    0  0.21189244399E+02  0.35253272730E+02  0.20513554332E+03  0.20921849732E+03  0.10570000000E+00 0. -1.
         13    1    3    3    0    0 -0.21189244399E+02 -0.35253272730E+02  0.88809740761E+02  0.97872154073E+02  0.10570000000E+00 0.  1.
<mgrwt>
<rscale>  0 0.88886659E+02</rscale>
<asrwt>0</asrwt>
<pdfrwt beam="1">  1        1 0.46233531E-01 0.88886659E+02</pdfrwt>
<pdfrwt beam="2">  1       -1 0.10111822E-02 0.88886659E+02</pdfrwt>
<totfact> 0.13713520E+05</totfact>
</mgrwt>
</event>
<event>
 5   1  0.1388354E+00  0.9109202E+02  0.7818608E-02  0.1300229E+00
          1   -1    0    0  501    0  0.00000000000E+00  0.00000000000E+00  0.49559154701E+02  0.49559154921E+02  0.46700000000E-02 0. -1.
         -1   -1    0    0    0  501 -0.00000000000E+00 -0.00000000000E+00 -0.41857834879E+02  0.41857835140E+02  0.46700000000E-02 0.  1.
         23    2    1    2    0    0  0.00000000000E+00  0.00000000000E+00  0.77013198216E+01  0.91416990061E+02  0.91092018008E+02 0.  0.
        -13    1    3    3    0    0 -0.32512360450E+01 -0.35067644361E+02  0.32834786858E+02  0.48150229671E+02  0.10570000000E+00 0. -1.
         13    1    3    3    0    0  0.32512360450E+01  0.35067644361E+02 -0.25133467037E+02  0.43266760390E+02  0.10570000000E+00 0.  1.
<mgrwt>
<rscale>  0 0.91092018E+02</rscale>
<asrwt>0</asrwt>
<pdfrwt beam="1">  1        1 0.76244853E-02 0.91092018E+02</pdfrwt>
<pdfrwt beam="2">  1       -1 0.64396670E-02 0.91092018E+02</pdfrwt>
<totfact> 0.93883611E+04</totfact>
</mgrwt>
</event>
<event>
 5   1  0.1388354E+00  0.9108180E+02  0.7818608E-02  0.1300253E+00
          1   -1    0    0  501    0  0.00000000000E+00  0.00000000000E+00  0.59890113108E+02  0.59890113290E+02  0.46700000000E-02 0. -1.
         -1   -1    0    0    0  501 -0.00000000000E+00 -0.00000000000E+00 -0.34629650384E+02  0.34629650699E+02  0.46700000000E-02 0.  1.
         23    2    1    2    0    0  0.00000000000E+00  0.00000000000E+00  0.25260462724E+02  0.94519763988E+02  0.91081802833E+02 0.  0.
        -13    1    3    3    0    0  0.44838222063E+01  0.44262639245E+02  0.25327649603E+01  0.44561328138E+02  0.10570000000E+00 0.  1.
         13    1    3    3    0    0 -0.44838222063E+01 -0.44262639245E+02  0.22727697764E+02  0.49958435851E+02  0.10570000000E+00 0. -1.
<mgrwt>
<rscale>  0 0.91081803E+02</rscale>
<asrwt>0</asrwt>
<pdfrwt beam="1">  1        1 0.92138636E-02 0.91081803E+02</pdfrwt>
<pdfrwt beam="2">  1       -1 0.53276386E-02 0.91081803E+02</pdfrwt>
<totfact> 0.96623919E+04</totfact>
</mgrwt>
</event>
<event>
 5   1  0.1388354E+00  0.9024677E+02  0.7818608E-02  0.1302255E+00
          1   -1    0    0  501    0  0.00000000000E+00  0.00000000000E+00  0.13038619789E+02  0.13038620625E+02  0.46700000000E-02 0. -1.
         -1   -1    0    0    0  501 -0.00000000000E+00 -0.00000000000E+00 -0.15616068616E+03  0.15616068623E+03  0.46700000000E-02 0.  1.
         23    2    1    2    0    0  0.00000000000E+00  0.00000000000E+00 -0.14312206638E+03  0.16919930686E+03  0.90246770348E+02 0.  0.
        -13    1    3    3    0    0 -0.12515870939E+02 -0.29708814137E+02 -0.12366528146E+02  0.34528290628E+02  0.10570000000E+00 0. -1.
         13    1    3    3    0    0  0.12515870939E+02  0.29708814137E+02 -0.13075553823E+03  0.13467101623E+03  0.10570000000E+00 0.  1.
<mgrwt>
<rscale>  0 0.90246770E+02</rscale>
<asrwt>0</asrwt>
<pdfrwt beam="1">  1        1 0.20059417E-02 0.90246770E+02</pdfrwt>
<pdfrwt beam="2">  1       -1 0.24024720E-01 0.90246770E+02</pdfrwt>
<totfact> 0.76075093E+04</totfact>
</mgrwt>
</event>
<event>
 4   1  0.1388354E+00  0.4298178E+02  0.7818608E-02  0.1487349E+00
          1   -1    0    0  501    0  0.00000000000E+00  0.00000000000E+00  0.31054422062E+02  0.31054422414E+02  0.46700000000E-02 0.  1.
         -1   -1    0    0    0  501 -0.00000000000E+00 -0.00000000000E+00 -0.14872544167E+02  0.14872544900E+02  0.46700000000E-02 0. -1.
        -13    1    1    2    0    0  0.15771441057E+02  0.14416271903E+02  0.10546184394E+02  0.23828563246E+02  0.10570000000E+00 0.  1.
         13    1    1    2    0    0 -0.15771441057E+02 -0.14416271903E+02  0.56356935017E+01  0.22098404068E+02  0.10570000000E+00 0. -1.
<mgrwt>
<rscale>  0 0.42981777E+02</rscale>
<asrwt>0</asrwt>
<pdfrwt beam="1">  1        1 0.47776034E-02 0.42981777E+02</pdfrwt>
<pdfrwt beam="2">  1       -1 0.22880838E-02 0.42981777E+02</pdfrwt>
<totfact> 0.65633189E+05</totfact>
</mgrwt>
</event>
<event>
 5   1  0.1388354E+00  0.9372921E+02  0.7818608E-02  0.1294064E+00
         -1   -1    0    0    0  501 -0.00000000000E+00  0.00000000000E+00  0.50480884183E+02  0.50480884399E+02  0.46700000000E-02 0. -1.
          1   -1    0    0  501    0  0.00000000000E+00 -0.00000000000E+00 -0.43507387297E+02  0.43507387548E+02  0.46700000000E-02 0.  1.
         23    2    1    2    0    0  0.00000000000E+00  0.00000000000E+00  0.69734968860E+01  0.93988271947E+02  0.93729214254E+02 0.  0.
        -13    1    3    3    0    0 -0.76549189207E+01  0.34566742045E+02 -0.27303537652E+02  0.44709638559E+02  0.10570000000E+00 0.  1.
         13    1    3    3    0    0  0.76549189207E+01 -0.34566742045E+02  0.34277034538E+02  0.49278633387E+02  0.10570000000E+00 0. -1.
<mgrwt>
<rscale>  0 0.93729214E+02</rscale>
<asrwt>0</asrwt>
<pdfrwt beam="2">  1        1 0.66934442E-02 0.93729214E+02</pdfrwt>
<pdfrwt beam="1">  1       -1 0.77662899E-02 0.93729214E+02</pdfrwt>
<totfact> 0.84940947E+04</totfact>
</mgrwt>
</event>
<event>
 5   1  0.1388354E+00  0.8829271E+02  0.7818608E-02  0.1307040E+00
          1   -1    0    0  501    0  0.00000000000E+00  0.00000000000E+00  0.34476262597E+03  0.34476262600E+03  0.46700000000E-02 0. -1.
         -1   -1    0    0    0  501 -0.00000000000E+00 -0.00000000000E+00 -0.56528763123E+01  0.56528782413E+01  0.46700000000E-02 0.  1.
         23    2    1    2    0    0  0.00000000000E+00  0.00000000000E+00  0.33910974965E+03  0.35041550424E+03  0.88292713747E+02 0.  0.
        -13    1    3    3    0    0  0.67319087958E+01 -0.43544112060E+02  0.15869940134E+03  0.16470251805E+03  0.10570000000E+00 0.  1.
         13    1    3    3    0    0 -0.67319087958E+01  0.43544112060E+02  0.18041034831E+03  0.18571298619E+03  0.10570000000E+00 0. -1.
<mgrwt>
<rscale>  0 0.88292714E+02</rscale>
<asrwt>0</asrwt>
<pdfrwt beam="1">  1        1 0.53040421E-01 0.88292714E+02</pdfrwt>
<pdfrwt beam="2">  1       -1 0.86967315E-03 0.88292714E+02</pdfrwt>
<totfact> 0.14318506E+05</totfact>
</mgrwt>
</event>
<event>
 5   1  0.1388354E+00  0.9089401E+02  0.7818608E-02  0.1300701E+00
          1   -1    0    0  501    0  0.00000000000E+00  0.00000000000E+00  0.17800056868E+02  0.17800057480E+02  0.46700000000E-02 0. -1.
         -1   -1    0    0    0  501 -0.00000000000E+00 -0.00000000000E+00 -0.11603503519E+03  0.11603503529E+03  0.46700000000E-02 0.  1.
         23    2    1    2    0    0  0.00000000000E+00  0.00000000000E+00 -0.98234978325E+02  0.13383509277E+03  0.90894010196E+02 0.  0.
        -13    1    3    3    0    0  0.14090358447E+02 -0.43159775673E+02 -0.46130718688E+02  0.64725256404E+02  0.10570000000E+00 0.  1.
         13    1    3    3    0    0 -0.14090358447E+02  0.43159775673E+02 -0.52104259636E+02  0.69109836363E+02  0.10570000000E+00 0. -1.
<mgrwt>
<rscale>  0 0.90894010E+02</rscale>
<asrwt>0</asrwt>
<pdfrwt beam="1">  1        1 0.27384704E-02 0.90894010E+02</pdfrwt>
<pdfrwt beam="2">  1       -1 0.17851544E-01 0.90894010E+02</pdfrwt>
<totfact> 0.79704261E+04</totfact>
</mgrwt>
</event>
<event>
 5   1  0.1388354E+00  0.9064833E+02  0.7818608E-02  0.1301289E+00
         -1   -1    0    0    0  501 -0.00000000000E+00  0.00000000000E+00  0.32296950660E+02  0.32296950998E+02  0.46700000000E-02 0.  1.
          1   -1    0    0  501    0  0.00000000000E+00 -0.00000000000E+00 -0.63606008570E+02  0.63606008742E+02  0.46700000000E-02 0. -1.
         23    2    1    2    0    0  0.00000000000E+00  0.00000000000E+00 -0.31309057910E+02  0.95902959739E+02  0.90648334676E+02 0.  0.
        -13    1    3    3    0    0 -0.12217702352E+02  0.10971055691E+02  0.29039200800E+02  0.33360495640E+02  0.10570000000E+00 0.  1.
         13    1    3    3    0    0  0.12217702352E+02 -0.10971055691E+02 -0.60348258710E+02  0.62542464099E+02  0.10570000000E+00 0. -1.
<mgrwt>
<rscale>  0 0.90648335E+02</rscale>
<asrwt>0</asrwt>
<pdfrwt beam="2">  1        1 0.97855398E-02 0.90648335E+02</pdfrwt>
<pdfrwt beam="1">  1       -1 0.49687617E-02 0.90648335E+02</pdfrwt>
<totfact> 0.98804446E+04</totfact>
</mgrwt>
</event>
<event>
 5   1  0.1388354E+00  0.9105317E+02  0.7818608E-02  0.1300321E+00
         -1   -1    0    0    0  501 -0.00000000000E+00  0.00000000000E+00  0.23572326864E+03  0.23572326868E+03  0.46700000000E-02 0.  1.
          1   -1    0    0  501    0  0.00000000000E+00 -0.00000000000E+00 -0.87928101894E+01  0.87928114296E+01  0.46700000000E-02 0. -1.
         23    2    1    2    0    0  0.00000000000E+00  0.00000000000E+00  0.22693045845E+03  0.24451608011E+03  0.91053173819E+02 0.  0.
        -13    1    3    3    0    0 -0.14656768109E+02 -0.30374746623E+02  0.31341706315E+02  0.46040849373E+02  0.10570000000E+00 0. -1.
         13    1    3    3    0    0  0.14656768109E+02  0.30374746623E+02  0.19558875213E+03  0.19847523074E+03  0.10570000000E+00 0.  1.
<mgrwt>
<rscale>  0 0.91053174E+02</rscale>
<asrwt>0</asrwt>
<pdfrwt beam="2">  1        1 0.13527403E-02 0.91053174E+02</pdfrwt>
<pdfrwt beam="1">  1       -1 0.36265113E-01 0.91053174E+02</pdfrwt>
<totfact> 0.66273109E+04</totfact>
</mgrwt>
</event>
<event>
 5   1  0.1388354E+00  0.9536419E+02  0.7818608E-02  0.1290358E+00
          1   -1    0    0  501    0  0.00000000000E+00  0.00000000000E+00  0.50015732906E+03  0.50015732908E+03  0.46700000000E-02 0. -1.
         -1   -1    0    0    0  501 -0.00000000000E+00 -0.00000000000E+00 -0.45457325426E+01  0.45457349414E+01  0.46700000000E-02 0.  1.
         23    2    1    2    0    0  0.00000000000E+00  0.00000000000E+00  0.49561159652E+03  0.50470306402E+03  0.95364187365E+02 0.  0.
        -13    1    3    3    0    0 -0.35264623137E+02 -0.31980096587E+02  0.26205660598E+03  0.26634563284E+03  0.10570000000E+00 0. -1.
         13    1    3    3    0    0  0.35264623137E+02  0.31980096587E+02  0.23355499054E+03  0.23835743118E+03  0.10570000000E+00 0.  1.
<mgrwt>
<rscale>  0 0.95364187E+02</rscale>
<asrwt>0</asrwt>
<pdfrwt beam="1">  1        1 0.76947297E-01 0.95364187E+02</pdfrwt>
<pdfrwt beam="2">  1       -1 0.69934352E-03 0.95364187E+02</pdfrwt>
<totfact> 0.12360911E+05</totfact>
</mgrwt>
</event>
<event>
 5   1  0.1388354E+00  0.9056359E+02  0.7818608E-02  0.1301493E+00
         -1   -1    0    0    0  501 -0.00000000000E+00  0.00000000000E+00  0.58458907400E+02  0.58458907587E+02  0.46700000000E-02 0.  1.
          1   -1    0    0  501    0  0.00000000000E+00 -0.00000000000E+00 -0.35074910276E+02  0.35074910587E+02  0.46700000000E-02 0. -1.
         23    2    1    2    0    0  0.00000000000E+00  0.00000000000E+00  0.23383997124E+02  0.93533818173E+02  0.90563589928E+02 0.  0.
        -13    1    3    3    0    0 -0.44400791113E+02  0.67201650345E+01  0.17699906048E+02  0.48268920810E+02  0.10570000000E+00 0.  1.
         13    1    3    3    0    0  0.44400791113E+02 -0.67201650345E+01  0.56840910763E+01  0.45264897364E+02  0.10570000000E+00 0. -1.
<mgrwt>
<rscale>  0 0.90563590E+02</rscale>
<asrwt>0</asrwt>
<pdfrwt beam="2">  1        1 0.53961401E-02 0.90563590E+02</pdfrwt>
<pdfrwt beam="1">  1       -1 0.89936781E-02 0.90563590E+02</pdfrwt>
<totfact> 0.90573867E+04</totfact>
</mgrwt>
</event>
<event>
 5   1  0.1388354E+00  0.9219169E+02  0.7818608E-02  0.1297629E+00
         -1   -1    0    0    0  501 -0.00000000000E+00  0.00000000000E+00  0.98399229810E+01  0.98399240892E+01  0.46700000000E-02 0.  1.
          1   -1    0    0  501    0  0.00000000000E+00 -0.00000000000E+00 -0.21593935862E+03  0.21593935867E+03  0.46700000000E-02 0. -1.
         23    2    1    2    0    0  0.00000000000E+00  0.00000000000E+00 -0.20609943564E+03  0.22577928276E+03  0.92191687004E+02 0.  0.
        -13    1    3    3    0    0  0.40416556280E+02  0.18098837461E+02 -0.71710904126E+02  0.84282447058E+02  0.10570000000E+00 0.  1.
         13    1    3    3    0    0 -0.40416556280E+02 -0.18098837461E+02 -0.13438853151E+03  0.14149683570E+03  0.10570000000E+00 0. -1.
<mgrwt>
<rscale>  0 0.92191687E+02</rscale>
<asrwt>0</asrwt>
<pdfrwt beam="2">  1        1 0.33221436E-01 0.92191687E+02</pdfrwt>
<pdfrwt beam="1">  1       -1 0.15138346E-02 0.92191687E+02</pdfrwt>
<totfact> 0.11667032E+05</totfact>
</mgrwt>
</event>
<event>
 5   1  0.1388354E+00  0.8988451E+02  0.7818608E-02  0.1303132E+00
          1   -1    0    0  501    0  0.00000000000E+00  0.00000000000E+00  0.21097667566E+03  0.21097667571E+03  0.46700000000E-02 0. -1.
         -1   -1    0    0    0  501 -0.00000000000E+00 -0.00000000000E+00 -0.95735985001E+01  0.95735996391E+01  0.46700000000E-02 0.  1.
         23    2    1    2    0    0  0.00000000000E+00  0.00000000000E+00  0.20140307716E+03  0.22055027535E+03  0.89884506273E+02 0.  0.
        -13    1    3    3    0    0 -0.11317104223E+02 -0.42830720286E+02  0.11926679772E+03  0.12722864324E+03  0.10570000000E+00 0.  1.
         13    1    3    3    0    0  0.11317104223E+02  0.42830720286E+02  0.82136279436E+02  0.93321632114E+02  0.10570000000E+00 0. -1.
<mgrwt>
<rscale>  0 0.89884506E+02</rscale>
<asrwt>0</asrwt>
<pdfrwt beam="1">  1        1 0.32457948E-01 0.89884506E+02</pdfrwt>
<pdfrwt beam="2">  1       -1 0.14728615E-02 0.89884506E+02</pdfrwt>
<totfact> 0.12430040E+05</totfact>
</mgrwt>
</event>
<event>
 5   1  0.1388354E+00  0.9086332E+02  0.7818608E-02  0.1300774E+00
         -1   -1    0    0    0  501 -0.00000000000E+00  0.00000000000E+00  0.43415983293E+02  0.43415983544E+02  0.46700000000E-02 0. -1.
          1   -1    0    0  501    0  0.00000000000E+00 -0.00000000000E+00 -0.47540914633E+02  0.47540914862E+02  0.46700000000E-02 0.  1.
         23    2    1    2    0    0  0.00000000000E+00  0.00000000000E+00 -0.41249313405E+01  0.90956898406E+02  0.90863316631E+02 0.  0.
        -13    1    3    3    0    0 -0.35710733232E+02 -0.23530069451E+02  0.13286420057E+02  0.44782371161E+02  0.10570000000E+00 0.  1.
         13    1    3    3    0    0  0.35710733232E+02  0.23530069451E+02 -0.17411351398E+02  0.46174527245E+02  0.10570000000E+00 0. -1.
<mgrwt>
<rscale>  0 0.90863317E+02</rscale>
<asrwt>0</asrwt>
<pdfrwt beam="2">  1        1 0.73139869E-02 0.90863317E+02</pdfrwt>
<pdfrwt beam="1">  1       -1 0.66793821E-02 0.90863317E+02</pdfrwt>
<totfact> 0.93958800E+04</totfact>
</mgrwt>
</event>
<event>
 5   1  0.1388354E+00  0.9261155E+02  0.7818608E-02  0.1296648E+00
         -1   -1    0    0    0  501 -0.00000000000E+00  0.00000000000E+00  0.70806563619E+01  0.70806579020E+01  0.46700000000E-02 0.  1.
          1   -1    0    0  501    0  0.00000000000E+00 -0.00000000000E+00 -0.30282846931E+03  0.30282846935E+03  0.46700000000E-02 0. -1.
         23    2    1    2    0    0  0.00000000000E+00  0.00000000000E+00 -0.29574781295E+03  0.30990912725E+03  0.92611545112E+02 0.  0.
        -13    1    3    3    0    0  0.77924140307E+01  0.39484106374E+02 -0.71236508238E+02  0.81819115438E+02  0.10570000000E+00 0.  1.
         13    1    3    3    0    0 -0.77924140307E+01 -0.39484106374E+02 -0.22451130471E+03  0.22809001181E+03  0.10570000000E+00 0. -1.
<mgrwt>
<rscale>  0 0.92611545E+02</rscale>
<asrwt>0</asrwt>
<pdfrwt beam="2">  1        1 0.46588985E-01 0.92611545E+02</pdfrwt>
<pdfrwt beam="1">  1       -1 0.10893321E-02 0.92611545E+02</pdfrwt>
<totfact> 0.12311435E+05</totfact>
</mgrwt>
</event>
<event>
 5   1  0.1388354E+00  0.9302831E+02  0.7818608E-02  0.1295680E+00
         -1   -1    0    0    0  501 -0.00000000000E+00  0.00000000000E+00  0.92705624616E+01  0.92705636378E+01  0.46700000000E-02 0.  1.
          1   -1    0    0  501    0  0.00000000000E+00 -0.00000000000E+00 -0.23338027310E+03  0.23338027315E+03  0.46700000000E-02 0. -1.
         23    2    1    2    0    0  0.00000000000E+00  0.00000000000E+00 -0.22410971064E+03  0.24265083679E+03  0.93028308540E+02 0.  0.
        -13    1    3    3    0    0  0.14794674413E+02 -0.29503077487E+02 -0.26564403554E+02  0.42367353952E+02  0.10570000000E+00 0.  1.
         13    1    3    3    0    0 -0.14794674413E+02  0.29503077487E+02 -0.19754530709E+03  0.20028348283E+03  0.10570000000E+00 0. -1.
<mgrwt>
<rscale>  0 0.93028309E+02</rscale>
<asrwt>0</asrwt>
<pdfrwt beam="2">  1        1 0.35904653E-01 0.93028309E+02</pdfrwt>
<pdfrwt beam="1">  1       -1 0.14262407E-02 0.93028309E+02</pdfrwt>
<totfact> 0.11562334E+05</totfact>
</mgrwt>
</event>
<event>
 5   1  0.1388354E+00  0.9063980E+02  0.7818608E-02  0.1301310E+00
          1   -1    0    0  501    0  0.00000000000E+00  0.00000000000E+00  0.71174965424E+02  0.71174965577E+02  0.46700000000E-02 0. -1.
         -1   -1    0    0    0  501 -0.00000000000E+00 -0.00000000000E+00 -0.28856965372E+02  0.28856965750E+02  0.46700000000E-02 0.  1.
         23    2    1    2    0    0  0.00000000000E+00  0.00000000000E+00  0.42318000052E+02  0.10003193133E+03  0.90639804482E+02 0.  0.
        -13    1    3    3    0    0 -0.29542157113E+02 -0.19087827448E+01 -0.16711420474E+02  0.33995076779E+02  0.10570000000E+00 0.  1.
         13    1    3    3    0    0  0.29542157113E+02  0.19087827448E+01  0.59029420526E+02  0.66036854548E+02  0.10570000000E+00 0. -1.
<mgrwt>
<rscale>  0 0.90639804E+02</rscale>
<asrwt>0</asrwt>
<pdfrwt beam="1">  1        1 0.10949995E-01 0.90639804E+02</pdfrwt>
<pdfrwt beam="2">  1       -1 0.44395332E-02 0.90639804E+02</pdfrwt>
<totfact> 0.10054352E+05</totfact>
</mgrwt>
</event>
<event>
 5   1  0.1388354E+00  0.9416631E+02  0.7818608E-02  0.1293065E+00
          1   -1    0    0  501    0  0.00000000000E+00  0.00000000000E+00  0.83092524280E+02  0.83092524412E+02  0.46700000000E-02 0. -1.
         -1   -1    0    0    0  501 -0.00000000000E+00 -0.00000000000E+00 -0.26678973227E+02  0.26678973636E+02  0.46700000000E-02 0.  1.
         23    2    1    2    0    0  0.00000000000E+00  0.00000000000E+00  0.56413551053E+02  0.10977149805E+03  0.94166305233E+02 0.  0.
        -13    1    3    3    0    0  0.33838885523E+02  0.17160441111E+01  0.66317016542E+02  0.74471288671E+02  0.10570000000E+00 0. -1.
         13    1    3    3    0    0 -0.33838885523E+02 -0.17160441111E+01 -0.99034654890E+01  0.35300209377E+02  0.10570000000E+00 0.  1.
<mgrwt>
<rscale>  0 0.94166305E+02</rscale>
<asrwt>0</asrwt>
<pdfrwt beam="1">  1        1 0.12783465E-01 0.94166305E+02</pdfrwt>
<pdfrwt beam="2">  1       -1 0.41044574E-02 0.94166305E+02</pdfrwt>
<totfact> 0.92747353E+04</totfact>
</mgrwt>
</event>
<event>
 5   1  0.1388354E+00  0.9563720E+02  0.7818608E-02  0.1289747E+00
          1   -1    0    0  501    0  0.00000000000E+00  0.00000000000E+00  0.80744726059E+01  0.80744739564E+01  0.46700000000E-02 0. -1.
         -1   -1    0    0    0  501 -0.00000000000E+00 -0.00000000000E+00 -0.28319103803E+03  0.28319103807E+03  0.46700000000E-02 0.  1.
         23    2    1    2    0    0  0.00000000000E+00  0.00000000000E+00 -0.27511656542E+03  0.29126551202E+03  0.95637199479E+02 0.  0.
        -13    1    3    3    0    0 -0.26005308447E+02  0.39589217779E+02 -0.11758161523E+03  0.12676367636E+03  0.10570000000E+00 0.  1.
         13    1    3    3    0    0  0.26005308447E+02 -0.39589217779E+02 -0.15753495019E+03  0.16450183566E+03  0.10570000000E+00 0. -1.
<mgrwt>
<rscale>  0 0.95637199E+02</rscale>
<asrwt>0</asrwt>
<pdfrwt beam="1">  1        1 0.12422269E-02 0.95637199E+02</pdfrwt>
<pdfrwt beam="2">  1       -1 0.43567845E-01 0.95637199E+02</pdfrwt>
<totfact> 0.54659550E+04</totfact>
</mgrwt>
</event>
<event>
 5   1  0.1388354E+00  0.7779264E+02  0.7818608E-02  0.1335435E+00
          1   -1    0    0  501    0  0.00000000000E+00  0.00000000000E+00  0.20096203799E+02  0.20096204341E+02  0.46700000000E-02 0. -1.
         -1   -1    0    0    0  501 -0.00000000000E+00 -0.00000000000E+00 -0.75284060627E+02  0.75284060772E+02  0.46700000000E-02 0.  1.
         23    2    1    2    0    0  0.00000000000E+00  0.00000000000E+00 -0.55187856828E+02  0.95380265113E+02  0.77792643815E+02 0.  0.
        -13    1    3    3    0    0 -0.30913695251E+02  0.97870629836E+00  0.13244440249E+01  0.30957708968E+02  0.10570000000E+00 0. -1.
         13    1    3    3    0    0  0.30913695251E+02 -0.97870629836E+00 -0.56512300853E+02  0.64422556145E+02  0.10570000000E+00 0.  1.
<mgrwt>
<rscale>  0 0.77792644E+02</rscale>
<asrwt>0</asrwt>
<pdfrwt beam="1">  1        1 0.30917237E-02 0.77792644E+02</pdfrwt>
<pdfrwt beam="2">  1       -1 0.11582163E-01 0.77792644E+02</pdfrwt>
<totfact> 0.12816888E+05</totfact>
</mgrwt>
</event>
<event>
 5   1  0.1388354E+00  0.9805117E+02  0.7818608E-02  0.1284448E+00
         -1   -1    0    0    0  501 -0.00000000000E+00  0.00000000000E+00  0.27323021441E+03  0.27323021445E+03  0.46700000000E-02 0.  1.
          1   -1    0    0  501    0  0.00000000000E+00 -0.00000000000E+00 -0.87966399370E+01  0.87966411766E+01  0.46700000000E-02 0. -1.
         23    2    1    2    0    0  0.00000000000E+00  0.00000000000E+00  0.26443357448E+03  0.28202685563E+03  0.98051170244E+02 0.  0.
        -13    1    3    3    0    0  0.35161294535E+02 -0.25028033393E+02  0.65328960520E+02  0.78298169481E+02  0.10570000000E+00 0.  1.
         13    1    3    3    0    0 -0.35161294535E+02  0.25028033393E+02  0.19910461396E+03  0.20372868615E+03  0.10570000000E+00 0. -1.
<mgrwt>
<rscale>  0 0.98051170E+02</rscale>
<asrwt>0</asrwt>
<pdfrwt beam="2">  1        1 0.13533293E-02 0.98051170E+02</pdfrwt>
<pdfrwt beam="1">  1       -1 0.42035419E-01 0.98051170E+02</pdfrwt>
<totfact> 0.51883372E+04</totfact>
</mgrwt>
</event>
<event>
 5   1  0.1388354E+00  0.9190873E+02  0.7818608E-02  0.1298294E+00
          1   -1    0    0  501    0  0.00000000000E+00  0.00000000000E+00  0.12109092172E+03  0.12109092181E+03  0.46700000000E-02 0. -1.
         -1   -1    0    0    0  501 -0.00000000000E+00 -0.00000000000E+00 -0.17439818925E+02  0.17439819550E+02  0.46700000000E-02 0.  1.
         23    2    1    2    0    0  0.00000000000E+00  0.00000000000E+00  0.10365110279E+03  0.13853074136E+03  0.91908732942E+02 0.  0.
        -13    1    3    3    0    0 -0.44157776270E+02  0.12690781406E+02  0.50454448335E+02  0.68239487594E+02  0.10570000000E+00 0.  1.
         13    1    3    3    0    0  0.44157776270E+02 -0.12690781406E+02  0.53196654457E+02  0.70291253764E+02  0.10570000000E+00 0. -1.
<mgrwt>
<rscale>  0 0.91908733E+02</rscale>
<asrwt>0</asrwt>
<pdfrwt beam="1">  1        1 0.18629373E-01 0.91908733E+02</pdfrwt>
<pdfrwt beam="2">  1       -1 0.26830491E-02 0.91908733E+02</pdfrwt>
<totfact> 0.10559114E+05</totfact>
</mgrwt>
</event>
<event>
 5   1  0.1388354E+00  0.9183929E+02  0.7818608E-02  0.1298458E+00
         -1   -1    0    0    0  501 -0.00000000000E+00  0.00000000000E+00  0.10231420625E+03  0.10231420636E+03  0.46700000000E-02 0.  1.
          1   -1    0    0  501    0  0.00000000000E+00 -0.00000000000E+00 -0.20609199136E+02  0.20609199665E+02  0.46700000000E-02 0. -1.
         23    2    1    2    0    0  0.00000000000E+00  0.00000000000E+00  0.81705007117E+02  0.12292340602E+03  0.91839292031E+02 0.  0.
        -13    1    3    3    0    0 -0.31201465567E+02  0.93715282797E+01 -0.24617022401E+01  0.32671518885E+02  0.10570000000E+00 0. -1.
         13    1    3    3    0    0  0.31201465567E+02 -0.93715282797E+01  0.84166709357E+02  0.90251887140E+02  0.10570000000E+00 0.  1.
<mgrwt>
<rscale>  0 0.91839292E+02</rscale>
<asrwt>0</asrwt>
<pdfrwt beam="2">  1        1 0.31706460E-02 0.91839292E+02</pdfrwt>
<pdfrwt beam="1">  1       -1 0.15740647E-01 0.91839292E+02</pdfrwt>
<totfact> 0.79524243E+04</totfact>
</mgrwt>
</event>
<event>
 5   1  0.1388354E+00  0.8876115E+02  0.7818608E-02  0.1305880E+00
          1   -1    0    0  501    0  0.00000000000E+00  0.00000000000E+00  0.20244419745E+03  0.20244419750E+03  0.46700000000E-02 0. -1.
         -1   -1    0    0    0  501 -0.00000000000E+00 -0.00000000000E+00 -0.97292743075E+01  0.97292754283E+01  0.46700000000E-02 0.  1.
         23    2    1    2    0    0  0.00000000000E+00  0.00000000000E+00  0.19271492314E+03  0.21217347293E+03  0.88761145859E+02 0.  0.
        -13    1    3    3    0    0 -0.34221796183E+02 -0.46461621443E+01  0.29730132831E+02  0.45569837911E+02  0.10570000000E+00 0.  1.
         13    1    3    3    0    0  0.34221796183E+02  0.46461621443E+01  0.16298479031E+03  0.16660363502E+03  0.10570000000E+00 0. -1.
<mgrwt>
<rscale>  0 0.88761146E+02</rscale>
<asrwt>0</asrwt>
<pdfrwt beam="1">  1        1 0.31145256E-01 0.88761146E+02</pdfrwt>
<pdfrwt beam="2">  1       -1 0.14968118E-02 0.88761146E+02</pdfrwt>
<totfact> 0.12752605E+05</totfact>
</mgrwt>
</event>
<event>
 5   1  0.1388354E+00  0.9240210E+02  0.7818608E-02  0.1297137E+00
          1   -1    0    0  501    0  0.00000000000E+00  0.00000000000E+00  0.29973673991E+03  0.29973673994E+03  0.46700000000E-02 0. -1.
         -1   -1    0    0    0  501 -0.00000000000E+00 -0.00000000000E+00 -0.71213722645E+01  0.71213737957E+01  0.46700000000E-02 0.  1.
         23    2    1    2    0    0  0.00000000000E+00  0.00000000000E+00  0.29261536764E+03  0.30685811374E+03  0.92402102719E+02 0.  0.
        -13    1    3    3    0    0  0.38223804996E+02  0.23929736401E+02  0.17965494436E+03  0.18522851227E+03  0.10570000000E+00 0. -1.
         13    1    3    3    0    0 -0.38223804996E+02 -0.23929736401E+02  0.11296042328E+03  0.12162960147E+03  0.10570000000E+00 0.  1.
<mgrwt>
<rscale>  0 0.92402103E+02</rscale>
<asrwt>0</asrwt>
<pdfrwt beam="1">  1        1 0.46113332E-01 0.92402103E+02</pdfrwt>
<pdfrwt beam="2">  1       -1 0.10955962E-02 0.92402103E+02</pdfrwt>
<totfact> 0.12361838E+05</totfact>
</mgrwt>
</event>
<event>
 5   1  0.1388354E+00  0.9065539E+02  0.7818608E-02  0.1301272E+00
         -1   -1    0    0    0  501 -0.00000000000E+00  0.00000000000E+00  0.43563031130E+02  0.43563031380E+02  0.46700000000E-02 0.  1.
          1   -1    0    0  501    0  0.00000000000E+00 -0.00000000000E+00 -0.47163844001E+02  0.47163844232E+02  0.46700000000E-02 0. -1.
         23    2    1    2    0    0  0.00000000000E+00  0.00000000000E+00 -0.36008128715E+01  0.90726875612E+02  0.90655392035E+02 0.  0.
        -13    1    3    3    0    0 -0.34958150112E+02  0.22293032412E+02  0.16531714683E+02  0.44635863565E+02  0.10570000000E+00 0.  1.
         13    1    3    3    0    0  0.34958150112E+02 -0.22293032412E+02 -0.20132527554E+02  0.46091012047E+02  0.10570000000E+00 0. -1.
<mgrwt>
<rscale>  0 0.90655392E+02</rscale>
<asrwt>0</asrwt>
<pdfrwt beam="2">  1        1 0.72559761E-02 0.90655392E+02</pdfrwt>
<pdfrwt beam="1">  1       -1 0.67020048E-02 0.90655392E+02</pdfrwt>
<totfact> 0.94450236E+04</totfact>
</mgrwt>
</event>
<event>
 5   1  0.1388354E+00  0.8971958E+02  0.7818608E-02  0.1303532E+00
         -1   -1    0    0    0  501 -0.00000000000E+00  0.00000000000E+00  0.56577269111E+01  0.56577288384E+01  0.46700000000E-02 0.  1.
          1   -1    0    0  501    0  0.00000000000E+00 -0.00000000000E+00 -0.35569065825E+03  0.35569065828E+03  0.46700000000E-02 0. -1.
         23    2    1    2    0    0  0.00000000000E+00  0.00000000000E+00 -0.35003293134E+03  0.36134838712E+03  0.89719584551E+02 0.  0.
        -13    1    3    3    0    0 -0.13640375724E+02 -0.42735411059E+02 -0.17453011428E+03  0.18020307204E+03  0.10570000000E+00 0. -1.
         13    1    3    3    0    0  0.13640375724E+02  0.42735411059E+02 -0.17550281706E+03  0.18114531509E+03  0.10570000000E+00 0.  1.
<mgrwt>
<rscale>  0 0.89719585E+02</rscale>
<asrwt>0</asrwt>
<pdfrwt beam="2">  1        1 0.54721623E-01 0.89719585E+02</pdfrwt>
<pdfrwt beam="1">  1       -1 0.87041995E-03 0.89719585E+02</pdfrwt>
<totfact> 0.13798993E+05</totfact>
</mgrwt>
</event>
<event>
 5   1  0.1388354E+00  0.9405328E+02  0.7818608E-02  0.1293323E+00
          1   -1    0    0  501    0  0.00000000000E+00  0.00000000000E+00  0.31454657926E+02  0.31454658272E+02  0.46700000000E-02 0. -1.
         -1   -1    0    0    0  501 -0.00000000000E+00 -0.00000000000E+00 -0.70307706592E+02  0.70307706747E+02  0.46700000000E-02 0.  1.
         23    2    1    2    0    0  0.00000000000E+00  0.00000000000E+00 -0.38853048666E+02  0.10176236502E+03  0.94053280345E+02 0.  0.
        -13    1    3    3    0    0 -0.26928338059E+02  0.22945895249E+02 -0.52947266076E+02  0.63679460242E+02  0.10570000000E+00 0.  1.
         13    1    3    3    0    0  0.26928338059E+02 -0.22945895249E+02  0.14094217409E+02  0.38082904777E+02  0.10570000000E+00 0. -1.
<mgrwt>
<rscale>  0 0.94053280E+02</rscale>
<asrwt>0</asrwt>
<pdfrwt beam="1">  1        1 0.48391782E-02 0.94053280E+02</pdfrwt>
<pdfrwt beam="2">  1       -1 0.10816570E-01 0.94053280E+02</pdfrwt>
<totfact> 0.79886000E+04</totfact>
</mgrwt>
</event>
<event>
 5   1  0.1388354E+00  0.9189356E+02  0.7818608E-02  0.1298330E+00
         -1   -1    0    0    0  501 -0.00000000000E+00  0.00000000000E+00  0.29624662297E+02  0.29624662665E+02  0.46700000000E-02 0.  1.
          1   -1    0    0  501    0  0.00000000000E+00 -0.00000000000E+00 -0.71261800264E+02  0.71261800417E+02  0.46700000000E-02 0. -1.
         23    2    1    2    0    0  0.00000000000E+00  0.00000000000E+00 -0.41637137967E+02  0.10088646308E+03  0.91893564383E+02 0.  0.
        -13    1    3    3    0    0  0.22980647739E+02  0.31398082085E+02 -0.47646552068E+02  0.61515484437E+02  0.10570000000E+00 0. -1.
         13    1    3    3    0    0 -0.22980647739E+02 -0.31398082085E+02  0.60094141007E+01  0.39370978644E+02  0.10570000000E+00 0.  1.
<mgrwt>
<rscale>  0 0.91893564E+02</rscale>
<asrwt>0</asrwt>
<pdfrwt beam="2">  1        1 0.10963354E-01 0.91893564E+02</pdfrwt>
<pdfrwt beam="1">  1       -1 0.45576404E-02 0.91893564E+02</pdfrwt>
<totfact> 0.96824257E+04</totfact>
</mgrwt>
</event>
<event>
 5   1  0.1388354E+00  0.9110680E+02  0.7818608E-02  0.1300193E+00
         -1   -1    0    0    0  501 -0.00000000000E+00  0.00000000000E+00  0.69114690812E+01  0.69114706589E+01  0.46700000000E-02 0.  1.
          1   -1    0    0  501    0  0.00000000000E+00 -0.00000000000E+00 -0.30024182897E+03  0.30024182901E+03  0.46700000000E-02 0. -1.
         23    2    1    2    0    0  0.00000000000E+00  0.00000000000E+00 -0.29333035989E+03  0.30715329967E+03  0.91106802505E+02 0.  0.
        -13    1    3    3    0    0 -0.24131922769E+02 -0.31521532070E+02 -0.22198643204E+03  0.22550819024E+03  0.10570000000E+00 0. -1.
         13    1    3    3    0    0  0.24131922769E+02  0.31521532070E+02 -0.71343927849E+02  0.81645109431E+02  0.10570000000E+00 0.  1.
<mgrwt>
<rscale>  0 0.91106803E+02</rscale>
<asrwt>0</asrwt>
<pdfrwt beam="2">  1        1 0.46191041E-01 0.91106803E+02</pdfrwt>
<pdfrwt beam="1">  1       -1 0.10633033E-02 0.91106803E+02</pdfrwt>
<totfact> 0.12840437E+05</totfact>
</mgrwt>
</event>
<event>
 5   1  0.1388354E+00  0.9132002E+02  0.7818608E-02  0.1299686E+00
         -1   -1    0    0    0  501 -0.00000000000E+00  0.00000000000E+00  0.20549378888E+03  0.20549378893E+03  0.46700000000E-02 0.  1.
          1   -1    0    0  501    0  0.00000000000E+00 -0.00000000000E+00 -0.10145494971E+02  0.10145496046E+02  0.46700000000E-02 0. -1.
         23    2    1    2    0    0  0.00000000000E+00  0.00000000000E+00  0.19534829391E+03  0.21563928498E+03  0.91320015842E+02 0.  0.
        -13    1    3    3    0    0  0.74142609404E+01  0.45031782041E+02  0.10100733770E+03  0.11083919028E+03  0.10570000000E+00 0.  1.
         13    1    3    3    0    0 -0.74142609404E+01 -0.45031782041E+02  0.94340956208E+02  0.10480009470E+03  0.10570000000E+00 0. -1.
<mgrwt>
<rscale>  0 0.91320016E+02</rscale>
<asrwt>0</asrwt>
<pdfrwt beam="2">  1        1 0.15608455E-02 0.91320016E+02</pdfrwt>
<pdfrwt beam="1">  1       -1 0.31614429E-01 0.91320016E+02</pdfrwt>
<totfact> 0.68601803E+04</totfact>
</mgrwt>
</event>
<event>
 4   1  0.1388354E+00  0.4376351E+02  0.7818608E-02  0.1482212E+00
          1   -1    0    0  501    0  0.00000000000E+00  0.00000000000E+00  0.55787712767E+02  0.55787712962E+02  0.46700000000E-02 0.  1.
         -1   -1    0    0    0  501 -0.00000000000E+00 -0.00000000000E+00 -0.85827341987E+01  0.85827354693E+01  0.46700000000E-02 0. -1.
        -13    1    1    2    0    0  0.14444118948E+02  0.24753679468E+01 -0.29813485838E+00  0.14658106138E+02  0.10570000000E+00 0. -1.
         13    1    1    2    0    0 -0.14444118948E+02 -0.24753679468E+01  0.47503113426E+02  0.49712342294E+02  0.10570000000E+00 0.  1.
<mgrwt>
<rscale>  0 0.43763508E+02</rscale>
<asrwt>0</asrwt>
<pdfrwt beam="1">  1        1 0.85827248E-02 0.43763508E+02</pdfrwt>
<pdfrwt beam="2">  1       -1 0.13204208E-02 0.43763508E+02</pdfrwt>
<totfact> 0.66001658E+05</totfact>
</mgrwt>
</event>
<event>
 5   1  0.1388354E+00  0.1253749E+03  0.7818608E-02  0.1234485E+00
          1   -1    0    0  501    0  0.00000000000E+00  0.00000000000E+00  0.10363824034E+03  0.10363824045E+03  0.46700000000E-02 0.  1.
         -1   -1    0    0    0  501 -0.00000000000E+00 -0.00000000000E+00 -0.37917607686E+02  0.37917607974E+02  0.46700000000E-02 0. -1.
         23    2    1    2    0    0  0.00000000000E+00  0.00000000000E+00  0.65720632659E+02  0.14155584842E+03  0.12537486457E+03 0.  0.
        -13    1    3    3    0    0  0.31247148194E+02  0.23243929975E+01 -0.28441717933E+02  0.42317012708E+02  0.10570000000E+00 0. -1.
         13    1    3    3    0    0 -0.31247148194E+02 -0.23243929975E+01  0.94162350591E+02  0.99238835717E+02  0.10570000000E+00 0.  1.
<mgrwt>
<rscale>  0 0.12537486E+03</rscale>
<asrwt>0</asrwt>
<pdfrwt beam="1">  1        1 0.15944344E-01 0.12537486E+03</pdfrwt>
<pdfrwt beam="2">  1       -1 0.58334782E-02 0.12537486E+03</pdfrwt>
<totfact> 0.43291560E+04</totfact>
</mgrwt>
</event>
<event>
 5   1  0.1388354E+00  0.8727829E+02  0.7818608E-02  0.1309580E+00
          1   -1    0    0  501    0  0.00000000000E+00  0.00000000000E+00  0.45080193848E+02  0.45080194090E+02  0.46700000000E-02 0. -1.
         -1   -1    0    0    0  501 -0.00000000000E+00 -0.00000000000E+00 -0.42244161976E+02  0.42244162234E+02  0.46700000000E-02 0.  1.
         23    2    1    2    0    0  0.00000000000E+00  0.00000000000E+00  0.28360318723E+01  0.87324356325E+02  0.87278291291E+02 0.  0.
        -13    1    3    3    0    0 -0.47525260793E+01 -0.12800081986E+02  0.42887874515E+02  0.45008994167E+02  0.10570000000E+00 0. -1.
         13    1    3    3    0    0  0.47525260793E+01  0.12800081986E+02 -0.40051842643E+02  0.42315362158E+02  0.10570000000E+00 0.  1.
<mgrwt>
<rscale>  0 0.87278291E+02</rscale>
<asrwt>0</asrwt>
<pdfrwt beam="1">  1        1 0.69354145E-02 0.87278291E+02</pdfrwt>
<pdfrwt beam="2">  1       -1 0.64991019E-02 0.87278291E+02</pdfrwt>
<totfact> 0.10431401E+05</totfact>
</mgrwt>
</event>
<event>
 5   1  0.1388354E+00  0.9035044E+02  0.7818608E-02  0.1302005E+00
         -1   -1    0    0    0  501 -0.00000000000E+00  0.00000000000E+00  0.72795136996E+02  0.72795137146E+02  0.46700000000E-02 0.  1.
          1   -1    0    0  501    0  0.00000000000E+00 -0.00000000000E+00 -0.28034849246E+02  0.28034849635E+02  0.46700000000E-02 0. -1.
         23    2    1    2    0    0  0.00000000000E+00  0.00000000000E+00  0.44760287749E+02  0.10082998678E+03  0.90350444796E+02 0.  0.
        -13    1    3    3    0    0  0.43750155562E+02  0.41334333804E+01  0.34064922361E+02  0.55602081716E+02  0.10570000000E+00 0.  1.
         13    1    3    3    0    0 -0.43750155562E+02 -0.41334333804E+01  0.10695365388E+02  0.45227905065E+02  0.10570000000E+00 0. -1.
<mgrwt>
<rscale>  0 0.90350445E+02</rscale>
<asrwt>0</asrwt>
<pdfrwt beam="2">  1        1 0.43130538E-02 0.90350445E+02</pdfrwt>
<pdfrwt beam="1">  1       -1 0.11199252E-01 0.90350445E+02</pdfrwt>
<totfact> 0.88010058E+04</totfact>
</mgrwt>
</event>
<event>
 5   1  0.1388354E+00  0.9049565E+02  0.7818608E-02  0.1301656E+00
         -1   -1    0    0    0  501 -0.00000000000E+00  0.00000000000E+00  0.19753009519E+03  0.19753009524E+03  0.46700000000E-02 0.  1.
          1   -1    0    0  501    0  0.00000000000E+00 -0.00000000000E+00 -0.10364828412E+02  0.10364829464E+02  0.46700000000E-02 0. -1.
         23    2    1    2    0    0  0.00000000000E+00  0.00000000000E+00  0.18716526678E+03  0.20789492471E+03  0.90495649794E+02 0.  0.
        -13    1    3    3    0    0  0.41764690937E+02 -0.13768318559E+02  0.69108281052E+02  0.81913501252E+02  0.10570000000E+00 0. -1.
         13    1    3    3    0    0 -0.41764690937E+02  0.13768318559E+02  0.11805698573E+03  0.12598142346E+03  0.10570000000E+00 0.  1.
<mgrwt>
<rscale>  0 0.90495650E+02</rscale>
<asrwt>0</asrwt>
<pdfrwt beam="2">  1        1 0.15945891E-02 0.90495650E+02</pdfrwt>
<pdfrwt beam="1">  1       -1 0.30389245E-01 0.90495650E+02</pdfrwt>
<totfact> 0.71044148E+04</totfact>
</mgrwt>
</event>
<event>
 5   1  0.1388354E+00  0.9354896E+02  0.7818608E-02  0.1294478E+00
         -1   -1    0    0    0  501 -0.00000000000E+00  0.00000000000E+00  0.25613530772E+02  0.25613531198E+02  0.46700000000E-02 0.  1.
          1   -1    0    0  501    0  0.00000000000E+00 -0.00000000000E+00 -0.85417827795E+02  0.85417827923E+02  0.46700000000E-02 0. -1.
         23    2    1    2    0    0  0.00000000000E+00  0.00000000000E+00 -0.59804297023E+02  0.11103135912E+03  0.93548964537E+02 0.  0.
        -13    1    3    3    0    0 -0.17357510184E+02 -0.43070335398E+02 -0.23240373077E+02  0.51927478894E+02  0.10570000000E+00 0.  1.
         13    1    3    3    0    0  0.17357510184E+02  0.43070335398E+02 -0.36563923946E+02  0.59103880227E+02  0.10570000000E+00 0. -1.
<mgrwt>
<rscale>  0 0.93548965E+02</rscale>
<asrwt>0</asrwt>
<pdfrwt beam="2">  1        1 0.13141204E-01 0.93548965E+02</pdfrwt>
<pdfrwt beam="1">  1       -1 0.39405433E-02 0.93548965E+02</pdfrwt>
<totfact> 0.94866207E+04</totfact>
</mgrwt>
</event>
<event>
 5   1  0.1388354E+00  0.1052135E+03  0.7818608E-02  0.1269700E+00
          1   -1    0    0  501    0  0.00000000000E+00  0.00000000000E+00  0.44901605248E+02  0.44901605491E+02  0.46700000000E-02 0.  1.
         -1   -1    0    0    0  501 -0.00000000000E+00 -0.00000000000E+00 -0.61634087288E+02  0.61634087465E+02  0.46700000000E-02 0. -1.
         23    2    1    2    0    0  0.00000000000E+00  0.00000000000E+00 -0.16732482040E+02  0.10653569296E+03  0.10521348734E+03 0.  0.
        -13    1    3    3    0    0 -0.51017966498E+01 -0.47295520158E+02 -0.31111021137E+02  0.56840138677E+02  0.10570000000E+00 0. -1.
         13    1    3    3    0    0  0.51017966498E+01  0.47295520158E+02  0.14378539098E+02  0.49695554280E+02  0.10570000000E+00 0.  1.
<mgrwt>
<rscale>  0 0.10521349E+03</rscale>
<asrwt>0</asrwt>
<pdfrwt beam="1">  1        1 0.69079393E-02 0.10521349E+03</pdfrwt>
<pdfrwt beam="2">  1       -1 0.94821673E-02 0.10521349E+03</pdfrwt>
<totfact> 0.61391556E+04</totfact>
</mgrwt>
</event>
<event>
 5   1  0.1388354E+00  0.9032176E+02  0.7818608E-02  0.1302074E+00
          1   -1    0    0  501    0  0.00000000000E+00  0.00000000000E+00  0.14523070126E+03  0.14523070134E+03  0.46700000000E-02 0. -1.
         -1   -1    0    0    0  501 -0.00000000000E+00 -0.00000000000E+00 -0.14043209533E+02  0.14043210310E+02  0.46700000000E-02 0.  1.
         23    2    1    2    0    0  0.00000000000E+00  0.00000000000E+00  0.13118749173E+03  0.15927391165E+03  0.90321763410E+02 0.  0.
        -13    1    3    3    0    0 -0.16459203099E+02  0.18854084589E+02 -0.69511557562E+00  0.25037496490E+02  0.10570000000E+00 0.  1.
         13    1    3    3    0    0  0.16459203099E+02 -0.18854084589E+02  0.13188260731E+03  0.13423641516E+03  0.10570000000E+00 0. -1.
<mgrwt>
<rscale>  0 0.90321763E+02</rscale>
<asrwt>0</asrwt>
<pdfrwt beam="1">  1        1 0.22343184E-01 0.90321763E+02</pdfrwt>
<pdfrwt beam="2">  1       -1 0.21604940E-02 0.90321763E+02</pdfrwt>
<totfact> 0.11433956E+05</totfact>
</mgrwt>
</event>
<event>
 5   1  0.1388354E+00  0.9099435E+02  0.7818608E-02  0.1300461E+00
          1   -1    0    0  501    0  0.00000000000E+00  0.00000000000E+00  0.75757782318E+02  0.75757782462E+02  0.46700000000E-02 0. -1.
         -1   -1    0    0    0  501 -0.00000000000E+00 -0.00000000000E+00 -0.27323829577E+02  0.27323829976E+02  0.46700000000E-02 0.  1.
         23    2    1    2    0    0  0.00000000000E+00  0.00000000000E+00  0.48433952741E+02  0.10308161244E+03  0.90994346224E+02 0.  0.
        -13    1    3    3    0    0  0.33898717944E+02  0.19525345261E+02  0.50532412547E+02  0.63905383780E+02  0.10570000000E+00 0. -1.
         13    1    3    3    0    0 -0.33898717944E+02 -0.19525345261E+02 -0.20984598055E+01  0.39176228658E+02  0.10570000000E+00 0.  1.
<mgrwt>
<rscale>  0 0.90994346E+02</rscale>
<asrwt>0</asrwt>
<pdfrwt beam="1">  1        1 0.11655043E-01 0.90994346E+02</pdfrwt>
<pdfrwt beam="2">  1       -1 0.42036661E-02 0.90994346E+02</pdfrwt>
<totfact> 0.10043813E+05</totfact>
</mgrwt>
</event>
<event>
 5   1  0.1388354E+00  0.8436243E+02  0.7818608E-02  0.1317108E+00
         -1   -1    0    0    0  501 -0.00000000000E+00  0.00000000000E+00  0.86227740408E+01  0.86227753055E+01  0.46700000000E-02 0.  1.
          1   -1    0    0  501    0  0.00000000000E+00 -0.00000000000E+00 -0.20634365285E+03  0.20634365290E+03  0.46700000000E-02 0. -1.
         23    2    1    2    0    0  0.00000000000E+00  0.00000000000E+00 -0.19772087881E+03  0.21496642821E+03  0.84362428483E+02 0.  0.
        -13    1    3    3    0    0 -0.40356921913E+02  0.44623807362E+01 -0.12798609657E+03  0.13427228335E+03  0.10570000000E+00 0. -1.
         13    1    3    3    0    0  0.40356921913E+02 -0.44623807362E+01 -0.69734782238E+02  0.80694144858E+02  0.10570000000E+00 0.  1.
<mgrwt>
<rscale>  0 0.84362428E+02</rscale>
<asrwt>0</asrwt>
<pdfrwt beam="2">  1        1 0.31745174E-01 0.84362428E+02</pdfrwt>
<pdfrwt beam="1">  1       -1 0.13265809E-02 0.84362428E+02</pdfrwt>
<totfact> 0.14655269E+05</totfact>
</mgrwt>
</event>
<event>
 5   1  0.1388354E+00  0.8692747E+02  0.7818608E-02  0.1310468E+00
         -1   -1    0    0    0  501 -0.00000000000E+00  0.00000000000E+00  0.66918485853E+01  0.66918502149E+01  0.46700000000E-02 0.  1.
          1   -1    0    0  501    0  0.00000000000E+00 -0.00000000000E+00 -0.28229805910E+03  0.28229805914E+03  0.46700000000E-02 0. -1.
         23    2    1    2    0    0  0.00000000000E+00  0.00000000000E+00 -0.27560621052E+03  0.28898990936E+03  0.86927466510E+02 0.  0.
        -13    1    3    3    0    0  0.37831315430E+02  0.21148813426E+02 -0.12697719057E+03  0.13417040968E+03  0.10570000000E+00 0.  1.
         13    1    3    3    0    0 -0.37831315430E+02 -0.21148813426E+02 -0.14862901995E+03  0.15481949968E+03  0.10570000000E+00 0. -1.
<mgrwt>
<rscale>  0 0.86927467E+02</rscale>
<asrwt>0</asrwt>
<pdfrwt beam="2">  1        1 0.43430462E-01 0.86927467E+02</pdfrwt>
<pdfrwt beam="1">  1       -1 0.10295155E-02 0.86927467E+02</pdfrwt>
<totfact> 0.14376621E+05</totfact>
</mgrwt>
</event>
<event>
 5   1  0.1388354E+00  0.8382207E+02  0.7818608E-02  0.1318542E+00
          1   -1    0    0  501    0  0.00000000000E+00  0.00000000000E+00  0.23729672896E+02  0.23729673356E+02  0.46700000000E-02 0. -1.
         -1   -1    0    0    0  501 -0.00000000000E+00 -0.00000000000E+00 -0.74022714600E+02  0.74022714747E+02  0.46700000000E-02 0.  1.
         23    2    1    2    0    0  0.00000000000E+00  0.00000000000E+00 -0.50293041704E+02  0.97752388103E+02  0.83822069505E+02 0.  0.
        -13    1    3    3    0    0  0.18629184568E+02  0.18223037908E+02 -0.63425212580E+02  0.68570360883E+02  0.10570000000E+00 0.  1.
         13    1    3    3    0    0 -0.18629184568E+02 -0.18223037908E+02  0.13132170877E+02  0.29182027220E+02  0.10570000000E+00 0. -1.
<mgrwt>
<rscale>  0 0.83822070E+02</rscale>
<asrwt>0</asrwt>
<pdfrwt beam="1">  1        1 0.36507190E-02 0.83822070E+02</pdfrwt>
<pdfrwt beam="2">  1       -1 0.11388110E-01 0.83822070E+02</pdfrwt>
<totfact> 0.10626309E+05</totfact>
</mgrwt>
</event>
<event>
 5   1  0.1388354E+00  0.9120603E+02  0.7818608E-02  0.1299957E+00
          1   -1    0    0  501    0  0.00000000000E+00  0.00000000000E+00  0.12549855958E+02  0.12549856827E+02  0.46700000000E-02 0. -1.
         -1   -1    0    0    0  501 -0.00000000000E+00 -0.00000000000E+00 -0.16570986061E+03  0.16570986067E+03  0.46700000000E-02 0.  1.
         23    2    1    2    0    0  0.00000000000E+00  0.00000000000E+00 -0.15316000465E+03  0.17825971750E+03  0.91206029731E+02 0.  0.
        -13    1    3    3    0    0  0.28021155008E+02  0.72070630044E+01 -0.14547335517E+03  0.14832273973E+03  0.10570000000E+00 0.  1.
         13    1    3    3    0    0 -0.28021155008E+02 -0.72070630044E+01 -0.76866494784E+01  0.29936977767E+02  0.10570000000E+00 0. -1.
<mgrwt>
<rscale>  0 0.91206030E+02</rscale>
<asrwt>0</asrwt>
<pdfrwt beam="1">  1        1 0.19307473E-02 0.91206030E+02</pdfrwt>
<pdfrwt beam="2">  1       -1 0.25493823E-01 0.91206030E+02</pdfrwt>
<totfact> 0.72946871E+04</totfact>
</mgrwt>
</event>
<event>
 5   1  0.1388354E+00  0.9167272E+02  0.7818608E-02  0.1298851E+00
          1   -1    0    0  501    0  0.00000000000E+00  0.00000000000E+00  0.44664520219E+02  0.44664520463E+02  0.46700000000E-02 0. -1.
         -1   -1    0    0    0  501 -0.00000000000E+00 -0.00000000000E+00 -0.47038943658E+02  0.47038943890E+02  0.46700000000E-02 0.  1.
         23    2    1    2    0    0  0.00000000000E+00  0.00000000000E+00 -0.23744234394E+01  0.91703464353E+02  0.91672719430E+02 0.  0.
        -13    1    3    3    0    0 -0.35785746793E+02 -0.28342307866E+02 -0.53183195711E+01  0.45958696503E+02  0.10570000000E+00 0. -1.
         13    1    3    3    0    0  0.35785746793E+02  0.28342307866E+02  0.29438961317E+01  0.45744767850E+02  0.10570000000E+00 0.  1.
<mgrwt>
<rscale>  0 0.91672719E+02</rscale>
<asrwt>0</asrwt>
<pdfrwt beam="1">  1        1 0.68714647E-02 0.91672719E+02</pdfrwt>
<pdfrwt beam="2">  1       -1 0.72367606E-02 0.91672719E+02</pdfrwt>
<totfact> 0.90791690E+04</totfact>
</mgrwt>
</event>
<event>
 4   1  0.1388354E+00  0.1308878E+03  0.7818608E-02  0.1226144E+00
         -1   -1    0    0    0  501 -0.00000000000E+00  0.00000000000E+00  0.86676067631E+02  0.86676067757E+02  0.46700000000E-02 0. -1.
          1   -1    0    0  501    0  0.00000000000E+00 -0.00000000000E+00 -0.49412732544E+02  0.49412732765E+02  0.46700000000E-02 0.  1.
        -13    1    1    2    0    0  0.24370251374E+02  0.59949743026E+02  0.28766265991E+02  0.70819418752E+02  0.10570000000E+00 0. -1.
         13    1    1    2    0    0 -0.24370251374E+02 -0.59949743026E+02  0.84970690958E+01  0.65269381769E+02  0.10570000000E+00 0.  1.
<mgrwt>
<rscale>  0 0.13088776E+03</rscale>
<asrwt>0</asrwt>
<pdfrwt beam="2">  1        1 0.76019589E-02 0.13088776E+03</pdfrwt>
<pdfrwt beam="1">  1       -1 0.13334780E-01 0.13088776E+03</pdfrwt>
<totfact> 0.32951265E+04</totfact>
</mgrwt>
</event>
<event>
 5   1  0.1388354E+00  0.9091851E+02  0.7818608E-02  0.1300643E+00
          1   -1    0    0  501    0  0.00000000000E+00  0.00000000000E+00  0.31396647969E+03  0.31396647973E+03  0.46700000000E-02 0. -1.
         -1   -1    0    0    0  501 -0.00000000000E+00 -0.00000000000E+00 -0.65820511224E+01  0.65820527791E+01  0.46700000000E-02 0.  1.
         23    2    1    2    0    0  0.00000000000E+00  0.00000000000E+00  0.30738442857E+03  0.32054853251E+03  0.90918506172E+02 0.  0.
        -13    1    3    3    0    0  0.65742015808E+01 -0.44515397078E+02  0.13092725364E+03  0.13844420400E+03  0.10570000000E+00 0.  1.
         13    1    3    3    0    0 -0.65742015808E+01  0.44515397078E+02  0.17645717493E+03  0.18210432850E+03  0.10570000000E+00 0. -1.
<mgrwt>
<rscale>  0 0.90918506E+02</rscale>
<asrwt>0</asrwt>
<pdfrwt beam="1">  1        1 0.48302545E-01 0.90918506E+02</pdfrwt>
<pdfrwt beam="2">  1       -1 0.10126232E-02 0.90918506E+02</pdfrwt>
<totfact> 0.13021022E+05</totfact>
</mgrwt>
</event>
<event>
 5   1  0.1388354E+00  0.9287848E+02  0.7818608E-02  0.1296027E+00
          1   -1    0    0  501    0  0.00000000000E+00  0.00000000000E+00  0.17217308545E+03  0.17217308552E+03  0.46700000000E-02 0. -1.
         -1   -1    0    0    0  501 -0.00000000000E+00 -0.00000000000E+00 -0.12525783875E+02  0.12525784746E+02  0.46700000000E-02 0.  1.
         23    2    1    2    0    0  0.00000000000E+00  0.00000000000E+00  0.15964730158E+03  0.18469887026E+03  0.92878478535E+02 0.  0.
        -13    1    3    3    0    0  0.12033411624E+02 -0.35189577899E+02  0.13512991956E+03  0.14015425688E+03  0.10570000000E+00 0. -1.
         13    1    3    3    0    0 -0.12033411624E+02  0.35189577899E+02  0.24517382016E+02  0.44544613383E+02  0.10570000000E+00 0.  1.
<mgrwt>
<rscale>  0 0.92878479E+02</rscale>
<asrwt>0</asrwt>
<pdfrwt beam="1">  1        1 0.26488167E-01 0.92878479E+02</pdfrwt>
<pdfrwt beam="2">  1       -1 0.19270437E-02 0.92878479E+02</pdfrwt>
<totfact> 0.10945883E+05</totfact>
</mgrwt>
</event>
<event>
 5   1  0.1388354E+00  0.9065727E+02  0.7818608E-02  0.1301268E+00
         -1   -1    0    0    0  501 -0.00000000000E+00  0.00000000000E+00  0.87509285878E+01  0.87509298338E+01  0.46700000000E-02 0.  1.
          1   -1    0    0  501    0  0.00000000000E+00 -0.00000000000E+00 -0.23479624128E+03  0.23479624133E+03  0.46700000000E-02 0. -1.
         23    2    1    2    0    0  0.00000000000E+00  0.00000000000E+00 -0.22604531269E+03  0.24354717116E+03  0.90657273233E+02 0.  0.
        -13    1    3    3    0    0 -0.29242559024E+02  0.24955570811E+02 -0.17754058195E+03  0.18165510503E+03  0.10570000000E+00 0. -1.
         13    1    3    3    0    0  0.29242559024E+02 -0.24955570811E+02 -0.48504730746E+02  0.61892066131E+02  0.10570000000E+00 0.  1.
<mgrwt>
<rscale>  0 0.90657273E+02</rscale>
<asrwt>0</asrwt>
<pdfrwt beam="2">  1        1 0.36122494E-01 0.90657273E+02</pdfrwt>
<pdfrwt beam="1">  1       -1 0.13462970E-02 0.90657273E+02</pdfrwt>
<totfact> 0.12404624E+05</totfact>
</mgrwt>
</event>
<event>
 5   1  0.1388354E+00  0.8995005E+02  0.7818608E-02  0.1302973E+00
          1   -1    0    0  501    0  0.00000000000E+00  0.00000000000E+00  0.15912167881E+03  0.15912167888E+03  0.46700000000E-02 0. -1.
         -1   -1    0    0    0  501 -0.00000000000E+00 -0.00000000000E+00 -0.12711986801E+02  0.12711987659E+02  0.46700000000E-02 0.  1.
         23    2    1    2    0    0  0.00000000000E+00  0.00000000000E+00  0.14640969201E+03  0.17183366654E+03  0.89950047480E+02 0.  0.
        -13    1    3    3    0    0 -0.28881036127E+02  0.33050590245E+02  0.54459734112E+02  0.69945189795E+02  0.10570000000E+00 0.  1.
         13    1    3    3    0    0  0.28881036127E+02 -0.33050590245E+02  0.91949957898E+02  0.10188847674E+03  0.10570000000E+00 0. -1.
<mgrwt>
<rscale>  0 0.89950047E+02</rscale>
<asrwt>0</asrwt>
<pdfrwt beam="1">  1        1 0.24480258E-01 0.89950047E+02</pdfrwt>
<pdfrwt beam="2">  1       -1 0.19556904E-02 0.89950047E+02</pdfrwt>
<totfact> 0.11757125E+05</totfact>
</mgrwt>
</event>
<event>
 5   1  0.1388354E+00  0.8951357E+02  0.7818608E-02  0.1304034E+00
          1   -1    0    0  501    0  0.00000000000E+00  0.00000000000E+00  0.89183948255E+01  0.89183960482E+01  0.46700000000E-02 0. -1.
         -1   -1    0    0    0  501 -0.00000000000E+00 -0.00000000000E+00 -0.22461102076E+03  0.22461102080E+03  0.46700000000E-02 0.  1.
         23    2    1    2    0    0  0.00000000000E+00  0.00000000000E+00 -0.21569262593E+03  0.23352941685E+03  0.89513572461E+02 0.  0.
        -13    1    3    3    0    0  0.83332208099E+01 -0.40078278235E+02 -0.15505519695E+03  0.16036781544E+03  0.10570000000E+00 0.  1.
         13    1    3    3    0    0 -0.83332208099E+01  0.40078278235E+02 -0.60637428980E+02  0.73161601412E+02  0.10570000000E+00 0. -1.
<mgrwt>
<rscale>  0 0.89513572E+02</rscale>
<asrwt>0</asrwt>
<pdfrwt beam="1">  1        1 0.13720610E-02 0.89513572E+02</pdfrwt>
<pdfrwt beam="2">  1       -1 0.34555537E-01 0.89513572E+02</pdfrwt>
<totfact> 0.70354654E+04</totfact>
</mgrwt>
</event>
<event>
 5   1  0.1388354E+00  0.9186722E+02  0.7818608E-02  0.1298392E+00
          1   -1    0    0  501    0  0.00000000000E+00  0.00000000000E+00  0.25283808963E+02  0.25283809395E+02  0.46700000000E-02 0. -1.
         -1   -1    0    0    0  501 -0.00000000000E+00 -0.00000000000E+00 -0.83448520657E+02  0.83448520787E+02  0.46700000000E-02 0.  1.
         23    2    1    2    0    0  0.00000000000E+00  0.00000000000E+00 -0.58164711693E+02  0.10873233018E+03  0.91867219074E+02 0.  0.
        -13    1    3    3    0    0 -0.37602001535E+02 -0.13993439883E+02 -0.55552232851E+02  0.68525824522E+02  0.10570000000E+00 0.  1.
         13    1    3    3    0    0  0.37602001535E+02  0.13993439883E+02 -0.26124788418E+01  0.40206505660E+02  0.10570000000E+00 0. -1.
<mgrwt>
<rscale>  0 0.91867219E+02</rscale>
<asrwt>0</asrwt>
<pdfrwt beam="1">  1        1 0.38898168E-02 0.91867219E+02</pdfrwt>
<pdfrwt beam="2">  1       -1 0.12838234E-01 0.91867219E+02</pdfrwt>
<totfact> 0.82432929E+04</totfact>
</mgrwt>
</event>
<event>
 5   1  0.1388354E+00  0.9081088E+02  0.7818608E-02  0.1300900E+00
         -1   -1    0    0    0  501 -0.00000000000E+00  0.00000000000E+00  0.20509322211E+02  0.20509322742E+02  0.46700000000E-02 0.  1.
          1   -1    0    0  501    0  0.00000000000E+00 -0.00000000000E+00 -0.10052277566E+03  0.10052277577E+03  0.46700000000E-02 0. -1.
         23    2    1    2    0    0  0.00000000000E+00  0.00000000000E+00 -0.80013453450E+02  0.12103209851E+03  0.90810881160E+02 0.  0.
        -13    1    3    3    0    0  0.50399391499E+01 -0.39031994352E+02 -0.98271242961E+01  0.40564530247E+02  0.10570000000E+00 0.  1.
         13    1    3    3    0    0 -0.50399391499E+01  0.39031994352E+02 -0.70186329154E+02  0.80467568264E+02  0.10570000000E+00 0. -1.
<mgrwt>
<rscale>  0 0.90810881E+02</rscale>
<asrwt>0</asrwt>
<pdfrwt beam="2">  1        1 0.15465042E-01 0.90810881E+02</pdfrwt>
<pdfrwt beam="1">  1       -1 0.31552805E-02 0.90810881E+02</pdfrwt>
<totfact> 0.10569414E+05</totfact>
</mgrwt>
</event>
<event>
 5   1  0.1388354E+00  0.9054666E+02  0.7818608E-02  0.1301533E+00
          1   -1    0    0  501    0  0.00000000000E+00  0.00000000000E+00  0.38345219015E+02  0.38345219300E+02  0.46700000000E-02 0. -1.
         -1   -1    0    0    0  501 -0.00000000000E+00 -0.00000000000E+00 -0.53453193745E+02  0.53453193949E+02  0.46700000000E-02 0.  1.
         23    2    1    2    0    0  0.00000000000E+00  0.00000000000E+00 -0.15107974730E+02  0.91798413248E+02  0.90546660758E+02 0.  0.
        -13    1    3    3    0    0  0.29957646434E+02 -0.15895356840E+02  0.22852976179E+02  0.40894897502E+02  0.10570000000E+00 0. -1.
         13    1    3    3    0    0 -0.29957646434E+02  0.15895356840E+02 -0.37960950909E+02  0.50903515746E+02  0.10570000000E+00 0.  1.
<mgrwt>
<rscale>  0 0.90546661E+02</rscale>
<asrwt>0</asrwt>
<pdfrwt beam="1">  1        1 0.58992644E-02 0.90546661E+02</pdfrwt>
<pdfrwt beam="2">  1       -1 0.82235684E-02 0.90546661E+02</pdfrwt>
<totfact> 0.91865792E+04</totfact>
</mgrwt>
</event>
<event>
 5   1  0.1388354E+00  0.9239531E+02  0.7818608E-02  0.1297153E+00
         -1   -1    0    0    0  501 -0.00000000000E+00  0.00000000000E+00  0.82989430925E+01  0.82989444064E+01  0.46700000000E-02 0.  1.
          1   -1    0    0  501    0  0.00000000000E+00 -0.00000000000E+00 -0.25716809210E+03  0.25716809214E+03  0.46700000000E-02 0. -1.
         23    2    1    2    0    0  0.00000000000E+00  0.00000000000E+00 -0.24886914901E+03  0.26546703655E+03  0.92395314634E+02 0.  0.
        -13    1    3    3    0    0  0.35498543256E+02 -0.28323676673E+02 -0.10008288427E+03  0.10990437721E+03  0.10570000000E+00 0.  1.
         13    1    3    3    0    0 -0.35498543256E+02  0.28323676673E+02 -0.14878626474E+03  0.15556265935E+03  0.10570000000E+00 0. -1.
<mgrwt>
<rscale>  0 0.92395315E+02</rscale>
<asrwt>0</asrwt>
<pdfrwt beam="2">  1        1 0.39564316E-01 0.92395315E+02</pdfrwt>
<pdfrwt beam="1">  1       -1 0.12767608E-02 0.92395315E+02</pdfrwt>
<totfact> 0.12001569E+05</totfact>
</mgrwt>
</event>
<event>
 5   1  0.1388354E+00  0.9781398E+02  0.7818608E-02  0.1284961E+00
         -1   -1    0    0    0  501 -0.00000000000E+00  0.00000000000E+00  0.16807769934E+02  0.16807770583E+02  0.46700000000E-02 0.  1.
          1   -1    0    0  501    0  0.00000000000E+00 -0.00000000000E+00 -0.14230879090E+03  0.14230879098E+03  0.46700000000E-02 0. -1.
         23    2    1    2    0    0  0.00000000000E+00  0.00000000000E+00 -0.12550102097E+03  0.15911656156E+03  0.97813975993E+02 0.  0.
        -13    1    3    3    0    0 -0.26861362102E+02 -0.23589104616E+02 -0.84582042084E+01  0.36735963598E+02  0.10570000000E+00 0.  1.
         13    1    3    3    0    0  0.26861362102E+02  0.23589104616E+02 -0.11704281676E+03  0.12238059797E+03  0.10570000000E+00 0. -1.
<mgrwt>
<rscale>  0 0.97813976E+02</rscale>
<asrwt>0</asrwt>
<pdfrwt beam="2">  1        1 0.21893659E-01 0.97813976E+02</pdfrwt>
<pdfrwt beam="1">  1       -1 0.25858109E-02 0.97813976E+02</pdfrwt>
<totfact> 0.91775636E+04</totfact>
</mgrwt>
</event>
<event>
 5   1  0.1388354E+00  0.9072485E+02  0.7818608E-02  0.1301106E+00
         -1   -1    0    0    0  501 -0.00000000000E+00  0.00000000000E+00  0.14100868591E+02  0.14100869364E+02  0.46700000000E-02 0.  1.
          1   -1    0    0  501    0  0.00000000000E+00 -0.00000000000E+00 -0.14593070121E+03  0.14593070128E+03  0.46700000000E-02 0. -1.
         23    2    1    2    0    0  0.00000000000E+00  0.00000000000E+00 -0.13182983262E+03  0.16003157065E+03  0.90724852361E+02 0.  0.
        -13    1    3    3    0    0  0.55611757713E+01 -0.40955318810E+02 -0.98890057218E+02  0.10717984607E+03  0.10570000000E+00 0. -1.
         13    1    3    3    0    0 -0.55611757713E+01  0.40955318810E+02 -0.32939775399E+02  0.52851724576E+02  0.10570000000E+00 0.  1.
<mgrwt>
<rscale>  0 0.90724852E+02</rscale>
<asrwt>0</asrwt>
<pdfrwt beam="2">  1        1 0.22450876E-01 0.90724852E+02</pdfrwt>
<pdfrwt beam="1">  1       -1 0.21693646E-02 0.90724852E+02</pdfrwt>
<totfact> 0.11307469E+05</totfact>
</mgrwt>
</event>
<event>
 5   1  0.1388354E+00  0.8970489E+02  0.7818608E-02  0.1303568E+00
         -1   -1    0    0    0  501 -0.00000000000E+00  0.00000000000E+00  0.73417165040E+02  0.73417165189E+02  0.46700000000E-02 0.  1.
          1   -1    0    0  501    0  0.00000000000E+00 -0.00000000000E+00 -0.27401519656E+02  0.27401520054E+02  0.46700000000E-02 0. -1.
         23    2    1    2    0    0  0.00000000000E+00  0.00000000000E+00  0.46015645385E+02  0.10081868524E+03  0.89704892140E+02 0.  0.
        -13    1    3    3    0    0  0.23890835825E+02 -0.30870653268E+02  0.47834446846E+02  0.61740705755E+02  0.10570000000E+00 0.  1.
         13    1    3    3    0    0 -0.23890835825E+02  0.30870653268E+02 -0.18188014615E+01  0.39077979487E+02  0.10570000000E+00 0. -1.
<mgrwt>
<rscale>  0 0.89704892E+02</rscale>
<asrwt>0</asrwt>
<pdfrwt beam="2">  1        1 0.42156185E-02 0.89704892E+02</pdfrwt>
<pdfrwt beam="1">  1       -1 0.11294948E-01 0.89704892E+02</pdfrwt>
<totfact> 0.89509790E+04</totfact>
</mgrwt>
</event>
<event>
 5   1  0.1388354E+00  0.9179879E+02  0.7818608E-02  0.1298553E+00
         -1   -1    0    0    0  501 -0.00000000000E+00  0.00000000000E+00  0.28820652783E+03  0.28820652787E+03  0.46700000000E-02 0.  1.
          1   -1    0    0  501    0  0.00000000000E+00 -0.00000000000E+00 -0.73098761811E+01  0.73098776729E+01  0.46700000000E-02 0. -1.
         23    2    1    2    0    0  0.00000000000E+00  0.00000000000E+00  0.28089665165E+03  0.29551640554E+03  0.91798785592E+02 0.  0.
        -13    1    3    3    0    0  0.18335533560E+02  0.33410137794E+02  0.22279342599E+03  0.22602953554E+03  0.10570000000E+00 0.  1.
         13    1    3    3    0    0 -0.18335533560E+02 -0.33410137794E+02  0.58103225657E+02  0.69486870002E+02  0.10570000000E+00 0. -1.
<mgrwt>
<rscale>  0 0.91798786E+02</rscale>
<asrwt>0</asrwt>
<pdfrwt beam="2">  1        1 0.11245964E-02 0.91798786E+02</pdfrwt>
<pdfrwt beam="1">  1       -1 0.44339466E-01 0.91798786E+02</pdfrwt>
<totfact> 0.60449768E+04</totfact>
</mgrwt>
</event>
<event>
 5   1  0.1388354E+00  0.9143017E+02  0.7818608E-02  0.1299425E+00
          1   -1    0    0  501    0  0.00000000000E+00  0.00000000000E+00  0.11428059937E+03  0.11428059947E+03  0.46700000000E-02 0. -1.
         -1   -1    0    0    0  501 -0.00000000000E+00 -0.00000000000E+00 -0.18287170317E+02  0.18287170914E+02  0.46700000000E-02 0.  1.
         23    2    1    2    0    0  0.00000000000E+00  0.00000000000E+00  0.95993429054E+02  0.13256777038E+03  0.91430166368E+02 0.  0.
        -13    1    3    3    0    0 -0.26004341158E+02 -0.22299442990E+02  0.41049438676E+01  0.34501487698E+02  0.10570000000E+00 0.  1.
         13    1    3    3    0    0  0.26004341158E+02  0.22299442990E+02  0.91888485186E+02  0.98066282682E+02  0.10570000000E+00 0. -1.
<mgrwt>
<rscale>  0 0.91430166E+02</rscale>
<asrwt>0</asrwt>
<pdfrwt beam="1">  1        1 0.17581631E-01 0.91430166E+02</pdfrwt>
<pdfrwt beam="2">  1       -1 0.28134108E-02 0.91430166E+02</pdfrwt>
<totfact> 0.10603127E+05</totfact>
</mgrwt>
</event>
<event>
 5   1  0.1388354E+00  0.9206895E+02  0.7818608E-02  0.1297917E+00
         -1   -1    0    0    0  501 -0.00000000000E+00  0.00000000000E+00  0.27277945964E+02  0.27277946364E+02  0.46700000000E-02 0.  1.
          1   -1    0    0  501    0  0.00000000000E+00 -0.00000000000E+00 -0.77688138175E+02  0.77688138315E+02  0.46700000000E-02 0. -1.
         23    2    1    2    0    0  0.00000000000E+00  0.00000000000E+00 -0.50410192211E+02  0.10496608468E+03  0.92068949457E+02 0.  0.
        -13    1    3    3    0    0 -0.45337090796E+02 -0.18093111943E+01 -0.16342015878E+02  0.48226528636E+02  0.10570000000E+00 0. -1.
         13    1    3    3    0    0  0.45337090796E+02  0.18093111943E+01 -0.34068176332E+02  0.56739556043E+02  0.10570000000E+00 0.  1.
<mgrwt>
<rscale>  0 0.92068949E+02</rscale>
<asrwt>0</asrwt>
<pdfrwt beam="2">  1        1 0.11952021E-01 0.92068949E+02</pdfrwt>
<pdfrwt beam="1">  1       -1 0.41966071E-02 0.92068949E+02</pdfrwt>
<totfact> 0.97628919E+04</totfact>
</mgrwt>
</event>
<event>
 5   1  0.1388354E+00  0.9175457E+02  0.7818608E-02  0.1298658E+00
         -1   -1    0    0    0  501 -0.00000000000E+00  0.00000000000E+00  0.28916628171E+02  0.28916628548E+02  0.46700000000E-02 0.  1.
          1   -1    0    0  501    0  0.00000000000E+00 -0.00000000000E+00 -0.72785981836E+02  0.72785981986E+02  0.46700000000E-02 0. -1.
         23    2    1    2    0    0  0.00000000000E+00  0.00000000000E+00 -0.43869353665E+02  0.10170261053E+03  0.91754568271E+02 0.  0.
        -13    1    3    3    0    0 -0.38671483630E+02  0.13397185987E+02 -0.44912570708E+02  0.60762804565E+02  0.10570000000E+00 0. -1.
         13    1    3    3    0    0  0.38671483630E+02 -0.13397185987E+02  0.10432170430E+01  0.40939805969E+02  0.10570000000E+00 0.  1.
<mgrwt>
<rscale>  0 0.91754568E+02</rscale>
<asrwt>0</asrwt>
<pdfrwt beam="2">  1        1 0.11197843E-01 0.91754568E+02</pdfrwt>
<pdfrwt beam="1">  1       -1 0.44487121E-02 0.91754568E+02</pdfrwt>
<totfact> 0.97550702E+04</totfact>
</mgrwt>
</event>
<event>
 5   1  0.1388354E+00  0.9396030E+02  0.7818608E-02  0.1293535E+00
         -1   -1    0    0    0  501 -0.00000000000E+00  0.00000000000E+00  0.12273436372E+02  0.12273437261E+02  0.46700000000E-02 0.  1.
          1   -1    0    0  501    0  0.00000000000E+00 -0.00000000000E+00 -0.17983020850E+03  0.17983020856E+03  0.46700000000E-02 0. -1.
         23    2    1    2    0    0  0.00000000000E+00  0.00000000000E+00 -0.16755677213E+03  0.19210364582E+03  0.93960304661E+02 0.  0.
        -13    1    3    3    0    0  0.38681869144E+02 -0.11072545297E+02 -0.34191512707E+02  0.52801126631E+02  0.10570000000E+00 0.  1.
         13    1    3    3    0    0 -0.38681869144E+02  0.11072545297E+02 -0.13336525942E+03  0.13930251919E+03  0.10570000000E+00 0. -1.
<mgrwt>
<rscale>  0 0.93960305E+02</rscale>
<asrwt>0</asrwt>
<pdfrwt beam="2">  1        1 0.27666184E-01 0.93960305E+02</pdfrwt>
<pdfrwt beam="1">  1       -1 0.18882212E-02 0.93960305E+02</pdfrwt>
<totfact> 0.10697862E+05</totfact>
</mgrwt>
</event>
<event>
 5   1  0.1388354E+00  0.9211353E+02  0.7818608E-02  0.1297813E+00
         -1   -1    0    0    0  501 -0.00000000000E+00  0.00000000000E+00  0.26303382912E+02  0.26303383327E+02  0.46700000000E-02 0.  1.
          1   -1    0    0  501    0  0.00000000000E+00 -0.00000000000E+00 -0.80644596659E+02  0.80644596794E+02  0.46700000000E-02 0. -1.
         23    2    1    2    0    0  0.00000000000E+00  0.00000000000E+00 -0.54341213747E+02  0.10694798012E+03  0.92113532885E+02 0.  0.
        -13    1    3    3    0    0 -0.43490738965E+02 -0.18199233880E+01 -0.96985898528E+01  0.44596303821E+02  0.10570000000E+00 0.  1.
         13    1    3    3    0    0  0.43490738965E+02  0.18199233880E+01 -0.44642623894E+02  0.62351676300E+02  0.10570000000E+00 0. -1.
<mgrwt>
<rscale>  0 0.92113533E+02</rscale>
<asrwt>0</asrwt>
<pdfrwt beam="2">  1        1 0.12406861E-01 0.92113533E+02</pdfrwt>
<pdfrwt beam="1">  1       -1 0.40466744E-02 0.92113533E+02</pdfrwt>
<totfact> 0.98077546E+04</totfact>
</mgrwt>
</event>
<event>
 5   1  0.1388354E+00  0.9132524E+02  0.7818608E-02  0.1299674E+00
         -1   -1    0    0    0  501 -0.00000000000E+00  0.00000000000E+00  0.44550484464E+02  0.44550484709E+02  0.46700000000E-02 0.  1.
          1   -1    0    0  501    0  0.00000000000E+00 -0.00000000000E+00 -0.46802520291E+02  0.46802520524E+02  0.46700000000E-02 0. -1.
         23    2    1    2    0    0  0.00000000000E+00  0.00000000000E+00 -0.22520358267E+01  0.91353005233E+02  0.91325242401E+02 0.  0.
        -13    1    3    3    0    0  0.93084352219E+01  0.37841527473E+02 -0.24933161366E+02  0.46263396718E+02  0.10570000000E+00 0.  1.
         13    1    3    3    0    0 -0.93084352219E+01 -0.37841527473E+02  0.22681125539E+02  0.45089608514E+02  0.10570000000E+00 0. -1.
<mgrwt>
<rscale>  0 0.91325242E+02</rscale>
<asrwt>0</asrwt>
<pdfrwt beam="2">  1        1 0.72003878E-02 0.91325242E+02</pdfrwt>
<pdfrwt beam="1">  1       -1 0.68539207E-02 0.91325242E+02</pdfrwt>
<totfact> 0.92415461E+04</totfact>
</mgrwt>
</event>
<event>
 5   1  0.1388354E+00  0.8978184E+02  0.7818608E-02  0.1303381E+00
          1   -1    0    0  501    0  0.00000000000E+00  0.00000000000E+00  0.10922199598E+02  0.10922200596E+02  0.46700000000E-02 0. -1.
         -1   -1    0    0    0  501 -0.00000000000E+00 -0.00000000000E+00 -0.18450446234E+03  0.18450446240E+03  0.46700000000E-02 0.  1.
         23    2    1    2    0    0  0.00000000000E+00  0.00000000000E+00 -0.17358226274E+03  0.19542666299E+03  0.89781839313E+02 0.  0.
        -13    1    3    3    0    0  0.20200889300E+01 -0.43326129224E+02 -0.61598967014E+02  0.75337096722E+02  0.10570000000E+00 0.  1.
         13    1    3    3    0    0 -0.20200889300E+01  0.43326129224E+02 -0.11198329573E+03  0.12008956627E+03  0.10570000000E+00 0. -1.
<mgrwt>
<rscale>  0 0.89781839E+02</rscale>
<asrwt>0</asrwt>
<pdfrwt beam="1">  1        1 0.16803386E-02 0.89781839E+02</pdfrwt>
<pdfrwt beam="2">  1       -1 0.28385300E-01 0.89781839E+02</pdfrwt>
<totfact> 0.73901962E+04</totfact>
</mgrwt>
</event>
<event>
 5   1  0.1388354E+00  0.9805399E+02  0.7818608E-02  0.1284442E+00
          1   -1    0    0  501    0  0.00000000000E+00  0.00000000000E+00  0.39276315035E+02  0.39276315312E+02  0.46700000000E-02 0. -1.
         -1   -1    0    0    0  501 -0.00000000000E+00 -0.00000000000E+00 -0.61198367053E+02  0.61198367231E+02  0.46700000000E-02 0.  1.
         23    2    1    2    0    0  0.00000000000E+00  0.00000000000E+00 -0.21922052019E+02  0.10047468254E+03  0.98053992614E+02 0.  0.
        -13    1    3    3    0    0 -0.40610276081E+02  0.25309004435E+02 -0.25400630063E-01  0.47851353654E+02  0.10570000000E+00 0. -1.
         13    1    3    3    0    0  0.40610276081E+02 -0.25309004435E+02 -0.21896651388E+02  0.52623328889E+02  0.10570000000E+00 0.  1.
<mgrwt>
<rscale>  0 0.98053993E+02</rscale>
<asrwt>0</asrwt>
<pdfrwt beam="1">  1        1 0.60425100E-02 0.98053993E+02</pdfrwt>
<pdfrwt beam="2">  1       -1 0.94151334E-02 0.98053993E+02</pdfrwt>
<totfact> 0.73500356E+04</totfact>
</mgrwt>
</event>
<event>
 5   1  0.1388354E+00  0.9185234E+02  0.7818608E-02  0.1298427E+00
          1   -1    0    0  501    0  0.00000000000E+00  0.00000000000E+00  0.47689883677E+03  0.47689883679E+03  0.46700000000E-02 0. -1.
         -1   -1    0    0    0  501 -0.00000000000E+00 -0.00000000000E+00 -0.44227672427E+01  0.44227697082E+01  0.46700000000E-02 0.  1.
         23    2    1    2    0    0  0.00000000000E+00  0.00000000000E+00  0.47247606953E+03  0.48132160650E+03  0.91852341336E+02 0.  0.
        -13    1    3    3    0    0 -0.10734271572E+02  0.44502678094E+02  0.21699225179E+03  0.22176871162E+03  0.10570000000E+00 0. -1.
         13    1    3    3    0    0  0.10734271572E+02 -0.44502678094E+02  0.25548381773E+03  0.25955289488E+03  0.10570000000E+00 0.  1.
<mgrwt>
<rscale>  0 0.91852341E+02</rscale>
<asrwt>0</asrwt>
<pdfrwt beam="1">  1        1 0.73369077E-01 0.91852341E+02</pdfrwt>
<pdfrwt beam="2">  1       -1 0.68042569E-03 0.91852341E+02</pdfrwt>
<totfact> 0.13576522E+05</totfact>
</mgrwt>
</event>
<event>
 5   1  0.1388354E+00  0.9413861E+02  0.7818608E-02  0.1293128E+00
         -1   -1    0    0    0  501 -0.00000000000E+00  0.00000000000E+00  0.11103167037E+03  0.11103167047E+03  0.46700000000E-02 0.  1.
          1   -1    0    0  501    0  0.00000000000E+00 -0.00000000000E+00 -0.19953942492E+02  0.19953943038E+02  0.46700000000E-02 0. -1.
         23    2    1    2    0    0  0.00000000000E+00  0.00000000000E+00  0.91077727881E+02  0.13098561351E+03  0.94138612855E+02 0.  0.
        -13    1    3    3    0    0  0.31292660201E+02 -0.29811514271E+01 -0.32080580528E+01  0.31597795101E+02  0.10570000000E+00 0.  1.
         13    1    3    3    0    0 -0.31292660201E+02  0.29811514271E+01  0.94285785934E+02  0.99387818408E+02  0.10570000000E+00 0. -1.
<mgrwt>
<rscale>  0 0.94138613E+02</rscale>
<asrwt>0</asrwt>
<pdfrwt beam="2">  1        1 0.30698373E-02 0.94138613E+02</pdfrwt>
<pdfrwt beam="1">  1       -1 0.17081796E-01 0.94138613E+02</pdfrwt>
<totfact> 0.73435261E+04</totfact>
</mgrwt>
</event>
<event>
 4   1  0.1388354E+00  0.4298138E+02  0.7818608E-02  0.1487352E+00
          1   -1    0    0  501    0  0.00000000000E+00  0.00000000000E+00  0.48662610420E+02  0.48662610645E+02  0.46700000000E-02 0. -1.
         -1   -1    0    0    0  501 -0.00000000000E+00 -0.00000000000E+00 -0.94908531839E+01  0.94908543329E+01  0.46700000000E-02 0.  1.
        -13    1    1    2    0    0 -0.10512997305E+02  0.76745918151E+01  0.42722283927E+02  0.44661249291E+02  0.10570000000E+00 0. -1.
         13    1    1    2    0    0  0.10512997305E+02 -0.76745918151E+01 -0.35505266901E+01  0.13492215686E+02  0.10570000000E+00 0.  1.
<mgrwt>
<rscale>  0 0.42981379E+02</rscale>
<asrwt>0</asrwt>
<pdfrwt beam="1">  1        1 0.74865555E-02 0.42981379E+02</pdfrwt>
<pdfrwt beam="2">  1       -1 0.14601314E-02 0.42981379E+02</pdfrwt>
<totfact> 0.68169497E+05</totfact>
</mgrwt>
</event>
<event>
 5   1  0.1388354E+00  0.9148472E+02  0.7818608E-02  0.1299296E+00
         -1   -1    0    0    0  501 -0.00000000000E+00  0.00000000000E+00  0.22465171503E+02  0.22465171988E+02  0.46700000000E-02 0.  1.
          1   -1    0    0  501    0  0.00000000000E+00 -0.00000000000E+00 -0.93138107328E+02  0.93138107445E+02  0.46700000000E-02 0. -1.
         23    2    1    2    0    0  0.00000000000E+00  0.00000000000E+00 -0.70672935825E+02  0.11560327943E+03  0.91484721990E+02 0.  0.
        -13    1    3    3    0    0 -0.59956433752E+01 -0.44862524030E+02 -0.26977486373E+02  0.52691457992E+02  0.10570000000E+00 0.  1.
         13    1    3    3    0    0  0.59956433752E+01  0.44862524030E+02 -0.43695449453E+02  0.62911821442E+02  0.10570000000E+00 0. -1.
<mgrwt>
<rscale>  0 0.91484722E+02</rscale>
<asrwt>0</asrwt>
<pdfrwt beam="2">  1        1 0.14328939E-01 0.91484722E+02</pdfrwt>
<pdfrwt beam="1">  1       -1 0.34561803E-02 0.91484722E+02</pdfrwt>
<totfact> 0.10228741E+05</totfact>
</mgrwt>
</event>
<event>
 5   1  0.1388354E+00  0.9229914E+02  0.7818608E-02  0.1297378E+00
          1   -1    0    0  501    0  0.00000000000E+00  0.00000000000E+00  0.14803182585E+02  0.14803183321E+02  0.46700000000E-02 0. -1.
         -1   -1    0    0    0  501 -0.00000000000E+00 -0.00000000000E+00 -0.14387329898E+03  0.14387329905E+03  0.46700000000E-02 0.  1.
         23    2    1    2    0    0  0.00000000000E+00  0.00000000000E+00 -0.12907011639E+03  0.15867648237E+03  0.92299139287E+02 0.  0.
        -13    1    3    3    0    0 -0.32303666707E+02  0.31769882082E+02 -0.49457444264E+02  0.67073856724E+02  0.10570000000E+00 0.  1.
         13    1    3    3    0    0  0.32303666707E+02 -0.31769882082E+02 -0.79612672129E+02  0.91602625651E+02  0.10570000000E+00 0. -1.
<mgrwt>
<rscale>  0 0.92299139E+02</rscale>
<asrwt>0</asrwt>
<pdfrwt beam="1">  1        1 0.22774129E-02 0.92299139E+02</pdfrwt>
<pdfrwt beam="2">  1       -1 0.22134353E-01 0.92299139E+02</pdfrwt>
<totfact> 0.73151283E+04</totfact>
</mgrwt>
</event>
<event>
 5   1  0.1388354E+00  0.9102159E+02  0.7818608E-02  0.1300396E+00
          1   -1    0    0  501    0  0.00000000000E+00  0.00000000000E+00  0.15716605236E+02  0.15716605930E+02  0.46700000000E-02 0. -1.
         -1   -1    0    0    0  501 -0.00000000000E+00 -0.00000000000E+00 -0.13178625008E+03  0.13178625016E+03  0.46700000000E-02 0.  1.
         23    2    1    2    0    0  0.00000000000E+00  0.00000000000E+00 -0.11606964484E+03  0.14750285609E+03  0.91021591402E+02 0.  0.
        -13    1    3    3    0    0 -0.42252206456E+02 -0.91709711040E+01 -0.35010478589E+02  0.55633626926E+02  0.10570000000E+00 0. -1.
         13    1    3    3    0    0  0.42252206456E+02  0.91709711040E+01 -0.81059166253E+02  0.91869229166E+02  0.10570000000E+00 0.  1.
<mgrwt>
<rscale>  0 0.91021591E+02</rscale>
<asrwt>0</asrwt>
<pdfrwt beam="1">  1        1 0.24179394E-02 0.91021591E+02</pdfrwt>
<pdfrwt beam="2">  1       -1 0.20274807E-01 0.91021591E+02</pdfrwt>
<totfact> 0.77339089E+04</totfact>
</mgrwt>
</event>
<event>
 5   1  0.1388354E+00  0.8895383E+02  0.7818608E-02  0.1305405E+00
          1   -1    0    0  501    0  0.00000000000E+00  0.00000000000E+00  0.69707032688E+02  0.69707032845E+02  0.46700000000E-02 0. -1.
         -1   -1    0    0    0  501 -0.00000000000E+00 -0.00000000000E+00 -0.28378711104E+02  0.28378711489E+02  0.46700000000E-02 0.  1.
         23    2    1    2    0    0  0.00000000000E+00  0.00000000000E+00  0.41328321584E+02  0.98085744333E+02  0.88953825530E+02 0.  0.
        -13    1    3    3    0    0 -0.26635891957E+02 -0.20420472851E+02 -0.11516074252E+02  0.35483765167E+02  0.10570000000E+00 0.  1.
         13    1    3    3    0    0  0.26635891957E+02  0.20420472851E+02  0.52844395835E+02  0.62601979166E+02  0.10570000000E+00 0. -1.
<mgrwt>
<rscale>  0 0.88953826E+02</rscale>
<asrwt>0</asrwt>
<pdfrwt beam="1">  1        1 0.10724159E-01 0.88953826E+02</pdfrwt>
<pdfrwt beam="2">  1       -1 0.43659557E-02 0.88953826E+02</pdfrwt>
<totfact> 0.10553159E+05</totfact>
</mgrwt>
</event>
<event>
 5   1  0.1388354E+00  0.8935137E+02  0.7818608E-02  0.1304430E+00
         -1   -1    0    0    0  501 -0.00000000000E+00  0.00000000000E+00  0.61881606973E+01  0.61881624595E+01  0.46700000000E-02 0.  1.
          1   -1    0    0  501    0  0.00000000000E+00 -0.00000000000E+00 -0.32253792836E+03  0.32253792839E+03  0.46700000000E-02 0. -1.
         23    2    1    2    0    0  0.00000000000E+00  0.00000000000E+00 -0.31634976766E+03  0.32872609085E+03  0.89351369925E+02 0.  0.
        -13    1    3    3    0    0 -0.41566061341E+02  0.13921775362E+02 -0.18989833057E+03  0.19489212506E+03  0.10570000000E+00 0. -1.
         13    1    3    3    0    0  0.41566061341E+02 -0.13921775362E+02 -0.12645143709E+03  0.13383396579E+03  0.10570000000E+00 0.  1.
<mgrwt>
<rscale>  0 0.89351370E+02</rscale>
<asrwt>0</asrwt>
<pdfrwt beam="2">  1        1 0.49621207E-01 0.89351370E+02</pdfrwt>
<pdfrwt beam="1">  1       -1 0.95202511E-03 0.89351370E+02</pdfrwt>
<totfact> 0.13705515E+05</totfact>
</mgrwt>
</event>
<event>
 5   1  0.1388354E+00  0.9332750E+02  0.7818608E-02  0.1294988E+00
          1   -1    0    0  501    0  0.00000000000E+00  0.00000000000E+00  0.14892916770E+03  0.14892916778E+03  0.46700000000E-02 0. -1.
         -1   -1    0    0    0  501 -0.00000000000E+00 -0.00000000000E+00 -0.14621080986E+02  0.14621081732E+02  0.46700000000E-02 0.  1.
         23    2    1    2    0    0  0.00000000000E+00  0.00000000000E+00  0.13430808672E+03  0.16355024951E+03  0.93327498395E+02 0.  0.
        -13    1    3    3    0    0 -0.30133556781E+02  0.17654929787E+02  0.12138801547E+03  0.12631226885E+03  0.10570000000E+00 0. -1.
         13    1    3    3    0    0  0.30133556781E+02 -0.17654929787E+02  0.12920071250E+02  0.37237980660E+02  0.10570000000E+00 0.  1.
<mgrwt>
<rscale>  0 0.93327498E+02</rscale>
<asrwt>0</asrwt>
<pdfrwt beam="1">  1        1 0.22912180E-01 0.93327498E+02</pdfrwt>
<pdfrwt beam="2">  1       -1 0.22493971E-02 0.93327498E+02</pdfrwt>
<totfact> 0.10514322E+05</totfact>
</mgrwt>
</event>
<event>
 5   1  0.1388354E+00  0.8641600E+02  0.7818608E-02  0.1311771E+00
          1   -1    0    0  501    0  0.00000000000E+00  0.00000000000E+00  0.20622037655E+03  0.20622037660E+03  0.46700000000E-02 0. -1.
         -1   -1    0    0    0  501 -0.00000000000E+00 -0.00000000000E+00 -0.90530884646E+01  0.90530896691E+01  0.46700000000E-02 0.  1.
         23    2    1    2    0    0  0.00000000000E+00  0.00000000000E+00  0.19716728809E+03  0.21527346627E+03  0.86416004246E+02 0.  0.
        -13    1    3    3    0    0  0.20562372744E+02  0.36636784732E+02  0.73442344273E+02  0.84610012842E+02  0.10570000000E+00 0.  1.
         13    1    3    3    0    0 -0.20562372744E+02 -0.36636784732E+02  0.12372494381E+03  0.13066345343E+03  0.10570000000E+00 0. -1.
<mgrwt>
<rscale>  0 0.86416004E+02</rscale>
<asrwt>0</asrwt>
<pdfrwt beam="1">  1        1 0.31726209E-01 0.86416004E+02</pdfrwt>
<pdfrwt beam="2">  1       -1 0.13927830E-02 0.86416004E+02</pdfrwt>
<totfact> 0.13745567E+05</totfact>
</mgrwt>
</event>
<event>
 5   1  0.1388354E+00  0.9299577E+02  0.7818608E-02  0.1295755E+00
          1   -1    0    0  501    0  0.00000000000E+00  0.00000000000E+00  0.27900233849E+03  0.27900233853E+03  0.46700000000E-02 0. -1.
         -1   -1    0    0    0  501 -0.00000000000E+00 -0.00000000000E+00 -0.77492285044E+01  0.77492299115E+01  0.46700000000E-02 0.  1.
         23    2    1    2    0    0  0.00000000000E+00  0.00000000000E+00  0.27125310998E+03  0.28675156844E+03  0.92995765098E+02 0.  0.
        -13    1    3    3    0    0  0.27960640340E+02  0.26047584818E+02  0.53942111080E+02  0.66106252377E+02  0.10570000000E+00 0.  1.
         13    1    3    3    0    0 -0.27960640340E+02 -0.26047584818E+02  0.21731099890E+03  0.22064531606E+03  0.10570000000E+00 0. -1.
<mgrwt>
<rscale>  0 0.92995765E+02</rscale>
<asrwt>0</asrwt>
<pdfrwt beam="1">  1        1 0.42923437E-01 0.92995765E+02</pdfrwt>
<pdfrwt beam="2">  1       -1 0.11921891E-02 0.92995765E+02</pdfrwt>
<totfact> 0.11985093E+05</totfact>
</mgrwt>
</event>
<event>
 5   1  0.1388354E+00  0.9244525E+02  0.7818608E-02  0.1297036E+00
         -1   -1    0    0    0  501 -0.00000000000E+00  0.00000000000E+00  0.43831488202E+02  0.43831488451E+02  0.46700000000E-02 0.  1.
          1   -1    0    0  501    0  0.00000000000E+00 -0.00000000000E+00 -0.48744209162E+02  0.48744209386E+02  0.46700000000E-02 0. -1.
         23    2    1    2    0    0  0.00000000000E+00  0.00000000000E+00 -0.49127209601E+01  0.92575697837E+02  0.92445254084E+02 0.  0.
        -13    1    3    3    0    0  0.14975880108E+02 -0.86141850640E+01  0.40476490035E+02  0.44009528371E+02  0.10570000000E+00 0.  1.
         13    1    3    3    0    0 -0.14975880108E+02  0.86141850640E+01 -0.45389210996E+02  0.48566169466E+02  0.10570000000E+00 0. -1.
<mgrwt>
<rscale>  0 0.92445254E+02</rscale>
<asrwt>0</asrwt>
<pdfrwt beam="2">  1        1 0.74991091E-02 0.92445254E+02</pdfrwt>
<pdfrwt beam="1">  1       -1 0.67433059E-02 0.92445254E+02</pdfrwt>
<totfact> 0.89857044E+04</totfact>
</mgrwt>
</event>
<event>
 5   1  0.1388354E+00  0.9266245E+02  0.7818608E-02  0.1296529E+00
          1   -1    0    0  501    0  0.00000000000E+00  0.00000000000E+00  0.18641950492E+02  0.18641951077E+02  0.46700000000E-02 0. -1.
         -1   -1    0    0    0  501 -0.00000000000E+00 -0.00000000000E+00 -0.11514795774E+03  0.11514795784E+03  0.46700000000E-02 0.  1.
         23    2    1    2    0    0  0.00000000000E+00  0.00000000000E+00 -0.96506007251E+02  0.13378990891E+03  0.92662453517E+02 0.  0.
        -13    1    3    3    0    0  0.26863327035E+02  0.27199504985E+02 -0.10460742010E+02  0.39634451008E+02  0.10570000000E+00 0. -1.
         13    1    3    3    0    0 -0.26863327035E+02 -0.27199504985E+02 -0.86045265240E+02  0.94155457906E+02  0.10570000000E+00 0.  1.
<mgrwt>
<rscale>  0 0.92662454E+02</rscale>
<asrwt>0</asrwt>
<pdfrwt beam="1">  1        1 0.28679925E-02 0.92662454E+02</pdfrwt>
<pdfrwt beam="2">  1       -1 0.17715070E-01 0.92662454E+02</pdfrwt>
<totfact> 0.75946883E+04</totfact>
</mgrwt>
</event>
<event>
 5   1  0.1388354E+00  0.9162203E+02  0.7818608E-02  0.1298971E+00
         -1   -1    0    0    0  501 -0.00000000000E+00  0.00000000000E+00  0.13421260376E+03  0.13421260385E+03  0.46700000000E-02 0.  1.
          1   -1    0    0  501    0  0.00000000000E+00 -0.00000000000E+00 -0.15636752342E+02  0.15636753039E+02  0.46700000000E-02 0. -1.
         23    2    1    2    0    0  0.00000000000E+00  0.00000000000E+00  0.11857585142E+03  0.14984935688E+03  0.91622034567E+02 0.  0.
        -13    1    3    3    0    0  0.22817735368E+02  0.13973990953E+02  0.12010444351E+03  0.12304881143E+03  0.10570000000E+00 0.  1.
         13    1    3    3    0    0 -0.22817735368E+02 -0.13973990953E+02 -0.15285920879E+01  0.26800545456E+02  0.10570000000E+00 0. -1.
<mgrwt>
<rscale>  0 0.91622035E+02</rscale>
<asrwt>0</asrwt>
<pdfrwt beam="2">  1        1 0.24056544E-02 0.91622035E+02</pdfrwt>
<pdfrwt beam="1">  1       -1 0.20648092E-01 0.91622035E+02</pdfrwt>
<totfact> 0.75730746E+04</totfact>
</mgrwt>
</event>
<event>
 5   1  0.1388354E+00  0.9043236E+02  0.7818608E-02  0.1301808E+00
          1   -1    0    0  501    0  0.00000000000E+00  0.00000000000E+00  0.20637265508E+02  0.20637266036E+02  0.46700000000E-02 0. -1.
         -1   -1    0    0    0  501 -0.00000000000E+00 -0.00000000000E+00 -0.99068497310E+02  0.99068497420E+02  0.46700000000E-02 0.  1.
         23    2    1    2    0    0  0.00000000000E+00  0.00000000000E+00 -0.78431231803E+02  0.11970576346E+03  0.90432359709E+02 0.  0.
        -13    1    3    3    0    0 -0.17824307392E+02 -0.29293281259E+02 -0.78229885470E+02  0.85415036229E+02  0.10570000000E+00 0.  1.
         13    1    3    3    0    0  0.17824307392E+02  0.29293281259E+02 -0.20134633327E+00  0.34290727227E+02  0.10570000000E+00 0. -1.
<mgrwt>
<rscale>  0 0.90432360E+02</rscale>
<asrwt>0</asrwt>
<pdfrwt beam="1">  1        1 0.31749640E-02 0.90432360E+02</pdfrwt>
<pdfrwt beam="2">  1       -1 0.15241307E-01 0.90432360E+02</pdfrwt>
<totfact> 0.83249516E+04</totfact>
</mgrwt>
</event>
<event>
 5   1  0.1388354E+00  0.9175151E+02  0.7818608E-02  0.1298665E+00
          1   -1    0    0  501    0  0.00000000000E+00  0.00000000000E+00  0.34645460754E+02  0.34645461068E+02  0.46700000000E-02 0. -1.
         -1   -1    0    0    0  501 -0.00000000000E+00 -0.00000000000E+00 -0.60746338568E+02  0.60746338747E+02  0.46700000000E-02 0.  1.
         23    2    1    2    0    0  0.00000000000E+00  0.00000000000E+00 -0.26100877814E+02  0.95391799816E+02  0.91751510338E+02 0.  0.
        -13    1    3    3    0    0 -0.20467122856E+02  0.34579671322E+02  0.99618095858E+01  0.41399343104E+02  0.10570000000E+00 0. -1.
         13    1    3    3    0    0  0.20467122856E+02 -0.34579671322E+02 -0.36062687400E+02  0.53992456712E+02  0.10570000000E+00 0.  1.
<mgrwt>
<rscale>  0 0.91751510E+02</rscale>
<asrwt>0</asrwt>
<pdfrwt beam="1">  1        1 0.53300709E-02 0.91751510E+02</pdfrwt>
<pdfrwt beam="2">  1       -1 0.93455906E-02 0.91751510E+02</pdfrwt>
<totfact> 0.87108787E+04</totfact>
</mgrwt>
</event>
<event>
 5   1  0.1388354E+00  0.9399044E+02  0.7818608E-02  0.1293466E+00
          1   -1    0    0  501    0  0.00000000000E+00  0.00000000000E+00  0.36794910598E+03  0.36794910601E+03  0.46700000000E-02 0. -1.
         -1   -1    0    0    0  501 -0.00000000000E+00 -0.00000000000E+00 -0.60023256651E+01  0.60023274818E+01  0.46700000000E-02 0.  1.
         23    2    1    2    0    0  0.00000000000E+00  0.00000000000E+00  0.36194678032E+03  0.37395143350E+03  0.93990440099E+02 0.  0.
        -13    1    3    3    0    0 -0.29640887492E+02  0.31678267044E+02  0.10908871011E+03  0.11739869105E+03  0.10570000000E+00 0.  1.
         13    1    3    3    0    0  0.29640887492E+02 -0.31678267044E+02  0.25285807021E+03  0.25655274244E+03  0.10570000000E+00 0. -1.
<mgrwt>
<rscale>  0 0.93990440E+02</rscale>
<asrwt>0</asrwt>
<pdfrwt beam="1">  1        1 0.56607557E-01 0.93990440E+02</pdfrwt>
<pdfrwt beam="2">  1       -1 0.92343483E-03 0.93990440E+02</pdfrwt>
<totfact> 0.12265731E+05</totfact>
</mgrwt>
</event>
<event>
 5   1  0.1388354E+00  0.1071381E+03  0.7818608E-02  0.1265963E+00
         -1   -1    0    0    0  501 -0.00000000000E+00  0.00000000000E+00  0.22650588897E+03  0.22650588901E+03  0.46700000000E-02 0.  1.
          1   -1    0    0  501    0  0.00000000000E+00 -0.00000000000E+00 -0.12669171467E+02  0.12669172328E+02  0.46700000000E-02 0. -1.
         23    2    1    2    0    0  0.00000000000E+00  0.00000000000E+00  0.21383671750E+03  0.23917506134E+03  0.10713808014E+03 0.  0.
        -13    1    3    3    0    0 -0.12878548618E+02 -0.50288984236E+02  0.13643267492E+03  0.14597508317E+03  0.10570000000E+00 0.  1.
         13    1    3    3    0    0  0.12878548618E+02  0.50288984236E+02  0.77404042581E+02  0.93199978167E+02  0.10570000000E+00 0. -1.
<mgrwt>
<rscale>  0 0.10713808E+03</rscale>
<asrwt>0</asrwt>
<pdfrwt beam="2">  1        1 0.19491034E-02 0.10713808E+03</pdfrwt>
<pdfrwt beam="1">  1       -1 0.34847059E-01 0.10713808E+03</pdfrwt>
<totfact> 0.43815752E+04</totfact>
</mgrwt>
</event>
<event>
 5   1  0.1388354E+00  0.9101379E+02  0.7818608E-02  0.1300415E+00
         -1   -1    0    0    0  501 -0.00000000000E+00  0.00000000000E+00  0.50213348720E+02  0.50213348937E+02  0.46700000000E-02 0.  1.
          1   -1    0    0  501    0  0.00000000000E+00 -0.00000000000E+00 -0.41241576948E+02  0.41241577212E+02  0.46700000000E-02 0. -1.
         23    2    1    2    0    0  0.00000000000E+00  0.00000000000E+00  0.89717717717E+01  0.91454926149E+02  0.91013794714E+02 0.  0.
        -13    1    3    3    0    0  0.20794116778E+02 -0.36738735573E+02  0.21560494718E+02  0.47402490326E+02  0.10570000000E+00 0.  1.
         13    1    3    3    0    0 -0.20794116778E+02  0.36738735573E+02 -0.12588722946E+02  0.44052435824E+02  0.10570000000E+00 0. -1.
<mgrwt>
<rscale>  0 0.91013795E+02</rscale>
<asrwt>0</asrwt>
<pdfrwt beam="2">  1        1 0.63448580E-02 0.91013795E+02</pdfrwt>
<pdfrwt beam="1">  1       -1 0.77251306E-02 0.91013795E+02</pdfrwt>
<totfact> 0.91546397E+04</totfact>
</mgrwt>
</event>
<event>
 5   1  0.1388354E+00  0.9109896E+02  0.7818608E-02  0.1300212E+00
         -1   -1    0    0    0  501 -0.00000000000E+00  0.00000000000E+00  0.16239135271E+02  0.16239135942E+02  0.46700000000E-02 0.  1.
          1   -1    0    0  501    0  0.00000000000E+00 -0.00000000000E+00 -0.12776265203E+03  0.12776265212E+03  0.46700000000E-02 0. -1.
         23    2    1    2    0    0  0.00000000000E+00  0.00000000000E+00 -0.11152351676E+03  0.14400178806E+03  0.91098958136E+02 0.  0.
        -13    1    3    3    0    0  0.11340342107E+02 -0.19160643251E+02  0.70508676996E+01  0.23355074753E+02  0.10570000000E+00 0.  1.
         13    1    3    3    0    0 -0.11340342107E+02  0.19160643251E+02 -0.11857438446E+03  0.12064671331E+03  0.10570000000E+00 0. -1.
<mgrwt>
<rscale>  0 0.91098958E+02</rscale>
<asrwt>0</asrwt>
<pdfrwt beam="2">  1        1 0.19655792E-01 0.91098958E+02</pdfrwt>
<pdfrwt beam="1">  1       -1 0.24983286E-02 0.91098958E+02</pdfrwt>
<totfact> 0.10918359E+05</totfact>
</mgrwt>
</event>
<event>
 5   1  0.1388354E+00  0.9272866E+02  0.7818608E-02  0.1296375E+00
          1   -1    0    0  501    0  0.00000000000E+00  0.00000000000E+00  0.29820781750E+03  0.29820781754E+03  0.46700000000E-02 0. -1.
         -1   -1    0    0    0  501 -0.00000000000E+00 -0.00000000000E+00 -0.72085670490E+01  0.72085685617E+01  0.46700000000E-02 0.  1.
         23    2    1    2    0    0  0.00000000000E+00  0.00000000000E+00  0.29099925045E+03  0.30541638610E+03  0.92728664038E+02 0.  0.
        -13    1    3    3    0    0 -0.45402395993E+02 -0.30822597189E+01  0.11626905302E+03  0.12485744571E+03  0.10570000000E+00 0.  1.
         13    1    3    3    0    0  0.45402395993E+02  0.30822597189E+01  0.17473019743E+03  0.18055894038E+03  0.10570000000E+00 0. -1.
<mgrwt>
<rscale>  0 0.92728664E+02</rscale>
<asrwt>0</asrwt>
<pdfrwt beam="1">  1        1 0.45878114E-01 0.92728664E+02</pdfrwt>
<pdfrwt beam="2">  1       -1 0.11090107E-02 0.92728664E+02</pdfrwt>
<totfact> 0.12233948E+05</totfact>
</mgrwt>
</event>
<event>
 5   1  0.1388354E+00  0.9093954E+02  0.7818608E-02  0.1300592E+00
          1   -1    0    0  501    0  0.00000000000E+00  0.00000000000E+00  0.29418482676E+02  0.29418483047E+02  0.46700000000E-02 0. -1.
         -1   -1    0    0    0  501 -0.00000000000E+00 -0.00000000000E+00 -0.70278939775E+02  0.70278939930E+02  0.46700000000E-02 0.  1.
         23    2    1    2    0    0  0.00000000000E+00  0.00000000000E+00 -0.40860457099E+02  0.99697422976E+02  0.90939535923E+02 0.  0.
        -13    1    3    3    0    0  0.10471703536E+02  0.38024524622E+02 -0.45235982324E+02  0.60015217378E+02  0.10570000000E+00 0.  1.
         13    1    3    3    0    0 -0.10471703536E+02 -0.38024524622E+02  0.43755252250E+01  0.39682205598E+02  0.10570000000E+00 0. -1.
<mgrwt>
<rscale>  0 0.90939536E+02</rscale>
<asrwt>0</asrwt>
<pdfrwt beam="1">  1        1 0.45259205E-02 0.90939536E+02</pdfrwt>
<pdfrwt beam="2">  1       -1 0.10812145E-01 0.90939536E+02</pdfrwt>
<totfact> 0.87060307E+04</totfact>
</mgrwt>
</event>
<event>
 5   1  0.1388354E+00  0.8962187E+02  0.7818608E-02  0.1303770E+00
         -1   -1    0    0    0  501 -0.00000000000E+00  0.00000000000E+00  0.33873038743E+02  0.33873039065E+02  0.46700000000E-02 0.  1.
          1   -1    0    0  501    0  0.00000000000E+00 -0.00000000000E+00 -0.59280773336E+02  0.59280773519E+02  0.46700000000E-02 0. -1.
         23    2    1    2    0    0  0.00000000000E+00  0.00000000000E+00 -0.25407734593E+02  0.93153812584E+02  0.89621871336E+02 0.  0.
        -13    1    3    3    0    0  0.33346590704E+02 -0.23590528770E+02  0.64478143822E+01  0.41353278492E+02  0.10570000000E+00 0.  1.
         13    1    3    3    0    0 -0.33346590704E+02  0.23590528770E+02 -0.31855548975E+02  0.51800534092E+02  0.10570000000E+00 0. -1.
<mgrwt>
<rscale>  0 0.89621871E+02</rscale>
<asrwt>0</asrwt>
<pdfrwt beam="2">  1        1 0.91201190E-02 0.89621871E+02</pdfrwt>
<pdfrwt beam="1">  1       -1 0.52112368E-02 0.89621871E+02</pdfrwt>
<totfact> 0.10088888E+05</totfact>
</mgrwt>
</event>
<event>
 5   1  0.1388354E+00  0.9749223E+02  0.7818608E-02  0.1285660E+00
          1   -1    0    0  501    0  0.00000000000E+00  0.00000000000E+00  0.10856248498E+02  0.10856249503E+02  0.46700000000E-02 0. -1.
         -1   -1    0    0    0  501 -0.00000000000E+00 -0.00000000000E+00 -0.21887703545E+03  0.21887703550E+03  0.46700000000E-02 0.  1.
         23    2    1    2    0    0  0.00000000000E+00  0.00000000000E+00 -0.20802078696E+03  0.22973328501E+03  0.97492227557E+02 0.  0.
        -13    1    3    3    0    0 -0.83195418978E+01 -0.45878654104E+02 -0.70510429107E+02  0.84532818864E+02  0.10570000000E+00 0. -1.
         13    1    3    3    0    0  0.83195418978E+01  0.45878654104E+02 -0.13751035785E+03  0.14520046614E+03  0.10570000000E+00 0.  1.
<mgrwt>
<rscale>  0 0.97492228E+02</rscale>
<asrwt>0</asrwt>
<pdfrwt beam="1">  1        1 0.16701923E-02 0.97492228E+02</pdfrwt>
<pdfrwt beam="2">  1       -1 0.33673387E-01 0.97492228E+02</pdfrwt>
<totfact> 0.56737980E+04</totfact>
</mgrwt>
</event>
<event>
 5   1  0.1388354E+00  0.9132175E+02  0.7818608E-02  0.1299682E+00
          1   -1    0    0  501    0  0.00000000000E+00  0.00000000000E+00  0.29934943372E+02  0.29934943737E+02  0.46700000000E-02 0. -1.
         -1   -1    0    0    0  501 -0.00000000000E+00 -0.00000000000E+00 -0.69648218556E+02  0.69648218712E+02  0.46700000000E-02 0.  1.
         23    2    1    2    0    0  0.00000000000E+00  0.00000000000E+00 -0.39713275183E+02  0.99583162449E+02  0.91321749970E+02 0.  0.
        -13    1    3    3    0    0 -0.55092678314E+01  0.38283094102E+02  0.66072403598E+01  0.39237916914E+02  0.10570000000E+00 0.  1.
         13    1    3    3    0    0  0.55092678314E+01 -0.38283094102E+02 -0.46320515543E+02  0.60345245535E+02  0.10570000000E+00 0. -1.
<mgrwt>
<rscale>  0 0.91321750E+02</rscale>
<asrwt>0</asrwt>
<pdfrwt beam="1">  1        1 0.46053760E-02 0.91321750E+02</pdfrwt>
<pdfrwt beam="2">  1       -1 0.10715111E-01 0.91321750E+02</pdfrwt>
<totfact> 0.86259527E+04</totfact>
</mgrwt>
</event>
<event>
 5   1  0.1388354E+00  0.9150207E+02  0.7818608E-02  0.1299254E+00
         -1   -1    0    0    0  501 -0.00000000000E+00  0.00000000000E+00  0.10442759257E+02  0.10442760301E+02  0.46700000000E-02 0.  1.
          1   -1    0    0  501    0  0.00000000000E+00 -0.00000000000E+00 -0.20044099968E+03  0.20044099974E+03  0.46700000000E-02 0. -1.
         23    2    1    2    0    0  0.00000000000E+00  0.00000000000E+00 -0.18999824043E+03  0.21088376004E+03  0.91502070376E+02 0.  0.
        -13    1    3    3    0    0 -0.70897466936E+01  0.41912639673E+02 -0.13398939251E+03  0.14057063118E+03  0.10570000000E+00 0.  1.
         13    1    3    3    0    0  0.70897466936E+01 -0.41912639673E+02 -0.56008847914E+02  0.70313128857E+02  0.10570000000E+00 0. -1.
<mgrwt>
<rscale>  0 0.91502070E+02</rscale>
<asrwt>0</asrwt>
<pdfrwt beam="2">  1        1 0.30837074E-01 0.91502070E+02</pdfrwt>
<pdfrwt beam="1">  1       -1 0.16065786E-02 0.91502070E+02</pdfrwt>
<totfact> 0.11732976E+05</totfact>
</mgrwt>
</event>
<event>
 5   1  0.1388354E+00  0.5500274E+02  0.7818608E-02  0.1420086E+00
          1   -1    0    0  501    0  0.00000000000E+00  0.00000000000E+00  0.51688756000E+02  0.51688756211E+02  0.46700000000E-02 0.  1.
         -1   -1    0    0    0  501 -0.00000000000E+00 -0.00000000000E+00 -0.14632301296E+02  0.14632302041E+02  0.46700000000E-02 0. -1.
         23    2    1    2    0    0  0.00000000000E+00  0.00000000000E+00  0.37056454704E+02  0.66321058252E+02  0.55002744771E+02 0.  0.
        -13    1    3    3    0    0 -0.11892988566E+02 -0.11730761216E+02 -0.78135317662E+01  0.18442244627E+02  0.10570000000E+00 0. -1.
         13    1    3    3    0    0  0.11892988566E+02  0.11730761216E+02  0.44869986471E+02  0.47878813625E+02  0.10570000000E+00 0.  1.
<mgrwt>
<rscale>  0 0.55002745E+02</rscale>
<asrwt>0</asrwt>
<pdfrwt beam="1">  1        1 0.79521164E-02 0.55002745E+02</pdfrwt>
<pdfrwt beam="2">  1       -1 0.22511233E-02 0.55002745E+02</pdfrwt>
<totfact> 0.36611624E+05</totfact>
</mgrwt>
</event>
<event>
 5   1  0.1388354E+00  0.9043652E+02  0.7818608E-02  0.1301798E+00
         -1   -1    0    0    0  501 -0.00000000000E+00  0.00000000000E+00  0.66036764843E+01  0.66036781355E+01  0.46700000000E-02 0.  1.
          1   -1    0    0  501    0  0.00000000000E+00 -0.00000000000E+00 -0.30962918446E+03  0.30962918450E+03  0.46700000000E-02 0. -1.
         23    2    1    2    0    0  0.00000000000E+00  0.00000000000E+00 -0.30302550798E+03  0.31623286263E+03  0.90436524279E+02 0.  0.
        -13    1    3    3    0    0 -0.19404702607E+02 -0.35702239270E+02 -0.82149619631E+02  0.91650223951E+02  0.10570000000E+00 0.  1.
         13    1    3    3    0    0  0.19404702607E+02  0.35702239270E+02 -0.22087588835E+03  0.22458263868E+03  0.10570000000E+00 0. -1.
<mgrwt>
<rscale>  0 0.90436524E+02</rscale>
<asrwt>0</asrwt>
<pdfrwt beam="2">  1        1 0.47635248E-01 0.90436524E+02</pdfrwt>
<pdfrwt beam="1">  1       -1 0.10159506E-02 0.90436524E+02</pdfrwt>
<totfact> 0.13171918E+05</totfact>
</mgrwt>
</event>
<event>
 5   1  0.1388354E+00  0.9359071E+02  0.7818608E-02  0.1294382E+00
         -1   -1    0    0    0  501 -0.00000000000E+00  0.00000000000E+00  0.45642885156E+03  0.45642885158E+03  0.46700000000E-02 0.  1.
          1   -1    0    0  501    0  0.00000000000E+00 -0.00000000000E+00 -0.47976908399E+01  0.47976931128E+01  0.46700000000E-02 0. -1.
         23    2    1    2    0    0  0.00000000000E+00  0.00000000000E+00  0.45163116072E+03  0.46122654470E+03  0.93590705732E+02 0.  0.
        -13    1    3    3    0    0  0.26508829794E+02  0.37934702703E+02  0.19166039613E+03  0.19716865457E+03  0.10570000000E+00 0. -1.
         13    1    3    3    0    0 -0.26508829794E+02 -0.37934702703E+02  0.25997076459E+03  0.26405789013E+03  0.10570000000E+00 0.  1.
<mgrwt>
<rscale>  0 0.93590706E+02</rscale>
<asrwt>0</asrwt>
<pdfrwt beam="2">  1        1 0.73810606E-03 0.93590706E+02</pdfrwt>
<pdfrwt beam="1">  1       -1 0.70219862E-01 0.93590706E+02</pdfrwt>
<totfact> 0.46359281E+04</totfact>
</mgrwt>
</event>
<event>
 5   1  0.1388354E+00  0.9324778E+02  0.7818608E-02  0.1295172E+00
         -1   -1    0    0    0  501 -0.00000000000E+00  0.00000000000E+00  0.90398942088E+02  0.90398942209E+02  0.46700000000E-02 0.  1.
          1   -1    0    0  501    0  0.00000000000E+00 -0.00000000000E+00 -0.24046597241E+02  0.24046597694E+02  0.46700000000E-02 0. -1.
         23    2    1    2    0    0  0.00000000000E+00  0.00000000000E+00  0.66352344847E+02  0.11444553990E+03  0.93247777116E+02 0.  0.
        -13    1    3    3    0    0  0.33253855223E+02  0.77087841778E+01  0.72152878454E+02  0.79820381372E+02  0.10570000000E+00 0.  1.
         13    1    3    3    0    0 -0.33253855223E+02 -0.77087841778E+01 -0.58005336062E+01  0.34625158531E+02  0.10570000000E+00 0. -1.
<mgrwt>
<rscale>  0 0.93247777E+02</rscale>
<asrwt>0</asrwt>
<pdfrwt beam="2">  1        1 0.36994765E-02 0.93247777E+02</pdfrwt>
<pdfrwt beam="1">  1       -1 0.13907530E-01 0.93247777E+02</pdfrwt>
<totfact> 0.78225411E+04</totfact>
</mgrwt>
</event>
<event>
 5   1  0.1388354E+00  0.9069765E+02  0.7818608E-02  0.1301171E+00
         -1   -1    0    0    0  501 -0.00000000000E+00  0.00000000000E+00  0.38423528500E+02  0.38423528784E+02  0.46700000000E-02 0.  1.
          1   -1    0    0  501    0  0.00000000000E+00 -0.00000000000E+00 -0.53522307533E+02  0.53522307737E+02  0.46700000000E-02 0. -1.
         23    2    1    2    0    0  0.00000000000E+00  0.00000000000E+00 -0.15098779033E+02  0.91945836521E+02  0.90697650054E+02 0.  0.
        -13    1    3    3    0    0 -0.29397646295E+02 -0.30613073163E+02  0.86429930958E+01  0.43313904907E+02  0.10570000000E+00 0.  1.
         13    1    3    3    0    0  0.29397646295E+02  0.30613073163E+02 -0.23741772129E+02  0.48631931614E+02  0.10570000000E+00 0. -1.
<mgrwt>
<rscale>  0 0.90697650E+02</rscale>
<asrwt>0</asrwt>
<pdfrwt beam="2">  1        1 0.82342012E-02 0.90697650E+02</pdfrwt>
<pdfrwt beam="1">  1       -1 0.59113121E-02 0.90697650E+02</pdfrwt>
<totfact> 0.96126952E+04</totfact>
</mgrwt>
</event>
<event>
 5   1  0.1388354E+00  0.9056089E+02  0.7818608E-02  0.1301499E+00
         -1   -1    0    0    0  501 -0.00000000000E+00  0.00000000000E+00  0.11109433675E+02  0.11109434657E+02  0.46700000000E-02 0.  1.
          1   -1    0    0  501    0  0.00000000000E+00 -0.00000000000E+00 -0.18455652280E+03  0.18455652285E+03  0.46700000000E-02 0. -1.
         23    2    1    2    0    0  0.00000000000E+00  0.00000000000E+00 -0.17344708912E+03  0.19566595751E+03  0.90560886726E+02 0.  0.
        -13    1    3    3    0    0  0.38163928780E+02  0.19069523197E+02 -0.53943927600E+02  0.68775654649E+02  0.10570000000E+00 0.  1.
         13    1    3    3    0    0 -0.38163928780E+02 -0.19069523197E+02 -0.11950316152E+03  0.12689030286E+03  0.10570000000E+00 0. -1.
<mgrwt>
<rscale>  0 0.90560887E+02</rscale>
<asrwt>0</asrwt>
<pdfrwt beam="2">  1        1 0.28393309E-01 0.90560887E+02</pdfrwt>
<pdfrwt beam="1">  1       -1 0.17091439E-02 0.90560887E+02</pdfrwt>
<totfact> 0.11872359E+05</totfact>
</mgrwt>
</event>
<event>
 5   1  0.1388354E+00  0.9229268E+02  0.7818608E-02  0.1297393E+00
          1   -1    0    0  501    0  0.00000000000E+00  0.00000000000E+00  0.20717766110E+02  0.20717766637E+02  0.46700000000E-02 0. -1.
         -1   -1    0    0    0  501 -0.00000000000E+00 -0.00000000000E+00 -0.10278544606E+03  0.10278544617E+03  0.46700000000E-02 0.  1.
         23    2    1    2    0    0  0.00000000000E+00  0.00000000000E+00 -0.82067679952E+02  0.12350321280E+03  0.92292683786E+02 0.  0.
        -13    1    3    3    0    0  0.16504467791E+02 -0.36715509263E+02 -0.71225722020E+02  0.81814061916E+02  0.10570000000E+00 0.  1.
         13    1    3    3    0    0 -0.16504467791E+02  0.36715509263E+02 -0.10841957932E+02  0.41689150888E+02  0.10570000000E+00 0. -1.
<mgrwt>
<rscale>  0 0.92292684E+02</rscale>
<asrwt>0</asrwt>
<pdfrwt beam="1">  1        1 0.31873487E-02 0.92292684E+02</pdfrwt>
<pdfrwt beam="2">  1       -1 0.15813145E-01 0.92292684E+02</pdfrwt>
<totfact> 0.78452119E+04</totfact>
</mgrwt>
</event>
<event>
 5   1  0.1388354E+00  0.9018912E+02  0.7818608E-02  0.1302394E+00
          1   -1    0    0  501    0  0.00000000000E+00  0.00000000000E+00  0.13188891150E+03  0.13188891159E+03  0.46700000000E-02 0. -1.
         -1   -1    0    0    0  501 -0.00000000000E+00 -0.00000000000E+00 -0.15418425179E+02  0.15418425886E+02  0.46700000000E-02 0.  1.
         23    2    1    2    0    0  0.00000000000E+00  0.00000000000E+00  0.11647048633E+03  0.14730733747E+03  0.90189120677E+02 0.  0.
        -13    1    3    3    0    0  0.35874462354E+02  0.24738705966E+02  0.77179426504E+02  0.88632136780E+02  0.10570000000E+00 0. -1.
         13    1    3    3    0    0 -0.35874462354E+02 -0.24738705966E+02  0.39291059821E+02  0.58675200693E+02  0.10570000000E+00 0.  1.
<mgrwt>
<rscale>  0 0.90189121E+02</rscale>
<asrwt>0</asrwt>
<pdfrwt beam="1">  1        1 0.20290601E-01 0.90189121E+02</pdfrwt>
<pdfrwt beam="2">  1       -1 0.23720655E-02 0.90189121E+02</pdfrwt>
<totfact> 0.11282068E+05</totfact>
</mgrwt>
</event>
<event>
 5   1  0.1388354E+00  0.9387762E+02  0.7818608E-02  0.1293724E+00
         -1   -1    0    0    0  501 -0.00000000000E+00  0.00000000000E+00  0.67697052619E+02  0.67697052780E+02  0.46700000000E-02 0.  1.
          1   -1    0    0  501    0  0.00000000000E+00 -0.00000000000E+00 -0.32545760636E+02  0.32545760971E+02  0.46700000000E-02 0. -1.
         23    2    1    2    0    0  0.00000000000E+00  0.00000000000E+00  0.35151291983E+02  0.10024281375E+03  0.93877624494E+02 0.  0.
        -13    1    3    3    0    0 -0.34073920013E+02  0.27884394710E+02  0.34947375059E+02  0.56213002850E+02  0.10570000000E+00 0.  1.
         13    1    3    3    0    0  0.34073920013E+02 -0.27884394710E+02  0.20391692397E+00  0.44029810901E+02  0.10570000000E+00 0. -1.
<mgrwt>
<rscale>  0 0.93877624E+02</rscale>
<asrwt>0</asrwt>
<pdfrwt beam="2">  1        1 0.50070402E-02 0.93877624E+02</pdfrwt>
<pdfrwt beam="1">  1       -1 0.10414931E-01 0.93877624E+02</pdfrwt>
<totfact> 0.80766777E+04</totfact>
</mgrwt>
</event>
<event>
 5   1  0.1388354E+00  0.9322574E+02  0.7818608E-02  0.1295223E+00
         -1   -1    0    0    0  501 -0.00000000000E+00  0.00000000000E+00  0.25133566897E+02  0.25133567331E+02  0.46700000000E-02 0.  1.
          1   -1    0    0  501    0  0.00000000000E+00 -0.00000000000E+00 -0.86448511473E+02  0.86448511599E+02  0.46700000000E-02 0. -1.
         23    2    1    2    0    0  0.00000000000E+00  0.00000000000E+00 -0.61314944576E+02  0.11158207893E+03  0.93225736307E+02 0.  0.
        -13    1    3    3    0    0 -0.39741599886E+02 -0.18537460753E+02 -0.49571407264E+02  0.66184347117E+02  0.10570000000E+00 0. -1.
         13    1    3    3    0    0  0.39741599886E+02  0.18537460753E+02 -0.11743537312E+02  0.45397731813E+02  0.10570000000E+00 0.  1.
<mgrwt>
<rscale>  0 0.93225736E+02</rscale>
<asrwt>0</asrwt>
<pdfrwt beam="2">  1        1 0.13299771E-01 0.93225736E+02</pdfrwt>
<pdfrwt beam="1">  1       -1 0.38667027E-02 0.93225736E+02</pdfrwt>
<totfact> 0.95960302E+04</totfact>
</mgrwt>
</event>
<event>
 5   1  0.1388354E+00  0.9069819E+02  0.7818608E-02  0.1301170E+00
         -1   -1    0    0    0  501 -0.00000000000E+00  0.00000000000E+00  0.16184445810E+02  0.16184446483E+02  0.46700000000E-02 0.  1.
          1   -1    0    0  501    0  0.00000000000E+00 -0.00000000000E+00 -0.12706893285E+03  0.12706893294E+03  0.46700000000E-02 0. -1.
         23    2    1    2    0    0  0.00000000000E+00  0.00000000000E+00 -0.11088448704E+03  0.14325337942E+03  0.90698187682E+02 0.  0.
        -13    1    3    3    0    0 -0.34292025850E+02 -0.27752471988E+02 -0.38847747986E+02  0.58781812105E+02  0.10570000000E+00 0.  1.
         13    1    3    3    0    0  0.34292025850E+02  0.27752471988E+02 -0.72036739055E+02  0.84471567314E+02  0.10570000000E+00 0. -1.
<mgrwt>
<rscale>  0 0.90698188E+02</rscale>
<asrwt>0</asrwt>
<pdfrwt beam="2">  1        1 0.19549066E-01 0.90698188E+02</pdfrwt>
<pdfrwt beam="1">  1       -1 0.24899149E-02 0.90698188E+02</pdfrwt>
<totfact> 0.11038743E+05</totfact>
</mgrwt>
</event>
<event>
 5   1  0.1388354E+00  0.8997481E+02  0.7818608E-02  0.1302913E+00
          1   -1    0    0  501    0  0.00000000000E+00  0.00000000000E+00  0.70378660095E+02  0.70378660250E+02  0.46700000000E-02 0. -1.
         -1   -1    0    0    0  501 -0.00000000000E+00 -0.00000000000E+00 -0.28756823188E+02  0.28756823567E+02  0.46700000000E-02 0.  1.
         23    2    1    2    0    0  0.00000000000E+00  0.00000000000E+00  0.41621836907E+02  0.99135483817E+02  0.89974812276E+02 0.  0.
        -13    1    3    3    0    0 -0.12905460060E+02  0.67178868327E+01 -0.26092900515E+02  0.29875266235E+02  0.10570000000E+00 0.  1.
         13    1    3    3    0    0  0.12905460060E+02 -0.67178868327E+01  0.67714737422E+02  0.69260217581E+02  0.10570000000E+00 0. -1.
<mgrwt>
<rscale>  0 0.89974812E+02</rscale>
<asrwt>0</asrwt>
<pdfrwt beam="1">  1        1 0.10827486E-01 0.89974812E+02</pdfrwt>
<pdfrwt beam="2">  1       -1 0.44241267E-02 0.89974812E+02</pdfrwt>
<totfact> 0.10242327E+05</totfact>
</mgrwt>
</event>
<event>
 5   1  0.1388354E+00  0.9211361E+02  0.7818608E-02  0.1297813E+00
         -1   -1    0    0    0  501 -0.00000000000E+00  0.00000000000E+00  0.32037687905E+03  0.32037687909E+03  0.46700000000E-02 0.  1.
          1   -1    0    0  501    0  0.00000000000E+00 -0.00000000000E+00 -0.66210426343E+01  0.66210442812E+01  0.46700000000E-02 0. -1.
         23    2    1    2    0    0  0.00000000000E+00  0.00000000000E+00  0.31375583642E+03  0.32699792337E+03  0.92113609202E+02 0.  0.
        -13    1    3    3    0    0  0.97700431326E+01 -0.40393004575E+02  0.22735740168E+03  0.23112431251E+03  0.10570000000E+00 0.  1.
         13    1    3    3    0    0 -0.97700431326E+01  0.40393004575E+02  0.86398434738E+02  0.95873610859E+02  0.10570000000E+00 0. -1.
<mgrwt>
<rscale>  0 0.92113609E+02</rscale>
<asrwt>0</asrwt>
<pdfrwt beam="2">  1        1 0.10186224E-02 0.92113609E+02</pdfrwt>
<pdfrwt beam="1">  1       -1 0.49288734E-01 0.92113609E+02</pdfrwt>
<totfact> 0.57438223E+04</totfact>
</mgrwt>
</event>
<event>
 5   1  0.1388354E+00  0.9154611E+02  0.7818608E-02  0.1299150E+00
          1   -1    0    0  501    0  0.00000000000E+00  0.00000000000E+00  0.39277418656E+02  0.39277418933E+02  0.46700000000E-02 0. -1.
         -1   -1    0    0    0  501 -0.00000000000E+00 -0.00000000000E+00 -0.53342927597E+02  0.53342927802E+02  0.46700000000E-02 0.  1.
         23    2    1    2    0    0  0.00000000000E+00  0.00000000000E+00 -0.14065508942E+02  0.92620346735E+02  0.91546109079E+02 0.  0.
        -13    1    3    3    0    0 -0.15341901190E+02  0.20322986916E+02 -0.45515433792E+02  0.52154229119E+02  0.10570000000E+00 0.  1.
         13    1    3    3    0    0  0.15341901190E+02 -0.20322986916E+02  0.31449924850E+02  0.40466117615E+02  0.10570000000E+00 0. -1.
<mgrwt>
<rscale>  0 0.91546109E+02</rscale>
<asrwt>0</asrwt>
<pdfrwt beam="1">  1        1 0.60426798E-02 0.91546109E+02</pdfrwt>
<pdfrwt beam="2">  1       -1 0.82066044E-02 0.91546109E+02</pdfrwt>
<totfact> 0.89383837E+04</totfact>
</mgrwt>
</event>
<event>
 5   1  0.1388354E+00  0.8964327E+02  0.7818608E-02  0.1303718E+00
         -1   -1    0    0    0  501 -0.00000000000E+00  0.00000000000E+00  0.56405449205E+02  0.56405449399E+02  0.46700000000E-02 0.  1.
          1   -1    0    0  501    0  0.00000000000E+00 -0.00000000000E+00 -0.35616756261E+02  0.35616756567E+02  0.46700000000E-02 0. -1.
         23    2    1    2    0    0  0.00000000000E+00  0.00000000000E+00  0.20788692945E+02  0.92022205966E+02  0.89643274351E+02 0.  0.
        -13    1    3    3    0    0  0.22339161962E+02  0.19867618587E+02 -0.23886598207E+02  0.38266711015E+02  0.10570000000E+00 0. -1.
         13    1    3    3    0    0 -0.22339161962E+02 -0.19867618587E+02  0.44675291151E+02  0.53755494951E+02  0.10570000000E+00 0.  1.
<mgrwt>
<rscale>  0 0.89643274E+02</rscale>
<asrwt>0</asrwt>
<pdfrwt beam="2">  1        1 0.54795010E-02 0.89643274E+02</pdfrwt>
<pdfrwt beam="1">  1       -1 0.86777615E-02 0.89643274E+02</pdfrwt>
<totfact> 0.93453695E+04</totfact>
</mgrwt>
</event>
<event>
 5   1  0.1388354E+00  0.9256802E+02  0.7818608E-02  0.1296749E+00
          1   -1    0    0  501    0  0.00000000000E+00  0.00000000000E+00  0.52213623729E+02  0.52213623937E+02  0.46700000000E-02 0. -1.
         -1   -1    0    0    0  501 -0.00000000000E+00 -0.00000000000E+00 -0.41027787299E+02  0.41027787564E+02  0.46700000000E-02 0.  1.
         23    2    1    2    0    0  0.00000000000E+00  0.00000000000E+00  0.11185836430E+02  0.93241411502E+02  0.92568017599E+02 0.  0.
        -13    1    3    3    0    0 -0.11911062909E+02 -0.37602990998E+02  0.29983525726E+02  0.49546759118E+02  0.10570000000E+00 0. -1.
         13    1    3    3    0    0  0.11911062909E+02  0.37602990998E+02 -0.18797689296E+02  0.43694652384E+02  0.10570000000E+00 0.  1.
<mgrwt>
<rscale>  0 0.92568018E+02</rscale>
<asrwt>0</asrwt>
<pdfrwt beam="1">  1        1 0.80328652E-02 0.92568018E+02</pdfrwt>
<pdfrwt beam="2">  1       -1 0.63119674E-02 0.92568018E+02</pdfrwt>
<totfact> 0.90463288E+04</totfact>
</mgrwt>
</event>
<event>
 5   1  0.1388354E+00  0.8860139E+02  0.7818608E-02  0.1306274E+00
         -1   -1    0    0    0  501 -0.00000000000E+00  0.00000000000E+00  0.89033644764E+01  0.89033657011E+01  0.46700000000E-02 0.  1.
          1   -1    0    0  501    0  0.00000000000E+00 -0.00000000000E+00 -0.22042808640E+03  0.22042808644E+03  0.46700000000E-02 0. -1.
         23    2    1    2    0    0  0.00000000000E+00  0.00000000000E+00 -0.21152472192E+03  0.22933145215E+03  0.88601393671E+02 0.  0.
        -13    1    3    3    0    0 -0.82367484087E+01 -0.33276422236E+02 -0.33132664730E+02  0.47675454332E+02  0.10570000000E+00 0.  1.
         13    1    3    3    0    0  0.82367484087E+01  0.33276422236E+02 -0.17839205719E+03  0.18165599781E+03  0.10570000000E+00 0. -1.
<mgrwt>
<rscale>  0 0.88601394E+02</rscale>
<asrwt>0</asrwt>
<pdfrwt beam="2">  1        1 0.33912009E-01 0.88601394E+02</pdfrwt>
<pdfrwt beam="1">  1       -1 0.13697486E-02 0.88601394E+02</pdfrwt>
<totfact> 0.13026822E+05</totfact>
</mgrwt>
</event>
<event>
 5   1  0.1388354E+00  0.9031001E+02  0.7818608E-02  0.1302103E+00
          1   -1    0    0  501    0  0.00000000000E+00  0.00000000000E+00  0.30532319314E+02  0.30532319672E+02  0.46700000000E-02 0. -1.
         -1   -1    0    0    0  501 -0.00000000000E+00 -0.00000000000E+00 -0.66780850063E+02  0.66780850227E+02  0.46700000000E-02 0.  1.
         23    2    1    2    0    0  0.00000000000E+00  0.00000000000E+00 -0.36248530749E+02  0.97313169898E+02  0.90310005283E+02 0.  0.
        -13    1    3    3    0    0  0.23078141233E+02  0.30581941976E+02 -0.43875295840E+02  0.58248678400E+02  0.10570000000E+00 0.  1.
         13    1    3    3    0    0 -0.23078141233E+02 -0.30581941976E+02  0.76267650908E+01  0.39064491498E+02  0.10570000000E+00 0. -1.
<mgrwt>
<rscale>  0 0.90310005E+02</rscale>
<asrwt>0</asrwt>
<pdfrwt beam="1">  1        1 0.46972800E-02 0.90310005E+02</pdfrwt>
<pdfrwt beam="2">  1       -1 0.10273977E-01 0.90310005E+02</pdfrwt>
<totfact> 0.89340819E+04</totfact>
</mgrwt>
</event>
<event>
 5   1  0.1388354E+00  0.8496611E+02  0.7818608E-02  0.1315521E+00
         -1   -1    0    0    0  501 -0.00000000000E+00  0.00000000000E+00  0.50051889245E+02  0.50051889463E+02  0.46700000000E-02 0.  1.
          1   -1    0    0  501    0  0.00000000000E+00 -0.00000000000E+00 -0.36058781338E+02  0.36058781640E+02  0.46700000000E-02 0. -1.
         23    2    1    2    0    0  0.00000000000E+00  0.00000000000E+00  0.13993107907E+02  0.86110671103E+02  0.84966114475E+02 0.  0.
        -13    1    3    3    0    0  0.20782665277E+02  0.23366854142E+02  0.36139255942E+02  0.47791066540E+02  0.10570000000E+00 0.  1.
         13    1    3    3    0    0 -0.20782665277E+02 -0.23366854142E+02 -0.22146148035E+02  0.38319604562E+02  0.10570000000E+00 0. -1.
<mgrwt>
<rscale>  0 0.84966114E+02</rscale>
<asrwt>0</asrwt>
<pdfrwt beam="2">  1        1 0.55475048E-02 0.84966114E+02</pdfrwt>
<pdfrwt beam="1">  1       -1 0.77002907E-02 0.84966114E+02</pdfrwt>
<totfact> 0.10887980E+05</totfact>
</mgrwt>
</event>
<event>
 5   1  0.1388354E+00  0.9227886E+02  0.7818608E-02  0.1297425E+00
         -1   -1    0    0    0  501 -0.00000000000E+00  0.00000000000E+00  0.11982640434E+03  0.11982640443E+03  0.46700000000E-02 0.  1.
          1   -1    0    0  501    0  0.00000000000E+00 -0.00000000000E+00 -0.17766092469E+02  0.17766093083E+02  0.46700000000E-02 0. -1.
         23    2    1    2    0    0  0.00000000000E+00  0.00000000000E+00  0.10206031187E+03  0.13759249751E+03  0.92278860596E+02 0.  0.
        -13    1    3    3    0    0 -0.83829198917E+01 -0.20176909821E+02 -0.95633217222E+01  0.23850562482E+02  0.10570000000E+00 0. -1.
         13    1    3    3    0    0  0.83829198917E+01  0.20176909821E+02  0.11162363359E+03  0.11374193503E+03  0.10570000000E+00 0.  1.
<mgrwt>
<rscale>  0 0.92278861E+02</rscale>
<asrwt>0</asrwt>
<pdfrwt beam="2">  1        1 0.27332450E-02 0.92278861E+02</pdfrwt>
<pdfrwt beam="1">  1       -1 0.18434832E-01 0.92278861E+02</pdfrwt>
<totfact> 0.76148868E+04</totfact>
</mgrwt>
</event>
<event>
 5   1  0.1388354E+00  0.9113615E+02  0.7818608E-02  0.1300123E+00
          1   -1    0    0  501    0  0.00000000000E+00  0.00000000000E+00  0.38854489411E+03  0.38854489414E+03  0.46700000000E-02 0. -1.
         -1   -1    0    0    0  501 -0.00000000000E+00 -0.00000000000E+00 -0.53441670761E+01  0.53441691165E+01  0.46700000000E-02 0.  1.
         23    2    1    2    0    0  0.00000000000E+00  0.00000000000E+00  0.38320072704E+03  0.39388906326E+03  0.91136145147E+02 0.  0.
        -13    1    3    3    0    0 -0.24550237565E+02  0.35446913583E+02  0.25530240974E+03  0.25891799752E+03  0.10570000000E+00 0. -1.
         13    1    3    3    0    0  0.24550237565E+02 -0.35446913583E+02  0.12789831730E+03  0.13497106574E+03  0.10570000000E+00 0.  1.
<mgrwt>
<rscale>  0 0.91136145E+02</rscale>
<asrwt>0</asrwt>
<pdfrwt beam="1">  1        1 0.59776167E-01 0.91136145E+02</pdfrwt>
<pdfrwt beam="2">  1       -1 0.82217931E-03 0.91136145E+02</pdfrwt>
<totfact> 0.13440235E+05</totfact>
</mgrwt>
</event>
<event>
 5   1  0.1388354E+00  0.9242193E+02  0.7818608E-02  0.1297090E+00
         -1   -1    0    0    0  501 -0.00000000000E+00  0.00000000000E+00  0.16281575963E+03  0.16281575969E+03  0.46700000000E-02 0.  1.
          1   -1    0    0  501    0  0.00000000000E+00 -0.00000000000E+00 -0.13115765885E+02  0.13115766716E+02  0.46700000000E-02 0. -1.
         23    2    1    2    0    0  0.00000000000E+00  0.00000000000E+00  0.14969999374E+03  0.17593152641E+03  0.92421933861E+02 0.  0.
        -13    1    3    3    0    0  0.14389054295E+02 -0.20477054048E+02  0.14879789835E+03  0.15088797286E+03  0.10570000000E+00 0.  1.
         13    1    3    3    0    0 -0.14389054295E+02  0.20477054048E+02  0.90209538803E+00  0.25043553553E+02  0.10570000000E+00 0. -1.
<mgrwt>
<rscale>  0 0.92421934E+02</rscale>
<asrwt>0</asrwt>
<pdfrwt beam="2">  1        1 0.20178103E-02 0.92421934E+02</pdfrwt>
<pdfrwt beam="1">  1       -1 0.25048577E-01 0.92421934E+02</pdfrwt>
<totfact> 0.70785717E+04</totfact>
</mgrwt>
</event>
<event>
 5   1  0.1388354E+00  0.9150756E+02  0.7818608E-02  0.1299241E+00
          1   -1    0    0  501    0  0.00000000000E+00  0.00000000000E+00  0.57223333776E+02  0.57223333967E+02  0.46700000000E-02 0. -1.
         -1   -1    0    0    0  501 -0.00000000000E+00 -0.00000000000E+00 -0.36583121774E+02  0.36583122072E+02  0.46700000000E-02 0.  1.
         23    2    1    2    0    0  0.00000000000E+00  0.00000000000E+00  0.20640212002E+02  0.93806456039E+02  0.91507556207E+02 0.  0.
        -13    1    3    3    0    0 -0.24638159493E+02  0.17066078205E+02 -0.25118708593E+02  0.39105634152E+02  0.10570000000E+00 0.  1.
         13    1    3    3    0    0  0.24638159493E+02 -0.17066078205E+02  0.45758920596E+02  0.54700821887E+02  0.10570000000E+00 0. -1.
<mgrwt>
<rscale>  0 0.91507556E+02</rscale>
<asrwt>0</asrwt>
<pdfrwt beam="1">  1        1 0.88035898E-02 0.91507556E+02</pdfrwt>
<pdfrwt beam="2">  1       -1 0.56281726E-02 0.91507556E+02</pdfrwt>
<totfact> 0.94724975E+04</totfact>
</mgrwt>
</event>
<event>
 5   1  0.1388354E+00  0.9029698E+02  0.7818608E-02  0.1302134E+00
          1   -1    0    0  501    0  0.00000000000E+00  0.00000000000E+00  0.31624901297E+02  0.31624901642E+02  0.46700000000E-02 0. -1.
         -1   -1    0    0    0  501 -0.00000000000E+00 -0.00000000000E+00 -0.64455093258E+02  0.64455093427E+02  0.46700000000E-02 0.  1.
         23    2    1    2    0    0  0.00000000000E+00  0.00000000000E+00 -0.32830191961E+02  0.96079995069E+02  0.90296976408E+02 0.  0.
        -13    1    3    3    0    0 -0.14981011046E+02  0.59461297770E+01 -0.61289366499E+02  0.63373375874E+02  0.10570000000E+00 0.  1.
         13    1    3    3    0    0  0.14981011046E+02 -0.59461297770E+01  0.28459174538E+02  0.32706619195E+02  0.10570000000E+00 0. -1.
<mgrwt>
<rscale>  0 0.90296976E+02</rscale>
<asrwt>0</asrwt>
<pdfrwt beam="1">  1        1 0.48653695E-02 0.90296976E+02</pdfrwt>
<pdfrwt beam="2">  1       -1 0.99161682E-02 0.90296976E+02</pdfrwt>
<totfact> 0.89875832E+04</totfact>
</mgrwt>
</event>
<event>
 5   1  0.1388354E+00  0.9125225E+02  0.7818608E-02  0.1299847E+00
          1   -1    0    0  501    0  0.00000000000E+00  0.00000000000E+00  0.17259502804E+03  0.17259502810E+03  0.46700000000E-02 0. -1.
         -1   -1    0    0    0  501 -0.00000000000E+00 -0.00000000000E+00 -0.12061431537E+02  0.12061432442E+02  0.46700000000E-02 0.  1.
         23    2    1    2    0    0  0.00000000000E+00  0.00000000000E+00  0.16053359650E+03  0.18465646055E+03  0.91252248273E+02 0.  0.
        -13    1    3    3    0    0  0.45585346970E+02  0.15857392640E+01  0.78055990186E+02  0.90406234319E+02  0.10570000000E+00 0.  1.
         13    1    3    3    0    0 -0.45585346970E+02 -0.15857392640E+01  0.82477606319E+02  0.94250226227E+02  0.10570000000E+00 0. -1.
<mgrwt>
<rscale>  0 0.91252248E+02</rscale>
<asrwt>0</asrwt>
<pdfrwt beam="1">  1        1 0.26553081E-01 0.91252248E+02</pdfrwt>
<pdfrwt beam="2">  1       -1 0.18556050E-02 0.91252248E+02</pdfrwt>
<totfact> 0.11484797E+05</totfact>
</mgrwt>
</event>
<event>
 5   1  0.1388354E+00  0.9127778E+02  0.7818608E-02  0.1299787E+00
          1   -1    0    0  501    0  0.00000000000E+00  0.00000000000E+00  0.62235194084E+02  0.62235194259E+02  0.46700000000E-02 0. -1.
         -1   -1    0    0    0  501 -0.00000000000E+00 -0.00000000000E+00 -0.33468331993E+02  0.33468332319E+02  0.46700000000E-02 0.  1.
         23    2    1    2    0    0  0.00000000000E+00  0.00000000000E+00  0.28766862091E+02  0.95703526579E+02  0.91277777389E+02 0.  0.
        -13    1    3    3    0    0  0.39735847417E+02  0.13031571636E+02 -0.47823063410E+01  0.42090866654E+02  0.10570000000E+00 0.  1.
         13    1    3    3    0    0 -0.39735847417E+02 -0.13031571636E+02  0.33549168432E+02  0.53612659925E+02  0.10570000000E+00 0. -1.
<mgrwt>
<rscale>  0 0.91277777E+02</rscale>
<asrwt>0</asrwt>
<pdfrwt beam="1">  1        1 0.95746452E-02 0.91277777E+02</pdfrwt>
<pdfrwt beam="2">  1       -1 0.51489742E-02 0.91277777E+02</pdfrwt>
<totfact> 0.96610348E+04</totfact>
</mgrwt>
</event>
<event>
 5   1  0.1388354E+00  0.9396608E+02  0.7818608E-02  0.1293522E+00
          1   -1    0    0  501    0  0.00000000000E+00  0.00000000000E+00  0.44901779708E+02  0.44901779951E+02  0.46700000000E-02 0. -1.
         -1   -1    0    0    0  501 -0.00000000000E+00 -0.00000000000E+00 -0.49160766444E+02  0.49160766666E+02  0.46700000000E-02 0.  1.
         23    2    1    2    0    0  0.00000000000E+00  0.00000000000E+00 -0.42589867365E+01  0.94062546617E+02  0.93966077432E+02 0.  0.
        -13    1    3    3    0    0 -0.95277665726E+01 -0.22228503698E+02  0.38192252804E+02  0.45205575533E+02  0.10570000000E+00 0. -1.
         13    1    3    3    0    0  0.95277665726E+01  0.22228503698E+02 -0.42451239540E+02  0.48856971084E+02  0.10570000000E+00 0.  1.
<mgrwt>
<rscale>  0 0.93966077E+02</rscale>
<asrwt>0</asrwt>
<pdfrwt beam="1">  1        1 0.69079661E-02 0.93966077E+02</pdfrwt>
<pdfrwt beam="2">  1       -1 0.75631949E-02 0.93966077E+02</pdfrwt>
<totfact> 0.84749215E+04</totfact>
</mgrwt>
</event>
<event>
 5   1  0.1388354E+00  0.9216310E+02  0.7818608E-02  0.1297696E+00
         -1   -1    0    0    0  501 -0.00000000000E+00  0.00000000000E+00  0.83751061789E+02  0.83751061919E+02  0.46700000000E-02 0.  1.
          1   -1    0    0  501    0  0.00000000000E+00 -0.00000000000E+00 -0.25355014046E+02  0.25355014476E+02  0.46700000000E-02 0. -1.
         23    2    1    2    0    0  0.00000000000E+00  0.00000000000E+00  0.58396047742E+02  0.10910607639E+03  0.92163102782E+02 0.  0.
        -13    1    3    3    0    0 -0.16703143993E+02  0.89566937088E+01  0.78923128754E+02  0.81167042611E+02  0.10570000000E+00 0.  1.
         13    1    3    3    0    0  0.16703143993E+02 -0.89566937088E+01 -0.20527081012E+02  0.27939033784E+02  0.10570000000E+00 0. -1.
<mgrwt>
<rscale>  0 0.92163103E+02</rscale>
<asrwt>0</asrwt>
<pdfrwt beam="2">  1        1 0.39007713E-02 0.92163103E+02</pdfrwt>
<pdfrwt beam="1">  1       -1 0.12884779E-01 0.92163103E+02</pdfrwt>
<totfact> 0.81704456E+04</totfact>
</mgrwt>
</event>
<event>
 5   1  0.1388354E+00  0.9011516E+02  0.7818608E-02  0.1302573E+00
          1   -1    0    0  501    0  0.00000000000E+00  0.00000000000E+00  0.33510851526E+02  0.33510851851E+02  0.46700000000E-02 0. -1.
         -1   -1    0    0    0  501 -0.00000000000E+00 -0.00000000000E+00 -0.60582928417E+02  0.60582928597E+02  0.46700000000E-02 0.  1.
         23    2    1    2    0    0  0.00000000000E+00  0.00000000000E+00 -0.27072076891E+02  0.94093780448E+02  0.90115160611E+02 0.  0.
        -13    1    3    3    0    0 -0.29750875964E+01 -0.44657313609E+02 -0.18966380005E+02  0.48609274301E+02  0.10570000000E+00 0.  1.
         13    1    3    3    0    0  0.29750875964E+01  0.44657313609E+02 -0.81056968853E+01  0.45484506148E+02  0.10570000000E+00 0. -1.
<mgrwt>
<rscale>  0 0.90115161E+02</rscale>
<asrwt>0</asrwt>
<pdfrwt beam="1">  1        1 0.51555157E-02 0.90115161E+02</pdfrwt>
<pdfrwt beam="2">  1       -1 0.93204505E-02 0.90115161E+02</pdfrwt>
<totfact> 0.91214544E+04</totfact>
</mgrwt>
</event>
<event>
 5   1  0.1388354E+00  0.9229597E+02  0.7818608E-02  0.1297385E+00
         -1   -1    0    0    0  501 -0.00000000000E+00  0.00000000000E+00  0.35713105598E+02  0.35713105904E+02  0.46700000000E-02 0.  1.
          1   -1    0    0  501    0  0.00000000000E+00 -0.00000000000E+00 -0.59631793787E+02  0.59631793970E+02  0.46700000000E-02 0. -1.
         23    2    1    2    0    0  0.00000000000E+00  0.00000000000E+00 -0.23918688189E+02  0.95344899874E+02  0.92295971132E+02 0.  0.
        -13    1    3    3    0    0  0.31126631010E+02  0.32571689433E+02 -0.16370991138E+01  0.45082961045E+02  0.10570000000E+00 0. -1.
         13    1    3    3    0    0 -0.31126631010E+02 -0.32571689433E+02 -0.22281589075E+02  0.50261938828E+02  0.10570000000E+00 0.  1.
<mgrwt>
<rscale>  0 0.92295971E+02</rscale>
<asrwt>0</asrwt>
<pdfrwt beam="2">  1        1 0.91741221E-02 0.92295971E+02</pdfrwt>
<pdfrwt beam="1">  1       -1 0.54943240E-02 0.92295971E+02</pdfrwt>
<totfact> 0.93071252E+04</totfact>
</mgrwt>
</event>
<event>
 5   1  0.1388354E+00  0.9156393E+02  0.7818608E-02  0.1299108E+00
          1   -1    0    0  501    0  0.00000000000E+00  0.00000000000E+00  0.61819149947E+02  0.61819150123E+02  0.46700000000E-02 0. -1.
         -1   -1    0    0    0  501 -0.00000000000E+00 -0.00000000000E+00 -0.33905163271E+02  0.33905163593E+02  0.46700000000E-02 0.  1.
         23    2    1    2    0    0  0.00000000000E+00  0.00000000000E+00  0.27913986675E+02  0.95724313716E+02  0.91563931678E+02 0.  0.
        -13    1    3    3    0    0 -0.18705863438E+02  0.27434843938E+02 -0.18993301283E+02  0.38253583557E+02  0.10570000000E+00 0.  1.
         13    1    3    3    0    0  0.18705863438E+02 -0.27434843938E+02  0.46907287958E+02  0.57470730159E+02  0.10570000000E+00 0. -1.
<mgrwt>
<rscale>  0 0.91563932E+02</rscale>
<asrwt>0</asrwt>
<pdfrwt beam="1">  1        1 0.95106385E-02 0.91563932E+02</pdfrwt>
<pdfrwt beam="2">  1       -1 0.52161790E-02 0.91563932E+02</pdfrwt>
<totfact> 0.95677405E+04</totfact>
</mgrwt>
</event>
<event>
 5   1  0.1388354E+00  0.9167801E+02  0.7818608E-02  0.1298838E+00
          1   -1    0    0  501    0  0.00000000000E+00  0.00000000000E+00  0.16943191873E+02  0.16943192517E+02  0.46700000000E-02 0. -1.
         -1   -1    0    0    0  501 -0.00000000000E+00 -0.00000000000E+00 -0.12401525165E+03  0.12401525174E+03  0.46700000000E-02 0.  1.
         23    2    1    2    0    0  0.00000000000E+00  0.00000000000E+00 -0.10707205978E+03  0.14095844426E+03  0.91678007297E+02 0.  0.
        -13    1    3    3    0    0 -0.13141172860E+02  0.16475136954E+02 -0.11612502821E+03  0.11802183658E+03  0.10570000000E+00 0.  1.
         13    1    3    3    0    0  0.13141172860E+02 -0.16475136954E+02  0.90529684275E+01  0.22936607674E+02  0.10570000000E+00 0. -1.
<mgrwt>
<rscale>  0 0.91678007E+02</rscale>
<asrwt>0</asrwt>
<pdfrwt beam="1">  1        1 0.26066450E-02 0.91678007E+02</pdfrwt>
<pdfrwt beam="2">  1       -1 0.19079269E-01 0.91678007E+02</pdfrwt>
<totfact> 0.76899134E+04</totfact>
</mgrwt>
</event>
<event>
 5   1  0.1388354E+00  0.9100280E+02  0.7818608E-02  0.1300441E+00
         -1   -1    0    0    0  501 -0.00000000000E+00  0.00000000000E+00  0.52030389224E+01  0.52030410182E+01  0.46700000000E-02 0.  1.
          1   -1    0    0  501    0  0.00000000000E+00 -0.00000000000E+00 -0.39791688717E+03  0.39791688719E+03  0.46700000000E-02 0. -1.
         23    2    1    2    0    0  0.00000000000E+00  0.00000000000E+00 -0.39271384824E+03  0.40311992821E+03  0.91002801709E+02 0.  0.
        -13    1    3    3    0    0 -0.10524215161E+02  0.44170925809E+02 -0.18341437489E+03  0.18895151199E+03  0.10570000000E+00 0.  1.
         13    1    3    3    0    0  0.10524215161E+02 -0.44170925809E+02 -0.20929947335E+03  0.21416841623E+03  0.10570000000E+00 0. -1.
<mgrwt>
<rscale>  0 0.91002802E+02</rscale>
<asrwt>0</asrwt>
<pdfrwt beam="2">  1        1 0.61217959E-01 0.91002802E+02</pdfrwt>
<pdfrwt beam="1">  1       -1 0.80046800E-03 0.91002802E+02</pdfrwt>
<totfact> 0.13546169E+05</totfact>
</mgrwt>
</event>
<event>
 5   1  0.1388354E+00  0.9157471E+02  0.7818608E-02  0.1299083E+00
          1   -1    0    0  501    0  0.00000000000E+00  0.00000000000E+00  0.33284067971E+03  0.33284067974E+03  0.46700000000E-02 0. -1.
         -1   -1    0    0    0  501 -0.00000000000E+00 -0.00000000000E+00 -0.62987537638E+01  0.62987554950E+01  0.46700000000E-02 0.  1.
         23    2    1    2    0    0  0.00000000000E+00  0.00000000000E+00  0.32654192595E+03  0.33913943524E+03  0.91574707932E+02 0.  0.
        -13    1    3    3    0    0 -0.92485680381E+01  0.44843439077E+02  0.16318241479E+03  0.16948445861E+03  0.10570000000E+00 0.  1.
         13    1    3    3    0    0  0.92485680381E+01 -0.44843439077E+02  0.16335951115E+03  0.16965497663E+03  0.10570000000E+00 0. -1.
<mgrwt>
<rscale>  0 0.91574708E+02</rscale>
<asrwt>0</asrwt>
<pdfrwt beam="1">  1        1 0.51206275E-01 0.91574708E+02</pdfrwt>
<pdfrwt beam="2">  1       -1 0.96903887E-03 0.91574708E+02</pdfrwt>
<totfact> 0.12913242E+05</totfact>
</mgrwt>
</event>
<event>
 5   1  0.1388354E+00  0.1022255E+03  0.7818608E-02  0.1275684E+00
          1   -1    0    0  501    0  0.00000000000E+00  0.00000000000E+00  0.70195932711E+02  0.70195932866E+02  0.46700000000E-02 0. -1.
         -1   -1    0    0    0  501 -0.00000000000E+00 -0.00000000000E+00 -0.37217470908E+02  0.37217471201E+02  0.46700000000E-02 0.  1.
         23    2    1    2    0    0  0.00000000000E+00  0.00000000000E+00  0.32978461802E+02  0.10741340407E+03  0.10222553708E+03 0.  0.
        -13    1    3    3    0    0  0.70805721412E+01 -0.20440078837E+02 -0.32170472423E+02  0.38767019400E+02  0.10570000000E+00 0.  1.
         13    1    3    3    0    0 -0.70805721412E+01  0.20440078837E+02  0.65148934226E+02  0.68646384668E+02  0.10570000000E+00 0. -1.
<mgrwt>
<rscale>  0 0.10222554E+03</rscale>
<asrwt>0</asrwt>
<pdfrwt beam="1">  1        1 0.10799374E-01 0.10222554E+03</pdfrwt>
<pdfrwt beam="2">  1       -1 0.57257649E-02 0.10222554E+03</pdfrwt>
<totfact> 0.71803952E+04</totfact>
</mgrwt>
</event>
<event>
 5   1  0.1388354E+00  0.9044667E+02  0.7818608E-02  0.1301774E+00
         -1   -1    0    0    0  501 -0.00000000000E+00  0.00000000000E+00  0.86175879999E+01  0.86175892653E+01  0.46700000000E-02 0.  1.
          1   -1    0    0  501    0  0.00000000000E+00 -0.00000000000E+00 -0.23732279734E+03  0.23732279738E+03  0.46700000000E-02 0. -1.
         23    2    1    2    0    0  0.00000000000E+00  0.00000000000E+00 -0.22870520934E+03  0.24594038665E+03  0.90446674935E+02 0.  0.
        -13    1    3    3    0    0  0.21443674712E+02  0.37935081844E+02 -0.14723523596E+03  0.15354845326E+03  0.10570000000E+00 0. -1.
         13    1    3    3    0    0 -0.21443674712E+02 -0.37935081844E+02 -0.81469973381E+02  0.92391933386E+02  0.10570000000E+00 0.  1.
<mgrwt>
<rscale>  0 0.90446675E+02</rscale>
<asrwt>0</asrwt>
<pdfrwt beam="2">  1        1 0.36511195E-01 0.90446675E+02</pdfrwt>
<pdfrwt beam="1">  1       -1 0.13257831E-02 0.90446675E+02</pdfrwt>
<totfact> 0.12507951E+05</totfact>
</mgrwt>
</event>
<event>
 5   1  0.1388354E+00  0.9146892E+02  0.7818608E-02  0.1299333E+00
         -1   -1    0    0    0  501 -0.00000000000E+00  0.00000000000E+00  0.28181744260E+02  0.28181744646E+02  0.46700000000E-02 0.  1.
          1   -1    0    0  501    0  0.00000000000E+00 -0.00000000000E+00 -0.74219700451E+02  0.74219700598E+02  0.46700000000E-02 0. -1.
         23    2    1    2    0    0  0.00000000000E+00  0.00000000000E+00 -0.46037956192E+02  0.10240144524E+03  0.91468915911E+02 0.  0.
        -13    1    3    3    0    0  0.29192811578E+02 -0.10139412893E+02  0.14724044100E+02  0.34232098808E+02  0.10570000000E+00 0.  1.
         13    1    3    3    0    0 -0.29192811578E+02  0.10139412893E+02 -0.60762000291E+02  0.68169346436E+02  0.10570000000E+00 0. -1.
<mgrwt>
<rscale>  0 0.91468916E+02</rscale>
<asrwt>0</asrwt>
<pdfrwt beam="2">  1        1 0.11418415E-01 0.91468916E+02</pdfrwt>
<pdfrwt beam="1">  1       -1 0.43356530E-02 0.91468916E+02</pdfrwt>
<totfact> 0.98693079E+04</totfact>
</mgrwt>
</event>
<event>
 5   1  0.1388354E+00  0.9132739E+02  0.7818608E-02  0.1299669E+00
          1   -1    0    0  501    0  0.00000000000E+00  0.00000000000E+00  0.28651344776E+03  0.28651344779E+03  0.46700000000E-02 0. -1.
         -1   -1    0    0    0  501 -0.00000000000E+00 -0.00000000000E+00 -0.72777485420E+01  0.72777500403E+01  0.46700000000E-02 0.  1.
         23    2    1    2    0    0  0.00000000000E+00  0.00000000000E+00  0.27923569921E+03  0.29379119783E+03  0.91327390248E+02 0.  0.
        -13    1    3    3    0    0 -0.37378233922E+02 -0.23077859636E+02  0.99510701183E+02  0.10877550643E+03  0.10570000000E+00 0.  1.
         13    1    3    3    0    0  0.37378233922E+02  0.23077859636E+02  0.17972499803E+03  0.18501569141E+03  0.10570000000E+00 0. -1.
<mgrwt>
<rscale>  0 0.91327390E+02</rscale>
<asrwt>0</asrwt>
<pdfrwt beam="1">  1        1 0.44078991E-01 0.91327390E+02</pdfrwt>
<pdfrwt beam="2">  1       -1 0.11196538E-02 0.91327390E+02</pdfrwt>
<totfact> 0.12643870E+05</totfact>
</mgrwt>
</event>
<event>
 5   1  0.1388354E+00  0.9185963E+02  0.7818608E-02  0.1298410E+00
          1   -1    0    0  501    0  0.00000000000E+00  0.00000000000E+00  0.13680520223E+02  0.13680521020E+02  0.46700000000E-02 0. -1.
         -1   -1    0    0    0  501 -0.00000000000E+00 -0.00000000000E+00 -0.15420085592E+03  0.15420085599E+03  0.46700000000E-02 0.  1.
         23    2    1    2    0    0  0.00000000000E+00  0.00000000000E+00 -0.14052033569E+03  0.16788137701E+03  0.91859632061E+02 0.  0.
        -13    1    3    3    0    0  0.21900957651E+02 -0.16075900923E+02 -0.13794133770E+03  0.14059128834E+03  0.10570000000E+00 0.  1.
         13    1    3    3    0    0 -0.21900957651E+02  0.16075900923E+02 -0.25789979920E+01  0.27290088671E+02  0.10570000000E+00 0. -1.
<mgrwt>
<rscale>  0 0.91859632E+02</rscale>
<asrwt>0</asrwt>
<pdfrwt beam="1">  1        1 0.21046956E-02 0.91859632E+02</pdfrwt>
<pdfrwt beam="2">  1       -1 0.23723207E-01 0.91859632E+02</pdfrwt>
<totfact> 0.72874947E+04</totfact>
</mgrwt>
</event>
<event>
 5   1  0.1388354E+00  0.9023461E+02  0.7818608E-02  0.1302285E+00
          1   -1    0    0  501    0  0.00000000000E+00  0.00000000000E+00  0.84078444937E+02  0.84078445066E+02  0.46700000000E-02 0. -1.
         -1   -1    0    0    0  501 -0.00000000000E+00 -0.00000000000E+00 -0.24210380823E+02  0.24210381273E+02  0.46700000000E-02 0.  1.
         23    2    1    2    0    0  0.00000000000E+00  0.00000000000E+00  0.59868064114E+02  0.10828882634E+03  0.90234609820E+02 0.  0.
        -13    1    3    3    0    0  0.43748929552E+02  0.10496057246E+02  0.25877834229E+02  0.51901922233E+02  0.10570000000E+00 0.  1.
         13    1    3    3    0    0 -0.43748929552E+02 -0.10496057246E+02  0.33990229884E+02  0.56386904106E+02  0.10570000000E+00 0. -1.
<mgrwt>
<rscale>  0 0.90234610E+02</rscale>
<asrwt>0</asrwt>
<pdfrwt beam="1">  1        1 0.12935146E-01 0.90234610E+02</pdfrwt>
<pdfrwt beam="2">  1       -1 0.37246740E-02 0.90234610E+02</pdfrwt>
<totfact> 0.10447006E+05</totfact>
</mgrwt>
</event>
<event>
 5   1  0.1388354E+00  0.9121994E+02  0.7818608E-02  0.1299924E+00
         -1   -1    0    0    0  501 -0.00000000000E+00  0.00000000000E+00  0.13992382548E+03  0.13992382556E+03  0.46700000000E-02 0.  1.
          1   -1    0    0  501    0  0.00000000000E+00 -0.00000000000E+00 -0.14867155994E+02  0.14867156728E+02  0.46700000000E-02 0. -1.
         23    2    1    2    0    0  0.00000000000E+00  0.00000000000E+00  0.12505666949E+03  0.15479098229E+03  0.91219940881E+02 0.  0.
        -13    1    3    3    0    0 -0.39600231317E+02  0.10200535743E+02  0.96805221946E+02  0.10508801748E+03  0.10570000000E+00 0.  1.
         13    1    3    3    0    0  0.39600231317E+02 -0.10200535743E+02  0.28251447542E+02  0.49702964806E+02  0.10570000000E+00 0. -1.
<mgrwt>
<rscale>  0 0.91219941E+02</rscale>
<asrwt>0</asrwt>
<pdfrwt beam="2">  1        1 0.22872547E-02 0.91219941E+02</pdfrwt>
<pdfrwt beam="1">  1       -1 0.21526743E-01 0.91219941E+02</pdfrwt>
<totfact> 0.75896217E+04</totfact>
</mgrwt>
</event>
<event>
 5   1  0.1388354E+00  0.9109238E+02  0.7818608E-02  0.1300228E+00
          1   -1    0    0  501    0  0.00000000000E+00  0.00000000000E+00  0.19787333875E+03  0.19787333881E+03  0.46700000000E-02 0. -1.
         -1   -1    0    0    0  501 -0.00000000000E+00 -0.00000000000E+00 -0.10483754587E+02  0.10483755627E+02  0.46700000000E-02 0.  1.
         23    2    1    2    0    0  0.00000000000E+00  0.00000000000E+00  0.18738958417E+03  0.20835709443E+03  0.91092384683E+02 0.  0.
        -13    1    3    3    0    0  0.43063739189E+02 -0.19953533460E+01  0.12730957970E+03  0.13441059231E+03  0.10570000000E+00 0. -1.
         13    1    3    3    0    0 -0.43063739189E+02  0.19953533460E+01  0.60080004462E+02  0.73946502125E+02  0.10570000000E+00 0.  1.
<mgrwt>
<rscale>  0 0.91092385E+02</rscale>
<asrwt>0</asrwt>
<pdfrwt beam="1">  1        1 0.30442050E-01 0.91092385E+02</pdfrwt>
<pdfrwt beam="2">  1       -1 0.16128855E-02 0.91092385E+02</pdfrwt>
<totfact> 0.11845523E+05</totfact>
</mgrwt>
</event>
<event>
 5   1  0.1388354E+00  0.9045064E+02  0.7818608E-02  0.1301764E+00
          1   -1    0    0  501    0  0.00000000000E+00  0.00000000000E+00  0.15127088393E+03  0.15127088400E+03  0.46700000000E-02 0. -1.
         -1   -1    0    0    0  501 -0.00000000000E+00 -0.00000000000E+00 -0.13520973751E+02  0.13520974558E+02  0.46700000000E-02 0.  1.
         23    2    1    2    0    0  0.00000000000E+00  0.00000000000E+00  0.13774991018E+03  0.16479185856E+03  0.90450643410E+02 0.  0.
        -13    1    3    3    0    0 -0.22878814223E+02 -0.19363773542E+02  0.71741028612E+01  0.30820038780E+02  0.10570000000E+00 0.  1.
         13    1    3    3    0    0  0.22878814223E+02  0.19363773542E+02  0.13057580732E+03  0.13397181978E+03  0.10570000000E+00 0. -1.
<mgrwt>
<rscale>  0 0.90450643E+02</rscale>
<asrwt>0</asrwt>
<pdfrwt beam="1">  1        1 0.23272443E-01 0.90450643E+02</pdfrwt>
<pdfrwt beam="2">  1       -1 0.20801499E-02 0.90450643E+02</pdfrwt>
<totfact> 0.11475312E+05</totfact>
</mgrwt>
</event>
<event>
 5   1  0.1388354E+00  0.9099022E+02  0.7818608E-02  0.1300471E+00
          1   -1    0    0  501    0  0.00000000000E+00  0.00000000000E+00  0.10175452721E+03  0.10175452732E+03  0.46700000000E-02 0. -1.
         -1   -1    0    0    0  501 -0.00000000000E+00 -0.00000000000E+00 -0.20341158214E+02  0.20341158750E+02  0.46700000000E-02 0.  1.
         23    2    1    2    0    0  0.00000000000E+00  0.00000000000E+00  0.81413368997E+02  0.12209568607E+03  0.90990218733E+02 0.  0.
        -13    1    3    3    0    0 -0.44348825950E+01 -0.28825981204E+02 -0.61467062988E+01  0.29806015279E+02  0.10570000000E+00 0.  1.
         13    1    3    3    0    0  0.44348825950E+01  0.28825981204E+02  0.87560075296E+02  0.92289670789E+02  0.10570000000E+00 0. -1.
<mgrwt>
<rscale>  0 0.90990219E+02</rscale>
<asrwt>0</asrwt>
<pdfrwt beam="1">  1        1 0.15654543E-01 0.90990219E+02</pdfrwt>
<pdfrwt beam="2">  1       -1 0.31294090E-02 0.90990219E+02</pdfrwt>
<totfact> 0.10534155E+05</totfact>
</mgrwt>
</event>
<event>
 5   1  0.1388354E+00  0.9223998E+02  0.7818608E-02  0.1297516E+00
         -1   -1    0    0    0  501 -0.00000000000E+00  0.00000000000E+00  0.13080055324E+03  0.13080055332E+03  0.46700000000E-02 0.  1.
          1   -1    0    0  501    0  0.00000000000E+00 -0.00000000000E+00 -0.16261806021E+02  0.16261806692E+02  0.46700000000E-02 0. -1.
         23    2    1    2    0    0  0.00000000000E+00  0.00000000000E+00  0.11453874722E+03  0.14706236002E+03  0.92239975709E+02 0.  0.
        -13    1    3    3    0    0  0.12834999543E+02 -0.44296068288E+02  0.56625234129E+02  0.73029495354E+02  0.10570000000E+00 0. -1.
         13    1    3    3    0    0 -0.12834999543E+02  0.44296068288E+02  0.57913513091E+02  0.74032864662E+02  0.10570000000E+00 0.  1.
<mgrwt>
<rscale>  0 0.92239976E+02</rscale>
<asrwt>0</asrwt>
<pdfrwt beam="2">  1        1 0.25018163E-02 0.92239976E+02</pdfrwt>
<pdfrwt beam="1">  1       -1 0.20123163E-01 0.92239976E+02</pdfrwt>
<totfact> 0.74839571E+04</totfact>
</mgrwt>
</event>
<event>
 5   1  0.1388354E+00  0.1141451E+03  0.7818608E-02  0.1253081E+00
          1   -1    0    0  501    0  0.00000000000E+00  0.00000000000E+00  0.17740870657E+02  0.17740871272E+02  0.46700000000E-02 0. -1.
         -1   -1    0    0    0  501 -0.00000000000E+00 -0.00000000000E+00 -0.18360292655E+03  0.18360292661E+03  0.46700000000E-02 0.  1.
         23    2    1    2    0    0  0.00000000000E+00  0.00000000000E+00 -0.16586205590E+03  0.20134379788E+03  0.11414509784E+03 0.  0.
        -13    1    3    3    0    0  0.43600011095E+02  0.19688511061E+02 -0.13783048785E+03  0.14589672028E+03  0.10570000000E+00 0. -1.
         13    1    3    3    0    0 -0.43600011095E+02 -0.19688511061E+02 -0.28031568050E+02  0.55447077607E+02  0.10570000000E+00 0.  1.
<mgrwt>
<rscale>  0 0.11414510E+03</rscale>
<asrwt>0</asrwt>
<pdfrwt beam="1">  1        1 0.27293649E-02 0.11414510E+03</pdfrwt>
<pdfrwt beam="2">  1       -1 0.28246603E-01 0.11414510E+03</pdfrwt>
<totfact> 0.39476359E+04</totfact>
</mgrwt>
</event>
<event>
 5   1  0.1388354E+00  0.9329403E+02  0.7818608E-02  0.1295065E+00
          1   -1    0    0  501    0  0.00000000000E+00  0.00000000000E+00  0.90939616889E+01  0.90939628880E+01  0.46700000000E-02 0. -1.
         -1   -1    0    0    0  501 -0.00000000000E+00 -0.00000000000E+00 -0.23927349240E+03  0.23927349245E+03  0.46700000000E-02 0.  1.
         23    2    1    2    0    0  0.00000000000E+00  0.00000000000E+00 -0.23017953071E+03  0.24836745533E+03  0.93294032555E+02 0.  0.
        -13    1    3    3    0    0 -0.85361716738E+01 -0.35624949746E+02 -0.19196837822E+03  0.19543252718E+03  0.10570000000E+00 0.  1.
         13    1    3    3    0    0  0.85361716738E+01  0.35624949746E+02 -0.38211152487E+02  0.52934928149E+02  0.10570000000E+00 0. -1.
<mgrwt>
<rscale>  0 0.93294033E+02</rscale>
<asrwt>0</asrwt>
<pdfrwt beam="1">  1        1 0.13990713E-02 0.93294033E+02</pdfrwt>
<pdfrwt beam="2">  1       -1 0.36811302E-01 0.93294033E+02</pdfrwt>
<totfact> 0.61890615E+04</totfact>
</mgrwt>
</event>
<event>
 5   1  0.1388354E+00  0.9139007E+02  0.7818608E-02  0.1299520E+00
         -1   -1    0    0    0  501 -0.00000000000E+00  0.00000000000E+00  0.54356840367E+02  0.54356840567E+02  0.46700000000E-02 0.  1.
          1   -1    0    0  501    0  0.00000000000E+00 -0.00000000000E+00 -0.38413493344E+02  0.38413493628E+02  0.46700000000E-02 0. -1.
         23    2    1    2    0    0  0.00000000000E+00  0.00000000000E+00  0.15943347022E+02  0.92770334196E+02  0.91390068347E+02 0.  0.
        -13    1    3    3    0    0 -0.29631992599E+02 -0.32564408589E+02  0.20384573181E+02  0.48518426277E+02  0.10570000000E+00 0.  1.
         13    1    3    3    0    0  0.29631992599E+02  0.32564408589E+02 -0.44412261584E+01  0.44251907919E+02  0.10570000000E+00 0. -1.
<mgrwt>
<rscale>  0 0.91390068E+02</rscale>
<asrwt>0</asrwt>
<pdfrwt beam="2">  1        1 0.59097682E-02 0.91390068E+02</pdfrwt>
<pdfrwt beam="1">  1       -1 0.83625909E-02 0.91390068E+02</pdfrwt>
<totfact> 0.89511700E+04</totfact>
</mgrwt>
</event>
<event>
 5   1  0.1388354E+00  0.9154996E+02  0.7818608E-02  0.1299141E+00
         -1   -1    0    0    0  501 -0.00000000000E+00  0.00000000000E+00  0.14166105060E+03  0.14166105068E+03  0.46700000000E-02 0.  1.
          1   -1    0    0  501    0  0.00000000000E+00 -0.00000000000E+00 -0.14791283636E+02  0.14791284374E+02  0.46700000000E-02 0. -1.
         23    2    1    2    0    0  0.00000000000E+00  0.00000000000E+00  0.12686976696E+03  0.15645233505E+03  0.91549961078E+02 0.  0.
        -13    1    3    3    0    0 -0.33487547497E+02  0.31137829211E+02  0.59867589751E+02  0.75333390475E+02  0.10570000000E+00 0. -1.
         13    1    3    3    0    0  0.33487547497E+02 -0.31137829211E+02  0.67002177212E+02  0.81118944575E+02  0.10570000000E+00 0.  1.
<mgrwt>
<rscale>  0 0.91549961E+02</rscale>
<asrwt>0</asrwt>
<pdfrwt beam="2">  1        1 0.22755823E-02 0.91549961E+02</pdfrwt>
<pdfrwt beam="1">  1       -1 0.21794007E-01 0.91549961E+02</pdfrwt>
<totfact> 0.74979577E+04</totfact>
</mgrwt>
</event>
<event>
 5   1  0.1388354E+00  0.1028886E+03  0.7818608E-02  0.1274336E+00
          1   -1    0    0  501    0  0.00000000000E+00  0.00000000000E+00  0.21808913580E+03  0.21808913585E+03  0.46700000000E-02 0. -1.
         -1   -1    0    0    0  501 -0.00000000000E+00 -0.00000000000E+00 -0.12135026094E+02  0.12135026993E+02  0.46700000000E-02 0.  1.
         23    2    1    2    0    0  0.00000000000E+00  0.00000000000E+00  0.20595410971E+03  0.23022416285E+03  0.10288862839E+03 0.  0.
        -13    1    3    3    0    0 -0.29094350768E+02  0.28926723709E+02  0.17242469206E+03  0.17723860244E+03  0.10570000000E+00 0. -1.
         13    1    3    3    0    0  0.29094350768E+02 -0.28926723709E+02  0.33529417652E+02  0.52985560408E+02  0.10570000000E+00 0.  1.
<mgrwt>
<rscale>  0 0.10288863E+03</rscale>
<asrwt>0</asrwt>
<pdfrwt beam="1">  1        1 0.33552172E-01 0.10288863E+03</pdfrwt>
<pdfrwt beam="2">  1       -1 0.18669273E-02 0.10288863E+03</pdfrwt>
<totfact> 0.86928576E+04</totfact>
</mgrwt>
</event>
<event>
 5   1  0.1388354E+00  0.9162656E+02  0.7818608E-02  0.1298960E+00
          1   -1    0    0  501    0  0.00000000000E+00  0.00000000000E+00  0.76780930913E+02  0.76780931055E+02  0.46700000000E-02 0. -1.
         -1   -1    0    0    0  501 -0.00000000000E+00 -0.00000000000E+00 -0.27335648368E+02  0.27335648767E+02  0.46700000000E-02 0.  1.
         23    2    1    2    0    0  0.00000000000E+00  0.00000000000E+00  0.49445282545E+02  0.10411657982E+03  0.91626558529E+02 0.  0.
        -13    1    3    3    0    0  0.21730207210E+02 -0.13513228368E+02 -0.18457847050E+02  0.31551743795E+02  0.10570000000E+00 0.  1.
         13    1    3    3    0    0 -0.21730207210E+02  0.13513228368E+02  0.67903129595E+02  0.72564836027E+02  0.10570000000E+00 0. -1.
<mgrwt>
<rscale>  0 0.91626559E+02</rscale>
<asrwt>0</asrwt>
<pdfrwt beam="1">  1        1 0.11812451E-01 0.91626559E+02</pdfrwt>
<pdfrwt beam="2">  1       -1 0.42054845E-02 0.91626559E+02</pdfrwt>
<totfact> 0.98749512E+04</totfact>
</mgrwt>
</event>
<event>
 5   1  0.1388354E+00  0.8963195E+02  0.7818608E-02  0.1303745E+00
         -1   -1    0    0    0  501 -0.00000000000E+00  0.00000000000E+00  0.59848348238E+02  0.59848348420E+02  0.46700000000E-02 0.  1.
          1   -1    0    0  501    0  0.00000000000E+00 -0.00000000000E+00 -0.33559345882E+02  0.33559346207E+02  0.46700000000E-02 0. -1.
         23    2    1    2    0    0  0.00000000000E+00  0.00000000000E+00  0.26289002356E+02  0.93407694627E+02  0.89631946150E+02 0.  0.
        -13    1    3    3    0    0 -0.15330245706E+02  0.40897764294E+02  0.26807815798E+01  0.43758899895E+02  0.10570000000E+00 0.  1.
         13    1    3    3    0    0  0.15330245706E+02 -0.40897764294E+02  0.23608220776E+02  0.49648794732E+02  0.10570000000E+00 0. -1.
<mgrwt>
<rscale>  0 0.89631946E+02</rscale>
<asrwt>0</asrwt>
<pdfrwt beam="2">  1        1 0.51629764E-02 0.89631946E+02</pdfrwt>
<pdfrwt beam="1">  1       -1 0.92074382E-02 0.89631946E+02</pdfrwt>
<totfact> 0.92639633E+04</totfact>
</mgrwt>
</event>
<event>
 5   1  0.1388354E+00  0.8982705E+02  0.7818608E-02  0.1303271E+00
         -1   -1    0    0    0  501 -0.00000000000E+00  0.00000000000E+00  0.52537483628E+01  0.52537504383E+01  0.46700000000E-02 0.  1.
          1   -1    0    0  501    0  0.00000000000E+00 -0.00000000000E+00 -0.38395902769E+03  0.38395902772E+03  0.46700000000E-02 0. -1.
         23    2    1    2    0    0  0.00000000000E+00  0.00000000000E+00 -0.37870527933E+03  0.38921277816E+03  0.89827045427E+02 0.  0.
        -13    1    3    3    0    0 -0.32750518758E+02 -0.30723468150E+02 -0.18576553207E+03  0.19111612191E+03  0.10570000000E+00 0.  1.
         13    1    3    3    0    0  0.32750518758E+02  0.30723468150E+02 -0.19293974725E+03  0.19809665625E+03  0.10570000000E+00 0. -1.
<mgrwt>
<rscale>  0 0.89827045E+02</rscale>
<asrwt>0</asrwt>
<pdfrwt beam="2">  1        1 0.59070598E-01 0.89827045E+02</pdfrwt>
<pdfrwt beam="1">  1       -1 0.80826944E-03 0.89827045E+02</pdfrwt>
<totfact> 0.13938251E+05</totfact>
</mgrwt>
</event>
<event>
 5   1  0.1388354E+00  0.9274980E+02  0.7818608E-02  0.1296326E+00
          1   -1    0    0  501    0  0.00000000000E+00  0.00000000000E+00  0.81518409247E+02  0.81518409381E+02  0.46700000000E-02 0. -1.
         -1   -1    0    0    0  501 -0.00000000000E+00 -0.00000000000E+00 -0.26382152961E+02  0.26382153374E+02  0.46700000000E-02 0.  1.
         23    2    1    2    0    0  0.00000000000E+00  0.00000000000E+00  0.55136256286E+02  0.10790056276E+03  0.92749796149E+02 0.  0.
        -13    1    3    3    0    0  0.18544615356E+02 -0.50366255453E+01 -0.21532305934E+02  0.28860383346E+02  0.10570000000E+00 0.  1.
         13    1    3    3    0    0 -0.18544615356E+02  0.50366255453E+01  0.76668562220E+02  0.79040179409E+02  0.10570000000E+00 0. -1.
<mgrwt>
<rscale>  0 0.92749796E+02</rscale>
<asrwt>0</asrwt>
<pdfrwt beam="1">  1        1 0.12541294E-01 0.92749796E+02</pdfrwt>
<pdfrwt beam="2">  1       -1 0.40587928E-02 0.92749796E+02</pdfrwt>
<totfact> 0.96403181E+04</totfact>
</mgrwt>
</event>
<event>
 5   1  0.1388354E+00  0.9211078E+02  0.7818608E-02  0.1297819E+00
          1   -1    0    0  501    0  0.00000000000E+00  0.00000000000E+00  0.36962111344E+02  0.36962111639E+02  0.46700000000E-02 0.  1.
         -1   -1    0    0    0  501 -0.00000000000E+00 -0.00000000000E+00 -0.57385768129E+02  0.57385768319E+02  0.46700000000E-02 0. -1.
         23    2    1    2    0    0  0.00000000000E+00  0.00000000000E+00 -0.20423656785E+02  0.94347879959E+02  0.92110784907E+02 0.  0.
        -13    1    3    3    0    0 -0.21640313150E+02  0.31260171176E+02 -0.36835145128E+02  0.52937137666E+02  0.10570000000E+00 0. -1.
         13    1    3    3    0    0  0.21640313150E+02 -0.31260171176E+02  0.16411488343E+02  0.41410742293E+02  0.10570000000E+00 0.  1.
<mgrwt>
<rscale>  0 0.92110785E+02</rscale>
<asrwt>0</asrwt>
<pdfrwt beam="1">  1        1 0.56864787E-02 0.92110785E+02</pdfrwt>
<pdfrwt beam="2">  1       -1 0.88285798E-02 0.92110785E+02</pdfrwt>
<totfact> 0.87018958E+04</totfact>
</mgrwt>
</event>
<event>
 5   1  0.1388354E+00  0.9106684E+02  0.7818608E-02  0.1300289E+00
          1   -1    0    0  501    0  0.00000000000E+00  0.00000000000E+00  0.11908657598E+03  0.11908657607E+03  0.46700000000E-02 0. -1.
         -1   -1    0    0    0  501 -0.00000000000E+00 -0.00000000000E+00 -0.17409956601E+02  0.17409957227E+02  0.46700000000E-02 0.  1.
         23    2    1    2    0    0  0.00000000000E+00  0.00000000000E+00  0.10167661938E+03  0.13649653330E+03  0.91066836303E+02 0.  0.
        -13    1    3    3    0    0  0.31244482122E+02  0.31464940046E+02  0.35332457743E+02  0.56697917579E+02  0.10570000000E+00 0.  1.
         13    1    3    3    0    0 -0.31244482122E+02 -0.31464940046E+02  0.66344161638E+02  0.79798615721E+02  0.10570000000E+00 0. -1.
<mgrwt>
<rscale>  0 0.91066836E+02</rscale>
<asrwt>0</asrwt>
<pdfrwt beam="1">  1        1 0.18321011E-01 0.91066836E+02</pdfrwt>
<pdfrwt beam="2">  1       -1 0.26784550E-02 0.91066836E+02</pdfrwt>
<totfact> 0.10794919E+05</totfact>
</mgrwt>
</event>
<event>
 5   1  0.1388354E+00  0.9277005E+02  0.7818608E-02  0.1296279E+00
          1   -1    0    0  501    0  0.00000000000E+00  0.00000000000E+00  0.38473533100E+02  0.38473533384E+02  0.46700000000E-02 0. -1.
         -1   -1    0    0    0  501 -0.00000000000E+00 -0.00000000000E+00 -0.55923396475E+02  0.55923396670E+02  0.46700000000E-02 0.  1.
         23    2    1    2    0    0  0.00000000000E+00  0.00000000000E+00 -0.17449863375E+02  0.94396930053E+02  0.92770052666E+02 0.  0.
        -13    1    3    3    0    0 -0.40349882806E+02  0.44390649439E+01 -0.31562706395E+02  0.51420170629E+02  0.10570000000E+00 0.  1.
         13    1    3    3    0    0  0.40349882806E+02 -0.44390649439E+01  0.14112843020E+02  0.42976759425E+02  0.10570000000E+00 0. -1.
<mgrwt>
<rscale>  0 0.92770053E+02</rscale>
<asrwt>0</asrwt>
<pdfrwt beam="1">  1        1 0.59190051E-02 0.92770053E+02</pdfrwt>
<pdfrwt beam="2">  1       -1 0.86035996E-02 0.92770053E+02</pdfrwt>
<totfact> 0.85804875E+04</totfact>
</mgrwt>
</event>
<event>
 5   1  0.1388354E+00  0.9182362E+02  0.7818608E-02  0.1298495E+00
         -1   -1    0    0    0  501 -0.00000000000E+00  0.00000000000E+00  0.86751411935E+01  0.86751424505E+01  0.46700000000E-02 0.  1.
          1   -1    0    0  501    0  0.00000000000E+00 -0.00000000000E+00 -0.24298098579E+03  0.24298098583E+03  0.46700000000E-02 0. -1.
         23    2    1    2    0    0  0.00000000000E+00  0.00000000000E+00 -0.23430584460E+03  0.25165612829E+03  0.91823624910E+02 0.  0.
        -13    1    3    3    0    0  0.32944018739E+02 -0.29631686639E+02 -0.15010207781E+03  0.15650555952E+03  0.10570000000E+00 0. -1.
         13    1    3    3    0    0 -0.32944018739E+02  0.29631686639E+02 -0.84203766785E+02  0.95150568769E+02  0.10570000000E+00 0.  1.
<mgrwt>
<rscale>  0 0.91823625E+02</rscale>
<asrwt>0</asrwt>
<pdfrwt beam="2">  1        1 0.37381685E-01 0.91823625E+02</pdfrwt>
<pdfrwt beam="1">  1       -1 0.13346374E-02 0.91823625E+02</pdfrwt>
<totfact> 0.12068141E+05</totfact>
</mgrwt>
</event>
<event>
 5   1  0.1388354E+00  0.9132617E+02  0.7818608E-02  0.1299672E+00
         -1   -1    0    0    0  501 -0.00000000000E+00  0.00000000000E+00  0.86208654654E+02  0.86208654781E+02  0.46700000000E-02 0.  1.
          1   -1    0    0  501    0  0.00000000000E+00 -0.00000000000E+00 -0.24186867068E+02  0.24186867519E+02  0.46700000000E-02 0. -1.
         23    2    1    2    0    0  0.00000000000E+00  0.00000000000E+00  0.62021787586E+02  0.11039552230E+03  0.91326169351E+02 0.  0.
        -13    1    3    3    0    0  0.19859493280E+02  0.17779783783E+02 -0.13806042675E+02  0.30018963532E+02  0.10570000000E+00 0. -1.
         13    1    3    3    0    0 -0.19859493280E+02 -0.17779783783E+02  0.75827830261E+02  0.80376558767E+02  0.10570000000E+00 0.  1.
<mgrwt>
<rscale>  0 0.91326169E+02</rscale>
<asrwt>0</asrwt>
<pdfrwt beam="2">  1        1 0.37210565E-02 0.91326169E+02</pdfrwt>
<pdfrwt beam="1">  1       -1 0.13262870E-01 0.91326169E+02</pdfrwt>
<totfact> 0.83221505E+04</totfact>
</mgrwt>
</event>
<event>
 5   1  0.1388354E+00  0.9126567E+02  0.7818608E-02  0.1299815E+00
         -1   -1    0    0    0  501 -0.00000000000E+00  0.00000000000E+00  0.35713863834E+02  0.35713864139E+02  0.46700000000E-02 0.  1.
          1   -1    0    0  501    0  0.00000000000E+00 -0.00000000000E+00 -0.58306642659E+02  0.58306642846E+02  0.46700000000E-02 0. -1.
         23    2    1    2    0    0  0.00000000000E+00  0.00000000000E+00 -0.22592778825E+02  0.94020506986E+02  0.91265667580E+02 0.  0.
        -13    1    3    3    0    0  0.54067105139E+01 -0.22600401224E+02  0.29161602838E+02  0.37288348135E+02  0.10570000000E+00 0.  1.
         13    1    3    3    0    0 -0.54067105139E+01  0.22600401224E+02 -0.51754381663E+02  0.56732158851E+02  0.10570000000E+00 0. -1.
<mgrwt>
<rscale>  0 0.91265668E+02</rscale>
<asrwt>0</asrwt>
<pdfrwt beam="2">  1        1 0.89702528E-02 0.91265668E+02</pdfrwt>
<pdfrwt beam="1">  1       -1 0.54944406E-02 0.91265668E+02</pdfrwt>
<totfact> 0.95695752E+04</totfact>
</mgrwt>
</event>
<event>
 5   1  0.1388354E+00  0.9059316E+02  0.7818608E-02  0.1301422E+00
          1   -1    0    0  501    0  0.00000000000E+00  0.00000000000E+00  0.60348076257E+02  0.60348076437E+02  0.46700000000E-02 0. -1.
         -1   -1    0    0    0  501 -0.00000000000E+00 -0.00000000000E+00 -0.33999101196E+02  0.33999101517E+02  0.46700000000E-02 0.  1.
         23    2    1    2    0    0  0.00000000000E+00  0.00000000000E+00  0.26348975061E+02  0.94347177954E+02  0.90593164759E+02 0.  0.
        -13    1    3    3    0    0 -0.38026262404E+01  0.19035936213E+02 -0.29447472472E+02  0.35270265682E+02  0.10570000000E+00 0.  1.
         13    1    3    3    0    0  0.38026262404E+01 -0.19035936213E+02  0.55796447533E+02  0.59076912272E+02  0.10570000000E+00 0. -1.
<mgrwt>
<rscale>  0 0.90593165E+02</rscale>
<asrwt>0</asrwt>
<pdfrwt beam="1">  1        1 0.92843194E-02 0.90593165E+02</pdfrwt>
<pdfrwt beam="2">  1       -1 0.52306310E-02 0.90593165E+02</pdfrwt>
<totfact> 0.98187181E+04</totfact>
</mgrwt>
</event>
<event>
 5   1  0.1388354E+00  0.9214551E+02  0.7818608E-02  0.1297738E+00
         -1   -1    0    0    0  501 -0.00000000000E+00  0.00000000000E+00  0.19473186445E+02  0.19473187005E+02  0.46700000000E-02 0.  1.
          1   -1    0    0  501    0  0.00000000000E+00 -0.00000000000E+00 -0.10900622601E+03  0.10900622611E+03  0.46700000000E-02 0. -1.
         23    2    1    2    0    0  0.00000000000E+00  0.00000000000E+00 -0.89533039564E+02  0.12847941311E+03  0.92145506784E+02 0.  0.
        -13    1    3    3    0    0 -0.42903727517E+02 -0.15536127955E+02 -0.35883732739E+02  0.58049587031E+02  0.10570000000E+00 0.  1.
         13    1    3    3    0    0  0.42903727517E+02  0.15536127955E+02 -0.53649306825E+02  0.70429826083E+02  0.10570000000E+00 0. -1.
<mgrwt>
<rscale>  0 0.92145507E+02</rscale>
<asrwt>0</asrwt>
<pdfrwt beam="2">  1        1 0.16770188E-01 0.92145507E+02</pdfrwt>
<pdfrwt beam="1">  1       -1 0.29958750E-02 0.92145507E+02</pdfrwt>
<totfact> 0.10296916E+05</totfact>
</mgrwt>
</event>
<event>
 5   1  0.1388354E+00  0.8930196E+02  0.7818608E-02  0.1304551E+00
         -1   -1    0    0    0  501 -0.00000000000E+00  0.00000000000E+00  0.57515150750E+02  0.57515150939E+02  0.46700000000E-02 0.  1.
          1   -1    0    0  501    0  0.00000000000E+00 -0.00000000000E+00 -0.34664082864E+02  0.34664083178E+02  0.46700000000E-02 0. -1.
         23    2    1    2    0    0  0.00000000000E+00  0.00000000000E+00  0.22851067886E+02  0.92179234117E+02  0.89301959099E+02 0.  0.
        -13    1    3    3    0    0 -0.11993601402E+02  0.43000919306E+02  0.10517845702E+02  0.45864602761E+02  0.10570000000E+00 0. -1.
         13    1    3    3    0    0  0.11993601402E+02 -0.43000919306E+02  0.12333222185E+02  0.46314631356E+02  0.10570000000E+00 0.  1.
<mgrwt>
<rscale>  0 0.89301959E+02</rscale>
<asrwt>0</asrwt>
<pdfrwt beam="2">  1        1 0.53329359E-02 0.89301959E+02</pdfrwt>
<pdfrwt beam="1">  1       -1 0.88484847E-02 0.89301959E+02</pdfrwt>
<totfact> 0.94079743E+04</totfact>
</mgrwt>
</event>
<event>
 5   1  0.1388354E+00  0.7923735E+02  0.7818608E-02  0.1331230E+00
          1   -1    0    0  501    0  0.00000000000E+00  0.00000000000E+00  0.82162900525E+02  0.82162900657E+02  0.46700000000E-02 0. -1.
         -1   -1    0    0    0  501 -0.00000000000E+00 -0.00000000000E+00 -0.19103992620E+02  0.19103993190E+02  0.46700000000E-02 0.  1.
         23    2    1    2    0    0  0.00000000000E+00  0.00000000000E+00  0.63058907905E+02  0.10126689385E+03  0.79237351820E+02 0.  0.
        -13    1    3    3    0    0 -0.11419719333E+02  0.36525322471E+02  0.44632685942E+02  0.58792831180E+02  0.10570000000E+00 0. -1.
         13    1    3    3    0    0  0.11419719333E+02 -0.36525322471E+02  0.18426221963E+02  0.42474062668E+02  0.10570000000E+00 0.  1.
<mgrwt>
<rscale>  0 0.79237352E+02</rscale>
<asrwt>0</asrwt>
<pdfrwt beam="1">  1        1 0.12640446E-01 0.79237352E+02</pdfrwt>
<pdfrwt beam="2">  1       -1 0.29390759E-02 0.79237352E+02</pdfrwt>
<totfact> 0.14810074E+05</totfact>
</mgrwt>
</event>
<event>
 5   1  0.1388354E+00  0.9022667E+02  0.7818608E-02  0.1302304E+00
          1   -1    0    0  501    0  0.00000000000E+00  0.00000000000E+00  0.11624712685E+02  0.11624713623E+02  0.46700000000E-02 0. -1.
         -1   -1    0    0    0  501 -0.00000000000E+00 -0.00000000000E+00 -0.17507641771E+03  0.17507641777E+03  0.46700000000E-02 0.  1.
         23    2    1    2    0    0  0.00000000000E+00  0.00000000000E+00 -0.16345170503E+03  0.18670113140E+03  0.90226673376E+02 0.  0.
        -13    1    3    3    0    0  0.26402751226E+02  0.34022410492E+02 -0.53919914315E+02  0.69007231651E+02  0.10570000000E+00 0. -1.
         13    1    3    3    0    0 -0.26402751226E+02 -0.34022410492E+02 -0.10953179071E+03  0.11769389974E+03  0.10570000000E+00 0.  1.
<mgrwt>
<rscale>  0 0.90226673E+02</rscale>
<asrwt>0</asrwt>
<pdfrwt beam="1">  1        1 0.17884175E-02 0.90226673E+02</pdfrwt>
<pdfrwt beam="2">  1       -1 0.26934832E-01 0.90226673E+02</pdfrwt>
<totfact> 0.73978510E+04</totfact>
</mgrwt>
</event>
<event>
 5   1  0.1388354E+00  0.9439251E+02  0.7818608E-02  0.1292550E+00
          1   -1    0    0  501    0  0.00000000000E+00  0.00000000000E+00  0.31935325043E+03  0.31935325046E+03  0.46700000000E-02 0. -1.
         -1   -1    0    0    0  501 -0.00000000000E+00 -0.00000000000E+00 -0.69749908903E+01  0.69749924536E+01  0.46700000000E-02 0.  1.
         23    2    1    2    0    0  0.00000000000E+00  0.00000000000E+00  0.31237825954E+03  0.32632824291E+03  0.94392505490E+02 0.  0.
        -13    1    3    3    0    0 -0.39063407632E+02  0.25045157269E+02  0.18598186375E+03  0.19168326619E+03  0.10570000000E+00 0.  1.
         13    1    3    3    0    0  0.39063407632E+02 -0.25045157269E+02  0.12639639578E+03  0.13464497673E+03  0.10570000000E+00 0. -1.
<mgrwt>
<rscale>  0 0.94392505E+02</rscale>
<asrwt>0</asrwt>
<pdfrwt beam="1">  1        1 0.49131274E-01 0.94392505E+02</pdfrwt>
<pdfrwt beam="2">  1       -1 0.10730756E-02 0.94392505E+02</pdfrwt>
<totfact> 0.11818909E+05</totfact>
</mgrwt>
</event>
<event>
 5   1  0.1388354E+00  0.8800954E+02  0.7818608E-02  0.1307745E+00
          1   -1    0    0  501    0  0.00000000000E+00  0.00000000000E+00  0.25975566899E+03  0.25975566903E+03  0.46700000000E-02 0. -1.
         -1   -1    0    0    0  501 -0.00000000000E+00 -0.00000000000E+00 -0.74547724226E+01  0.74547738853E+01  0.46700000000E-02 0.  1.
         23    2    1    2    0    0  0.00000000000E+00  0.00000000000E+00  0.25230089657E+03  0.26721044292E+03  0.88009535820E+02 0.  0.
        -13    1    3    3    0    0 -0.13931289612E+02  0.41661521359E+02  0.11832374552E+03  0.12621522538E+03  0.10570000000E+00 0. -1.
         13    1    3    3    0    0  0.13931289612E+02 -0.41661521359E+02  0.13397715105E+03  0.14099521754E+03  0.10570000000E+00 0.  1.
<mgrwt>
<rscale>  0 0.88009536E+02</rscale>
<asrwt>0</asrwt>
<pdfrwt beam="1">  1        1 0.39962412E-01 0.88009536E+02</pdfrwt>
<pdfrwt beam="2">  1       -1 0.11468881E-02 0.88009536E+02</pdfrwt>
<totfact> 0.13690003E+05</totfact>
</mgrwt>
</event>
<event>
 5   1  0.1388354E+00  0.9199984E+02  0.7818608E-02  0.1298080E+00
          1   -1    0    0  501    0  0.00000000000E+00  0.00000000000E+00  0.15531031807E+02  0.15531032509E+02  0.46700000000E-02 0.  1.
         -1   -1    0    0    0  501 -0.00000000000E+00 -0.00000000000E+00 -0.13624287918E+03  0.13624287926E+03  0.46700000000E-02 0. -1.
         23    2    1    2    0    0  0.00000000000E+00  0.00000000000E+00 -0.12071184737E+03  0.15177391177E+03  0.91999838029E+02 0.  0.
        -13    1    3    3    0    0 -0.30127143719E+02 -0.10111927010E+02 -0.54897822875E+01  0.32249724628E+02  0.10570000000E+00 0.  1.
         13    1    3    3    0    0  0.30127143719E+02  0.10111927010E+02 -0.11522206508E+03  0.11952418714E+03  0.10570000000E+00 0. -1.
<mgrwt>
<rscale>  0 0.91999838E+02</rscale>
<asrwt>0</asrwt>
<pdfrwt beam="1">  1        1 0.23893897E-02 0.91999838E+02</pdfrwt>
<pdfrwt beam="2">  1       -1 0.20960442E-01 0.91999838E+02</pdfrwt>
<totfact> 0.74679672E+04</totfact>
</mgrwt>
</event>
<event>
 5   1  0.1388354E+00  0.9022583E+02  0.7818608E-02  0.1302306E+00
         -1   -1    0    0    0  501 -0.00000000000E+00  0.00000000000E+00  0.17954837201E+03  0.17954837207E+03  0.46700000000E-02 0.  1.
          1   -1    0    0  501    0  0.00000000000E+00 -0.00000000000E+00 -0.11334968732E+02  0.11334969694E+02  0.46700000000E-02 0. -1.
         23    2    1    2    0    0  0.00000000000E+00  0.00000000000E+00  0.16821340328E+03  0.19088334177E+03  0.90225833999E+02 0.  0.
        -13    1    3    3    0    0 -0.97672597938E+01 -0.44028315044E+02  0.86492962586E+02  0.97544531568E+02  0.10570000000E+00 0. -1.
         13    1    3    3    0    0  0.97672597938E+01  0.44028315044E+02  0.81720440696E+02  0.93338810200E+02  0.10570000000E+00 0.  1.
<mgrwt>
<rscale>  0 0.90225834E+02</rscale>
<asrwt>0</asrwt>
<pdfrwt beam="2">  1        1 0.17438414E-02 0.90225834E+02</pdfrwt>
<pdfrwt beam="1">  1       -1 0.27622826E-01 0.90225834E+02</pdfrwt>
<totfact> 0.73493080E+04</totfact>
</mgrwt>
</event>
<event>
 5   1  0.1388354E+00  0.8117074E+02  0.7818608E-02  0.1325762E+00
          1   -1    0    0  501    0  0.00000000000E+00  0.00000000000E+00  0.17019178909E+03  0.17019178915E+03  0.46700000000E-02 0. -1.
         -1   -1    0    0    0  501 -0.00000000000E+00 -0.00000000000E+00 -0.96783285476E+01  0.96783296743E+01  0.46700000000E-02 0.  1.
         23    2    1    2    0    0  0.00000000000E+00  0.00000000000E+00  0.16051346054E+03  0.17987011883E+03  0.81170737535E+02 0.  0.
        -13    1    3    3    0    0  0.10760136027E+02 -0.33605328259E+02  0.35823668125E+02  0.50283645304E+02  0.10570000000E+00 0.  1.
         13    1    3    3    0    0 -0.10760136027E+02  0.33605328259E+02  0.12468979242E+03  0.12958647352E+03  0.10570000000E+00 0. -1.
<mgrwt>
<rscale>  0 0.81170738E+02</rscale>
<asrwt>0</asrwt>
<pdfrwt beam="1">  1        1 0.26183349E-01 0.81170738E+02</pdfrwt>
<pdfrwt beam="2">  1       -1 0.14889739E-02 0.81170738E+02</pdfrwt>
<totfact> 0.15660193E+05</totfact>
</mgrwt>
</event>
<event>
 5   1  0.1388354E+00  0.9139471E+02  0.7818608E-02  0.1299509E+00
         -1   -1    0    0    0  501 -0.00000000000E+00  0.00000000000E+00  0.15769392746E+03  0.15769392753E+03  0.46700000000E-02 0.  1.
          1   -1    0    0  501    0  0.00000000000E+00 -0.00000000000E+00 -0.13242413468E+02  0.13242414291E+02  0.46700000000E-02 0. -1.
         23    2    1    2    0    0  0.00000000000E+00  0.00000000000E+00  0.14445151399E+03  0.17093634182E+03  0.91394710242E+02 0.  0.
        -13    1    3    3    0    0  0.34300514103E+02  0.27014744731E+02  0.97451738240E+02  0.10678564585E+03  0.10570000000E+00 0.  1.
         13    1    3    3    0    0 -0.34300514103E+02 -0.27014744731E+02  0.46999775755E+02  0.64150695975E+02  0.10570000000E+00 0. -1.
<mgrwt>
<rscale>  0 0.91394710E+02</rscale>
<asrwt>0</asrwt>
<pdfrwt beam="2">  1        1 0.20372946E-02 0.91394710E+02</pdfrwt>
<pdfrwt beam="1">  1       -1 0.24260603E-01 0.91394710E+02</pdfrwt>
<totfact> 0.73446385E+04</totfact>
</mgrwt>
</event>
<event>
 5   1  0.1388354E+00  0.7568910E+02  0.7818608E-02  0.1341750E+00
          1   -1    0    0  501    0  0.00000000000E+00  0.00000000000E+00  0.13477576145E+03  0.13477576153E+03  0.46700000000E-02 0. -1.
         -1   -1    0    0    0  501 -0.00000000000E+00 -0.00000000000E+00 -0.10626611812E+02  0.10626612838E+02  0.46700000000E-02 0.  1.
         23    2    1    2    0    0  0.00000000000E+00  0.00000000000E+00  0.12414914964E+03  0.14540237437E+03  0.75689095096E+02 0.  0.
        -13    1    3    3    0    0  0.27750450064E+02 -0.25711532536E+02  0.60126607164E+02  0.71037950742E+02  0.10570000000E+00 0. -1.
         13    1    3    3    0    0 -0.27750450064E+02  0.25711532536E+02  0.64022542473E+02  0.74364423627E+02  0.10570000000E+00 0.  1.
<mgrwt>
<rscale>  0 0.75689095E+02</rscale>
<asrwt>0</asrwt>
<pdfrwt beam="1">  1        1 0.20734732E-01 0.75689095E+02</pdfrwt>
<pdfrwt beam="2">  1       -1 0.16348635E-02 0.75689095E+02</pdfrwt>
<totfact> 0.18090775E+05</totfact>
</mgrwt>
</event>
<event>
 5   1  0.1388354E+00  0.9229137E+02  0.7818608E-02  0.1297396E+00
         -1   -1    0    0    0  501 -0.00000000000E+00  0.00000000000E+00  0.65834798283E+02  0.65834798449E+02  0.46700000000E-02 0.  1.
          1   -1    0    0  501    0  0.00000000000E+00 -0.00000000000E+00 -0.32344963814E+02  0.32344964151E+02  0.46700000000E-02 0. -1.
         23    2    1    2    0    0  0.00000000000E+00  0.00000000000E+00  0.33489834469E+02  0.98179762600E+02  0.92291368890E+02 0.  0.
        -13    1    3    3    0    0 -0.30711478065E+02  0.34235085296E+02  0.12739441220E+02  0.47723584162E+02  0.10570000000E+00 0.  1.
         13    1    3    3    0    0  0.30711478065E+02 -0.34235085296E+02  0.20750393249E+02  0.50456178439E+02  0.10570000000E+00 0. -1.
<mgrwt>
<rscale>  0 0.92291369E+02</rscale>
<asrwt>0</asrwt>
<pdfrwt beam="2">  1        1 0.49761484E-02 0.92291369E+02</pdfrwt>
<pdfrwt beam="1">  1       -1 0.10128430E-01 0.92291369E+02</pdfrwt>
<totfact> 0.84732095E+04</totfact>
</mgrwt>
</event>
<event>
 5   1  0.1388354E+00  0.9094508E+02  0.7818608E-02  0.1300579E+00
          1   -1    0    0  501    0  0.00000000000E+00  0.00000000000E+00  0.19677006577E+02  0.19677007131E+02  0.46700000000E-02 0. -1.
         -1   -1    0    0    0  501 -0.00000000000E+00 -0.00000000000E+00 -0.10508468028E+03  0.10508468038E+03  0.46700000000E-02 0.  1.
         23    2    1    2    0    0  0.00000000000E+00  0.00000000000E+00 -0.85407673702E+02  0.12476168751E+03  0.90945082023E+02 0.  0.
        -13    1    3    3    0    0 -0.90730240386E-01 -0.29906693277E+02  0.42867295566E+01  0.30212675445E+02  0.10570000000E+00 0. -1.
         13    1    3    3    0    0  0.90730240386E-01  0.29906693277E+02 -0.89694403258E+02  0.94549012069E+02  0.10570000000E+00 0.  1.
<mgrwt>
<rscale>  0 0.90945082E+02</rscale>
<asrwt>0</asrwt>
<pdfrwt beam="1">  1        1 0.30272319E-02 0.90945082E+02</pdfrwt>
<pdfrwt beam="2">  1       -1 0.16166874E-01 0.90945082E+02</pdfrwt>
<totfact> 0.81145368E+04</totfact>
</mgrwt>
</event>
<event>
 5   1  0.1388354E+00  0.9211221E+02  0.7818608E-02  0.1297816E+00
         -1   -1    0    0    0  501 -0.00000000000E+00  0.00000000000E+00  0.10584617263E+02  0.10584618293E+02  0.46700000000E-02 0.  1.
          1   -1    0    0  501    0  0.00000000000E+00 -0.00000000000E+00 -0.20040070406E+03  0.20040070411E+03  0.46700000000E-02 0. -1.
         23    2    1    2    0    0  0.00000000000E+00  0.00000000000E+00 -0.18981608680E+03  0.21098532240E+03  0.92112211265E+02 0.  0.
        -13    1    3    3    0    0  0.42220410241E+02 -0.77043462490E+00 -0.52797435406E+02  0.67607225712E+02  0.10570000000E+00 0.  1.
         13    1    3    3    0    0 -0.42220410241E+02  0.77043462490E+00 -0.13701865139E+03  0.14337809669E+03  0.10570000000E+00 0. -1.
<mgrwt>
<rscale>  0 0.92112211E+02</rscale>
<asrwt>0</asrwt>
<pdfrwt beam="2">  1        1 0.30830875E-01 0.92112211E+02</pdfrwt>
<pdfrwt beam="1">  1       -1 0.16284029E-02 0.92112211E+02</pdfrwt>
<totfact> 0.11524952E+05</totfact>
</mgrwt>
</event>
<event>
 5   1  0.1388354E+00  0.1049582E+03  0.7818608E-02  0.1270202E+00
         -1   -1    0    0    0  501 -0.00000000000E+00  0.00000000000E+00  0.13626648723E+03  0.13626648731E+03  0.46700000000E-02 0.  1.
          1   -1    0    0  501    0  0.00000000000E+00 -0.00000000000E+00 -0.20210789814E+02  0.20210790353E+02  0.46700000000E-02 0. -1.
         23    2    1    2    0    0  0.00000000000E+00  0.00000000000E+00  0.11605569741E+03  0.15647727766E+03  0.10495815129E+03 0.  0.
        -13    1    3    3    0    0  0.28742532751E+02 -0.21702968367E+01  0.12340819287E+03  0.12672977795E+03  0.10570000000E+00 0.  1.
         13    1    3    3    0    0 -0.28742532751E+02  0.21702968367E+01 -0.73524954602E+01  0.29747499715E+02  0.10570000000E+00 0. -1.
<mgrwt>
<rscale>  0 0.10495815E+03</rscale>
<asrwt>0</asrwt>
<pdfrwt beam="2">  1        1 0.31093524E-02 0.10495815E+03</pdfrwt>
<pdfrwt beam="1">  1       -1 0.20964074E-01 0.10495815E+03</pdfrwt>
<totfact> 0.53011160E+04</totfact>
</mgrwt>
</event>
<event>
 5   1  0.1388354E+00  0.8723899E+02  0.7818608E-02  0.1309679E+00
          1   -1    0    0  501    0  0.00000000000E+00  0.00000000000E+00  0.42651162944E+02  0.42651163199E+02  0.46700000000E-02 0. -1.
         -1   -1    0    0    0  501 -0.00000000000E+00 -0.00000000000E+00 -0.44609808677E+02  0.44609808921E+02  0.46700000000E-02 0.  1.
         23    2    1    2    0    0  0.00000000000E+00  0.00000000000E+00 -0.19586457332E+01  0.87260972121E+02  0.87238987628E+02 0.  0.
        -13    1    3    3    0    0  0.33041869814E+02  0.25007999197E+02 -0.14602001761E+02  0.43936258518E+02  0.10570000000E+00 0.  1.
         13    1    3    3    0    0 -0.33041869814E+02 -0.25007999197E+02  0.12643356028E+02  0.43324713603E+02  0.10570000000E+00 0. -1.
<mgrwt>
<rscale>  0 0.87238988E+02</rscale>
<asrwt>0</asrwt>
<pdfrwt beam="1">  1        1 0.65617174E-02 0.87238988E+02</pdfrwt>
<pdfrwt beam="2">  1       -1 0.68630475E-02 0.87238988E+02</pdfrwt>
<totfact> 0.10360977E+05</totfact>
</mgrwt>
</event>
<event>
 5   1  0.1388354E+00  0.9302279E+02  0.7818608E-02  0.1295692E+00
         -1   -1    0    0    0  501 -0.00000000000E+00  0.00000000000E+00  0.77013260557E+02  0.77013260698E+02  0.46700000000E-02 0.  1.
          1   -1    0    0  501    0  0.00000000000E+00 -0.00000000000E+00 -0.28090094638E+02  0.28090095026E+02  0.46700000000E-02 0. -1.
         23    2    1    2    0    0  0.00000000000E+00  0.00000000000E+00  0.48923165919E+02  0.10510335572E+03  0.93022788718E+02 0.  0.
        -13    1    3    3    0    0  0.58596304920E+01 -0.32245546627E+02 -0.12827239445E+02  0.35194598891E+02  0.10570000000E+00 0. -1.
         13    1    3    3    0    0 -0.58596304920E+01  0.32245546627E+02  0.61750405365E+02  0.69908756833E+02  0.10570000000E+00 0.  1.
<mgrwt>
<rscale>  0 0.93022789E+02</rscale>
<asrwt>0</asrwt>
<pdfrwt beam="2">  1        1 0.43215531E-02 0.93022789E+02</pdfrwt>
<pdfrwt beam="1">  1       -1 0.11848194E-01 0.93022789E+02</pdfrwt>
<totfact> 0.80932026E+04</totfact>
</mgrwt>
</event>
<event>
 5   1  0.1388354E+00  0.9188836E+02  0.7818608E-02  0.1298342E+00
          1   -1    0    0  501    0  0.00000000000E+00  0.00000000000E+00  0.22416978777E+02  0.22416979264E+02  0.46700000000E-02 0. -1.
         -1   -1    0    0    0  501 -0.00000000000E+00 -0.00000000000E+00 -0.94163784110E+02  0.94163784226E+02  0.46700000000E-02 0.  1.
         23    2    1    2    0    0  0.00000000000E+00  0.00000000000E+00 -0.71746805333E+02  0.11658076349E+03  0.91888358024E+02 0.  0.
        -13    1    3    3    0    0  0.23404466039E+02  0.18420899176E+02 -0.80256146779E+02  0.85604665908E+02  0.10570000000E+00 0.  1.
         13    1    3    3    0    0 -0.23404466039E+02 -0.18420899176E+02  0.85093414457E+01  0.30976097581E+02  0.10570000000E+00 0. -1.
<mgrwt>
<rscale>  0 0.91888358E+02</rscale>
<asrwt>0</asrwt>
<pdfrwt beam="1">  1        1 0.34487661E-02 0.91888358E+02</pdfrwt>
<pdfrwt beam="2">  1       -1 0.14486736E-01 0.91888358E+02</pdfrwt>
<totfact> 0.80642928E+04</totfact>
</mgrwt>
</event>
<event>
 5   1  0.1388354E+00  0.6307246E+02  0.7818608E-02  0.1385372E+00
         -1   -1    0    0    0  501 -0.00000000000E+00  0.00000000000E+00  0.33936104830E+03  0.33936104833E+03  0.46700000000E-02 0.  1.
          1   -1    0    0  501    0  0.00000000000E+00 -0.00000000000E+00 -0.29306049028E+01  0.29306086237E+01  0.46700000000E-02 0. -1.
         23    2    1    2    0    0  0.00000000000E+00  0.00000000000E+00  0.33643044340E+03  0.34229165696E+03  0.63072459736E+02 0.  0.
        -13    1    3    3    0    0 -0.30385451193E+01 -0.31297224889E+02  0.15517517570E+03  0.15832907304E+03  0.10570000000E+00 0. -1.
         13    1    3    3    0    0  0.30385451193E+01  0.31297224889E+02  0.18125526770E+03  0.18396258392E+03  0.10570000000E+00 0.  1.
<mgrwt>
<rscale>  0 0.63072460E+02</rscale>
<asrwt>0</asrwt>
<pdfrwt beam="2">  1        1 0.45086222E-03 0.63072460E+02</pdfrwt>
<pdfrwt beam="1">  1       -1 0.52209434E-01 0.63072460E+02</pdfrwt>
<totfact> 0.14891736E+05</totfact>
</mgrwt>
</event>
<event>
 5   1  0.1388354E+00  0.9108545E+02  0.7818608E-02  0.1300244E+00
          1   -1    0    0  501    0  0.00000000000E+00  0.00000000000E+00  0.12000658145E+02  0.12000659053E+02  0.46700000000E-02 0.  1.
         -1   -1    0    0    0  501 -0.00000000000E+00 -0.00000000000E+00 -0.17283549939E+03  0.17283549945E+03  0.46700000000E-02 0. -1.
         23    2    1    2    0    0  0.00000000000E+00  0.00000000000E+00 -0.16083484124E+03  0.18483615850E+03  0.91085450720E+02 0.  0.
        -13    1    3    3    0    0 -0.27709942920E+02  0.12100245760E+01 -0.15371908197E+03  0.15620138421E+03  0.10570000000E+00 0. -1.
         13    1    3    3    0    0  0.27709942920E+02 -0.12100245760E+01 -0.71157592717E+01  0.28634774289E+02  0.10570000000E+00 0.  1.
<mgrwt>
<rscale>  0 0.91085451E+02</rscale>
<asrwt>0</asrwt>
<pdfrwt beam="1">  1        1 0.18462553E-02 0.91085451E+02</pdfrwt>
<pdfrwt beam="2">  1       -1 0.26590075E-01 0.91085451E+02</pdfrwt>
<totfact> 0.72420698E+04</totfact>
</mgrwt>
</event>
<event>
 5   1  0.1388354E+00  0.9934382E+02  0.7818608E-02  0.1281682E+00
          1   -1    0    0  501    0  0.00000000000E+00  0.00000000000E+00  0.15228581214E+03  0.15228581221E+03  0.46700000000E-02 0. -1.
         -1   -1    0    0    0  501 -0.00000000000E+00 -0.00000000000E+00 -0.16201763691E+02  0.16201764364E+02  0.46700000000E-02 0.  1.
         23    2    1    2    0    0  0.00000000000E+00  0.00000000000E+00  0.13608404845E+03  0.16848757657E+03  0.99343823250E+02 0.  0.
        -13    1    3    3    0    0  0.46872722026E+02 -0.10089782331E+02  0.90052991537E+02  0.10202160671E+03  0.10570000000E+00 0.  1.
         13    1    3    3    0    0 -0.46872722026E+02  0.10089782331E+02  0.46031056908E+02  0.66465969866E+02  0.10570000000E+00 0. -1.
<mgrwt>
<rscale>  0 0.99343823E+02</rscale>
<asrwt>0</asrwt>
<pdfrwt beam="1">  1        1 0.23428587E-01 0.99343823E+02</pdfrwt>
<pdfrwt beam="2">  1       -1 0.24925791E-02 0.99343823E+02</pdfrwt>
<totfact> 0.89103572E+04</totfact>
</mgrwt>
</event>
<event>
 5   1  0.1388354E+00  0.8864146E+02  0.7818608E-02  0.1306175E+00
          1   -1    0    0  501    0  0.00000000000E+00  0.00000000000E+00  0.43575241375E+02  0.43575241625E+02  0.46700000000E-02 0. -1.
         -1   -1    0    0    0  501 -0.00000000000E+00 -0.00000000000E+00 -0.45078973132E+02  0.45078973373E+02  0.46700000000E-02 0.  1.
         23    2    1    2    0    0  0.00000000000E+00  0.00000000000E+00 -0.15037317570E+01  0.88654214998E+02  0.88641461110E+02 0.  0.
        -13    1    3    3    0    0 -0.41956471547E+02  0.42828989253E+01 -0.14378335603E+02  0.44558236445E+02  0.10570000000E+00 0. -1.
         13    1    3    3    0    0  0.41956471547E+02 -0.42828989253E+01  0.12874603846E+02  0.44095978553E+02  0.10570000000E+00 0.  1.
<mgrwt>
<rscale>  0 0.88641461E+02</rscale>
<asrwt>0</asrwt>
<pdfrwt beam="1">  1        1 0.67038833E-02 0.88641461E+02</pdfrwt>
<pdfrwt beam="2">  1       -1 0.69352267E-02 0.88641461E+02</pdfrwt>
<totfact> 0.99403183E+04</totfact>
</mgrwt>
</event>
<event>
 5   1  0.1388354E+00  0.9365009E+02  0.7818608E-02  0.1294246E+00
          1   -1    0    0  501    0  0.00000000000E+00  0.00000000000E+00  0.86549338812E+02  0.86549338938E+02  0.46700000000E-02 0. -1.
         -1   -1    0    0    0  501 -0.00000000000E+00 -0.00000000000E+00 -0.25333349092E+02  0.25333349523E+02  0.46700000000E-02 0.  1.
         23    2    1    2    0    0  0.00000000000E+00  0.00000000000E+00  0.61215989720E+02  0.11188268846E+03  0.93650085850E+02 0.  0.
        -13    1    3    3    0    0 -0.27618423099E+00 -0.28408526267E+02 -0.13860311173E+02  0.31610758307E+02  0.10570000000E+00 0.  1.
         13    1    3    3    0    0  0.27618423099E+00  0.28408526267E+02  0.75076300893E+02  0.80271930154E+02  0.10570000000E+00 0. -1.
<mgrwt>
<rscale>  0 0.93650086E+02</rscale>
<asrwt>0</asrwt>
<pdfrwt beam="1">  1        1 0.13315283E-01 0.93650086E+02</pdfrwt>
<pdfrwt beam="2">  1       -1 0.38974384E-02 0.93650086E+02</pdfrwt>
<totfact> 0.94787607E+04</totfact>
</mgrwt>
</event>
<event>
 5   1  0.1388354E+00  0.9190585E+02  0.7818608E-02  0.1298301E+00
          1   -1    0    0  501    0  0.00000000000E+00  0.00000000000E+00  0.19348417873E+03  0.19348417879E+03  0.46700000000E-02 0. -1.
         -1   -1    0    0    0  501 -0.00000000000E+00 -0.00000000000E+00 -0.10913921036E+02  0.10913922035E+02  0.46700000000E-02 0.  1.
         23    2    1    2    0    0  0.00000000000E+00  0.00000000000E+00  0.18257025770E+03  0.20439810082E+03  0.91905846522E+02 0.  0.
        -13    1    3    3    0    0  0.16866973764E+02  0.41206172033E+02  0.66004212329E+02  0.79617903987E+02  0.10570000000E+00 0.  1.
         13    1    3    3    0    0 -0.16866973764E+02 -0.41206172033E+02  0.11656604537E+03  0.12478019684E+03  0.10570000000E+00 0. -1.
<mgrwt>
<rscale>  0 0.91905847E+02</rscale>
<asrwt>0</asrwt>
<pdfrwt beam="1">  1        1 0.29766797E-01 0.91905847E+02</pdfrwt>
<pdfrwt beam="2">  1       -1 0.16790648E-02 0.91905847E+02</pdfrwt>
<totfact> 0.11515862E+05</totfact>
</mgrwt>
</event>
<event>
 5   1  0.1388354E+00  0.9036718E+02  0.7818608E-02  0.1301965E+00
         -1   -1    0    0    0  501 -0.00000000000E+00  0.00000000000E+00  0.34643216248E+02  0.34643216562E+02  0.46700000000E-02 0.  1.
          1   -1    0    0  501    0  0.00000000000E+00 -0.00000000000E+00 -0.58930930787E+02  0.58930930972E+02  0.46700000000E-02 0. -1.
         23    2    1    2    0    0  0.00000000000E+00  0.00000000000E+00 -0.24287714539E+02  0.93574147534E+02  0.90367184360E+02 0.  0.
        -13    1    3    3    0    0 -0.53020430923E+01 -0.21513046343E+02 -0.52919258206E+02  0.57370566369E+02  0.10570000000E+00 0. -1.
         13    1    3    3    0    0  0.53020430923E+01  0.21513046343E+02  0.28631543667E+02  0.36203581165E+02  0.10570000000E+00 0.  1.
<mgrwt>
<rscale>  0 0.90367184E+02</rscale>
<asrwt>0</asrwt>
<pdfrwt beam="2">  1        1 0.90662971E-02 0.90367184E+02</pdfrwt>
<pdfrwt beam="1">  1       -1 0.53297256E-02 0.90367184E+02</pdfrwt>
<totfact> 0.98515648E+04</totfact>
</mgrwt>
</event>
<event>
 5   1  0.1388354E+00  0.9547087E+02  0.7818608E-02  0.1290119E+00
         -1   -1    0    0    0  501 -0.00000000000E+00  0.00000000000E+00  0.17253743562E+02  0.17253744194E+02  0.46700000000E-02 0.  1.
          1   -1    0    0  501    0  0.00000000000E+00 -0.00000000000E+00 -0.13206824991E+03  0.13206825000E+03  0.46700000000E-02 0. -1.
         23    2    1    2    0    0  0.00000000000E+00  0.00000000000E+00 -0.11481450635E+03  0.14932199419E+03  0.95470870323E+02 0.  0.
        -13    1    3    3    0    0  0.17679579405E+02  0.44269518695E+02 -0.53480630976E+02  0.71641795591E+02  0.10570000000E+00 0.  1.
         13    1    3    3    0    0 -0.17679579405E+02 -0.44269518695E+02 -0.61333875375E+02  0.77680198599E+02  0.10570000000E+00 0. -1.
<mgrwt>
<rscale>  0 0.95470870E+02</rscale>
<asrwt>0</asrwt>
<pdfrwt beam="2">  1        1 0.20318192E-01 0.95470870E+02</pdfrwt>
<pdfrwt beam="1">  1       -1 0.26544222E-02 0.95470870E+02</pdfrwt>
<totfact> 0.96703337E+04</totfact>
</mgrwt>
</event>
<event>
 5   1  0.1388354E+00  0.8977321E+02  0.7818608E-02  0.1303402E+00
         -1   -1    0    0    0  501 -0.00000000000E+00  0.00000000000E+00  0.34213346953E+03  0.34213346956E+03  0.46700000000E-02 0.  1.
          1   -1    0    0  501    0  0.00000000000E+00 -0.00000000000E+00 -0.58889505021E+01  0.58889523538E+01  0.46700000000E-02 0. -1.
         23    2    1    2    0    0  0.00000000000E+00  0.00000000000E+00  0.33624451903E+03  0.34802242192E+03  0.89773211928E+02 0.  0.
        -13    1    3    3    0    0  0.37074642809E+02 -0.23855577205E+02  0.20082882459E+03  0.20561090842E+03  0.10570000000E+00 0.  1.
         13    1    3    3    0    0 -0.37074642809E+02  0.23855577205E+02  0.13541569444E+03  0.14241151350E+03  0.10570000000E+00 0. -1.
<mgrwt>
<rscale>  0 0.89773212E+02</rscale>
<asrwt>0</asrwt>
<pdfrwt beam="2">  1        1 0.90599232E-03 0.89773212E+02</pdfrwt>
<pdfrwt beam="1">  1       -1 0.52635931E-01 0.89773212E+02</pdfrwt>
<totfact> 0.59737610E+04</totfact>
</mgrwt>
</event>
<event>
 5   1  0.1388354E+00  0.8809407E+02  0.7818608E-02  0.1307534E+00
         -1   -1    0    0    0  501 -0.00000000000E+00  0.00000000000E+00  0.35376328142E+02  0.35376328450E+02  0.46700000000E-02 0.  1.
          1   -1    0    0  501    0  0.00000000000E+00 -0.00000000000E+00 -0.54842924957E+02  0.54842925156E+02  0.46700000000E-02 0. -1.
         23    2    1    2    0    0  0.00000000000E+00  0.00000000000E+00 -0.19466596816E+02  0.90219253606E+02  0.88094070911E+02 0.  0.
        -13    1    3    3    0    0 -0.27674266273E+02  0.47508128287E+01  0.25022020390E+02  0.37610476110E+02  0.10570000000E+00 0.  1.
         13    1    3    3    0    0  0.27674266273E+02 -0.47508128287E+01 -0.44488617206E+02  0.52608777496E+02  0.10570000000E+00 0. -1.
<mgrwt>
<rscale>  0 0.88094071E+02</rscale>
<asrwt>0</asrwt>
<pdfrwt beam="2">  1        1 0.84373731E-02 0.88094071E+02</pdfrwt>
<pdfrwt beam="1">  1       -1 0.54425121E-02 0.88094071E+02</pdfrwt>
<totfact> 0.10459299E+05</totfact>
</mgrwt>
</event>
<event>
 5   1  0.1388354E+00  0.8974021E+02  0.7818608E-02  0.1303482E+00
         -1   -1    0    0    0  501 -0.00000000000E+00  0.00000000000E+00  0.17618029033E+02  0.17618029652E+02  0.46700000000E-02 0.  1.
          1   -1    0    0  501    0  0.00000000000E+00 -0.00000000000E+00 -0.11427646411E+03  0.11427646420E+03  0.46700000000E-02 0. -1.
         23    2    1    2    0    0  0.00000000000E+00  0.00000000000E+00 -0.96658435076E+02  0.13189449386E+03  0.89740205250E+02 0.  0.
        -13    1    3    3    0    0 -0.23319860604E+02 -0.27594183369E+01  0.78655863526E+01  0.24765074385E+02  0.10570000000E+00 0.  1.
         13    1    3    3    0    0  0.23319860604E+02  0.27594183369E+01 -0.10452402143E+03  0.10712941947E+03  0.10570000000E+00 0. -1.
<mgrwt>
<rscale>  0 0.89740205E+02</rscale>
<asrwt>0</asrwt>
<pdfrwt beam="2">  1        1 0.17580994E-01 0.89740205E+02</pdfrwt>
<pdfrwt beam="1">  1       -1 0.27104661E-02 0.89740205E+02</pdfrwt>
<totfact> 0.11153348E+05</totfact>
</mgrwt>
</event>
<event>
 5   1  0.1388354E+00  0.9269189E+02  0.7818608E-02  0.1296461E+00
          1   -1    0    0  501    0  0.00000000000E+00  0.00000000000E+00  0.18223009962E+03  0.18223009968E+03  0.46700000000E-02 0. -1.
         -1   -1    0    0    0  501 -0.00000000000E+00 -0.00000000000E+00 -0.11787002575E+02  0.11787003500E+02  0.46700000000E-02 0.  1.
         23    2    1    2    0    0  0.00000000000E+00  0.00000000000E+00  0.17044309704E+03  0.19401710318E+03  0.92691892827E+02 0.  0.
        -13    1    3    3    0    0 -0.32259111166E+02  0.23363205955E+02  0.35624910938E+02  0.53438142722E+02  0.10570000000E+00 0.  1.
         13    1    3    3    0    0  0.32259111166E+02 -0.23363205955E+02  0.13481818610E+03  0.14057896045E+03  0.10570000000E+00 0. -1.
<mgrwt>
<rscale>  0 0.92691893E+02</rscale>
<asrwt>0</asrwt>
<pdfrwt beam="1">  1        1 0.28035397E-01 0.92691893E+02</pdfrwt>
<pdfrwt beam="2">  1       -1 0.18133853E-02 0.92691893E+02</pdfrwt>
<totfact> 0.11125482E+05</totfact>
</mgrwt>
</event>
<event>
 5   1  0.1388354E+00  0.9098859E+02  0.7818608E-02  0.1300475E+00
         -1   -1    0    0    0  501 -0.00000000000E+00  0.00000000000E+00  0.99554239005E+01  0.99554249958E+01  0.46700000000E-02 0.  1.
          1   -1    0    0  501    0  0.00000000000E+00 -0.00000000000E+00 -0.20789981840E+03  0.20789981845E+03  0.46700000000E-02 0. -1.
         23    2    1    2    0    0  0.00000000000E+00  0.00000000000E+00 -0.19794439450E+03  0.21785524345E+03  0.90988591505E+02 0.  0.
        -13    1    3    3    0    0  0.50701354815E+01  0.41878818135E+02 -0.13975841043E+03  0.14598618476E+03  0.10570000000E+00 0. -1.
         13    1    3    3    0    0 -0.50701354815E+01 -0.41878818135E+02 -0.58185984071E+02  0.71869058690E+02  0.10570000000E+00 0.  1.
<mgrwt>
<rscale>  0 0.90988592E+02</rscale>
<asrwt>0</asrwt>
<pdfrwt beam="2">  1        1 0.31984584E-01 0.90988592E+02</pdfrwt>
<pdfrwt beam="1">  1       -1 0.15316039E-02 0.90988592E+02</pdfrwt>
<totfact> 0.11996336E+05</totfact>
</mgrwt>
</event>
<event>
 5   1  0.1388354E+00  0.9207791E+02  0.7818608E-02  0.1297896E+00
          1   -1    0    0  501    0  0.00000000000E+00  0.00000000000E+00  0.12045698430E+02  0.12045699335E+02  0.46700000000E-02 0. -1.
         -1   -1    0    0    0  501 -0.00000000000E+00 -0.00000000000E+00 -0.17596200388E+03  0.17596200394E+03  0.46700000000E-02 0.  1.
         23    2    1    2    0    0  0.00000000000E+00  0.00000000000E+00 -0.16391630545E+03  0.18800770328E+03  0.92077908856E+02 0.  0.
        -13    1    3    3    0    0 -0.25903158408E+02 -0.92824813120E+01 -0.15732463829E+03  0.15971283937E+03  0.10570000000E+00 0.  1.
         13    1    3    3    0    0  0.25903158408E+02  0.92824813120E+01 -0.65916671558E+01  0.28294863901E+02  0.10570000000E+00 0. -1.
<mgrwt>
<rscale>  0 0.92077909E+02</rscale>
<asrwt>0</asrwt>
<pdfrwt beam="1">  1        1 0.18531846E-02 0.92077909E+02</pdfrwt>
<pdfrwt beam="2">  1       -1 0.27071076E-01 0.92077909E+02</pdfrwt>
<totfact> 0.70079373E+04</totfact>
</mgrwt>
</event>
<event>
 5   1  0.1388354E+00  0.9142529E+02  0.7818608E-02  0.1299436E+00
          1   -1    0    0  501    0  0.00000000000E+00  0.00000000000E+00  0.99763654186E+02  0.99763654295E+02  0.46700000000E-02 0. -1.
         -1   -1    0    0    0  501 -0.00000000000E+00 -0.00000000000E+00 -0.20945965874E+02  0.20945966394E+02  0.46700000000E-02 0.  1.
         23    2    1    2    0    0  0.00000000000E+00  0.00000000000E+00  0.78817688312E+02  0.12070962069E+03  0.91425294837E+02 0.  0.
        -13    1    3    3    0    0  0.16024098641E+02 -0.42493279691E+02  0.32524930177E+02  0.55859939238E+02  0.10570000000E+00 0.  1.
         13    1    3    3    0    0 -0.16024098641E+02  0.42493279691E+02  0.46292758135E+02  0.64849681452E+02  0.10570000000E+00 0. -1.
<mgrwt>
<rscale>  0 0.91425295E+02</rscale>
<asrwt>0</asrwt>
<pdfrwt beam="1">  1        1 0.15348255E-01 0.91425295E+02</pdfrwt>
<pdfrwt beam="2">  1       -1 0.32224563E-02 0.91425295E+02</pdfrwt>
<totfact> 0.10363804E+05</totfact>
</mgrwt>
</event>
<event>
 5   1  0.1388354E+00  0.9236962E+02  0.7818608E-02  0.1297213E+00
          1   -1    0    0  501    0  0.00000000000E+00  0.00000000000E+00  0.35593625037E+02  0.35593625344E+02  0.46700000000E-02 0. -1.
         -1   -1    0    0    0  501 -0.00000000000E+00 -0.00000000000E+00 -0.59927490864E+02  0.59927491046E+02  0.46700000000E-02 0.  1.
         23    2    1    2    0    0  0.00000000000E+00  0.00000000000E+00 -0.24333865827E+02  0.95521116390E+02  0.92369619737E+02 0.  0.
        -13    1    3    3    0    0  0.24165173586E+01  0.32789758379E+02 -0.45708376713E+02  0.56305192344E+02  0.10570000000E+00 0.  1.
         13    1    3    3    0    0 -0.24165173586E+01 -0.32789758379E+02  0.21374510886E+02  0.39215924046E+02  0.10570000000E+00 0. -1.
<mgrwt>
<rscale>  0 0.92369620E+02</rscale>
<asrwt>0</asrwt>
<pdfrwt beam="1">  1        1 0.54759424E-02 0.92369620E+02</pdfrwt>
<pdfrwt beam="2">  1       -1 0.92196140E-02 0.92369620E+02</pdfrwt>
<totfact> 0.85819119E+04</totfact>
</mgrwt>
</event>
<event>
 5   1  0.1388354E+00  0.9137352E+02  0.7818608E-02  0.1299559E+00
         -1   -1    0    0    0  501 -0.00000000000E+00  0.00000000000E+00  0.36423820641E+02  0.36423820940E+02  0.46700000000E-02 0.  1.
          1   -1    0    0  501    0  0.00000000000E+00 -0.00000000000E+00 -0.57305350119E+02  0.57305350309E+02  0.46700000000E-02 0. -1.
         23    2    1    2    0    0  0.00000000000E+00  0.00000000000E+00 -0.20881529478E+02  0.93729171250E+02  0.91373515144E+02 0.  0.
        -13    1    3    3    0    0  0.11815626391E+02  0.26713917950E+01  0.34746273172E+02  0.36797554715E+02  0.10570000000E+00 0.  1.
         13    1    3    3    0    0 -0.11815626391E+02 -0.26713917950E+01 -0.55627802650E+02  0.56931616535E+02  0.10570000000E+00 0. -1.
<mgrwt>
<rscale>  0 0.91373515E+02</rscale>
<asrwt>0</asrwt>
<pdfrwt beam="2">  1        1 0.88162078E-02 0.91373515E+02</pdfrwt>
<pdfrwt beam="1">  1       -1 0.56036648E-02 0.91373515E+02</pdfrwt>
<totfact> 0.95132766E+04</totfact>
</mgrwt>
</event>
<event>
 5   1  0.1388354E+00  0.8915922E+02  0.7818608E-02  0.1304901E+00
         -1   -1    0    0    0  501 -0.00000000000E+00  0.00000000000E+00  0.15322683040E+03  0.15322683047E+03  0.46700000000E-02 0.  1.
          1   -1    0    0  501    0  0.00000000000E+00 -0.00000000000E+00 -0.12969932552E+02  0.12969933393E+02  0.46700000000E-02 0. -1.
         23    2    1    2    0    0  0.00000000000E+00  0.00000000000E+00  0.14025689785E+03  0.16619676387E+03  0.89159222323E+02 0.  0.
        -13    1    3    3    0    0  0.16697984197E+02  0.29194351644E+02  0.15584908644E+02  0.37067956433E+02  0.10570000000E+00 0. -1.
         13    1    3    3    0    0 -0.16697984197E+02 -0.29194351644E+02  0.12467198920E+03  0.12912880743E+03  0.10570000000E+00 0.  1.
<mgrwt>
<rscale>  0 0.89159222E+02</rscale>
<asrwt>0</asrwt>
<pdfrwt beam="2">  1        1 0.19953744E-02 0.89159222E+02</pdfrwt>
<pdfrwt beam="1">  1       -1 0.23573358E-01 0.89159222E+02</pdfrwt>
<totfact> 0.78859433E+04</totfact>
</mgrwt>
</event>
<event>
 5   1  0.1388354E+00  0.9059907E+02  0.7818608E-02  0.1301407E+00
         -1   -1    0    0    0  501 -0.00000000000E+00  0.00000000000E+00  0.34365549715E+02  0.34365550033E+02  0.46700000000E-02 0. -1.
          1   -1    0    0  501    0  0.00000000000E+00 -0.00000000000E+00 -0.59712349747E+02  0.59712349930E+02  0.46700000000E-02 0.  1.
         23    2    1    2    0    0  0.00000000000E+00  0.00000000000E+00 -0.25346800032E+02  0.94077899962E+02  0.90599067266E+02 0.  0.
        -13    1    3    3    0    0 -0.48509275240E+01 -0.42251925953E+02 -0.28869742061E+02  0.51402625650E+02  0.10570000000E+00 0.  1.
         13    1    3    3    0    0  0.48509275240E+01  0.42251925953E+02  0.35229420296E+01  0.42675274312E+02  0.10570000000E+00 0. -1.
<mgrwt>
<rscale>  0 0.90599067E+02</rscale>
<asrwt>0</asrwt>
<pdfrwt beam="2">  1        1 0.91865154E-02 0.90599067E+02</pdfrwt>
<pdfrwt beam="1">  1       -1 0.52870077E-02 0.90599067E+02</pdfrwt>
<totfact> 0.98012963E+04</totfact>
</mgrwt>
</event>
<event>
 5   1  0.1388354E+00  0.9050188E+02  0.7818608E-02  0.1301641E+00
         -1   -1    0    0    0  501 -0.00000000000E+00  0.00000000000E+00  0.54352577852E+02  0.54352578053E+02  0.46700000000E-02 0.  1.
          1   -1    0    0  501    0  0.00000000000E+00 -0.00000000000E+00 -0.37673422187E+02  0.37673422476E+02  0.46700000000E-02 0. -1.
         23    2    1    2    0    0  0.00000000000E+00  0.00000000000E+00  0.16679155665E+02  0.92026000529E+02  0.90501881415E+02 0.  0.
        -13    1    3    3    0    0 -0.56972871215E+01  0.36969063982E+02  0.34233416728E+02  0.50706101858E+02  0.10570000000E+00 0.  1.
         13    1    3    3    0    0  0.56972871215E+01 -0.36969063982E+02 -0.17554261063E+02  0.41319898671E+02  0.10570000000E+00 0. -1.
<mgrwt>
<rscale>  0 0.90501881E+02</rscale>
<asrwt>0</asrwt>
<pdfrwt beam="2">  1        1 0.57959112E-02 0.90501881E+02</pdfrwt>
<pdfrwt beam="1">  1       -1 0.83619351E-02 0.90501881E+02</pdfrwt>
<totfact> 0.91747474E+04</totfact>
</mgrwt>
</event>
<event>
 5   1  0.1388354E+00  0.9233161E+02  0.7818608E-02  0.1297302E+00
         -1   -1    0    0    0  501 -0.00000000000E+00  0.00000000000E+00  0.70040724467E+01  0.70040740035E+01  0.46700000000E-02 0.  1.
          1   -1    0    0  501    0  0.00000000000E+00 -0.00000000000E+00 -0.30429175326E+03  0.30429175329E+03  0.46700000000E-02 0. -1.
         23    2    1    2    0    0  0.00000000000E+00  0.00000000000E+00 -0.29728768081E+03  0.31129582730E+03  0.92331613928E+02 0.  0.
        -13    1    3    3    0    0 -0.31075008146E+02 -0.33771502831E+02 -0.13175266185E+03  0.13951682914E+03  0.10570000000E+00 0. -1.
         13    1    3    3    0    0  0.31075008146E+02  0.33771502831E+02 -0.16553501896E+03  0.17177899816E+03  0.10570000000E+00 0.  1.
<mgrwt>
<rscale>  0 0.92331614E+02</rscale>
<asrwt>0</asrwt>
<pdfrwt beam="2">  1        1 0.46814106E-01 0.92331614E+02</pdfrwt>
<pdfrwt beam="1">  1       -1 0.10775500E-02 0.92331614E+02</pdfrwt>
<totfact> 0.12422732E+05</totfact>
</mgrwt>
</event>
<event>
 5   1  0.1388354E+00  0.1087019E+03  0.7818608E-02  0.1262993E+00
          1   -1    0    0  501    0  0.00000000000E+00  0.00000000000E+00  0.16876474660E+03  0.16876474667E+03  0.46700000000E-02 0. -1.
         -1   -1    0    0    0  501 -0.00000000000E+00 -0.00000000000E+00 -0.17503819899E+02  0.17503820522E+02  0.46700000000E-02 0.  1.
         23    2    1    2    0    0  0.00000000000E+00  0.00000000000E+00  0.15126092671E+03  0.18626856719E+03  0.10870193731E+03 0.  0.
        -13    1    3    3    0    0  0.39563358792E+02 -0.18813825889E+02  0.13075309151E+03  0.13789706855E+03  0.10570000000E+00 0. -1.
         13    1    3    3    0    0 -0.39563358792E+02  0.18813825889E+02  0.20507835194E+02  0.48371498636E+02  0.10570000000E+00 0.  1.
<mgrwt>
<rscale>  0 0.10870194E+03</rscale>
<asrwt>0</asrwt>
<pdfrwt beam="1">  1        1 0.25963808E-01 0.10870194E+03</pdfrwt>
<pdfrwt beam="2">  1       -1 0.26928954E-02 0.10870194E+03</pdfrwt>
<totfact> 0.71059319E+04</totfact>
</mgrwt>
</event>
<event>
 5   1  0.1388354E+00  0.9071747E+02  0.7818608E-02  0.1301123E+00
         -1   -1    0    0    0  501 -0.00000000000E+00  0.00000000000E+00  0.89803853605E+01  0.89803865748E+01  0.46700000000E-02 0.  1.
          1   -1    0    0  501    0  0.00000000000E+00 -0.00000000000E+00 -0.22910093370E+03  0.22910093375E+03  0.46700000000E-02 0. -1.
         23    2    1    2    0    0  0.00000000000E+00  0.00000000000E+00 -0.22012054834E+03  0.23808132032E+03  0.90717469570E+02 0.  0.
        -13    1    3    3    0    0  0.19070214333E+02 -0.36847369015E+02 -0.61953602911E+02  0.74563139447E+02  0.10570000000E+00 0.  1.
         13    1    3    3    0    0 -0.19070214333E+02  0.36847369015E+02 -0.15816694543E+03  0.16351818088E+03  0.10570000000E+00 0. -1.
<mgrwt>
<rscale>  0 0.90717470E+02</rscale>
<asrwt>0</asrwt>
<pdfrwt beam="2">  1        1 0.35246293E-01 0.90717470E+02</pdfrwt>
<pdfrwt beam="1">  1       -1 0.13815980E-02 0.90717470E+02</pdfrwt>
<totfact> 0.12323513E+05</totfact>
</mgrwt>
</event>
<event>
 5   1  0.1388354E+00  0.9202822E+02  0.7818608E-02  0.1298013E+00
         -1   -1    0    0    0  501 -0.00000000000E+00  0.00000000000E+00  0.20859151638E+02  0.20859152160E+02  0.46700000000E-02 0.  1.
          1   -1    0    0  501    0  0.00000000000E+00 -0.00000000000E+00 -0.10150452314E+03  0.10150452325E+03  0.46700000000E-02 0. -1.
         23    2    1    2    0    0  0.00000000000E+00  0.00000000000E+00 -0.80645371502E+02  0.12236367541E+03  0.92028219121E+02 0.  0.
        -13    1    3    3    0    0  0.73678076277E+01  0.29172020323E+02 -0.86612138176E+02  0.91689503275E+02  0.10570000000E+00 0. -1.
         13    1    3    3    0    0 -0.73678076277E+01 -0.29172020323E+02  0.59667666741E+01  0.30674172132E+02  0.10570000000E+00 0.  1.
<mgrwt>
<rscale>  0 0.92028219E+02</rscale>
<asrwt>0</asrwt>
<pdfrwt beam="2">  1        1 0.15616080E-01 0.92028219E+02</pdfrwt>
<pdfrwt beam="1">  1       -1 0.32091004E-02 0.92028219E+02</pdfrwt>
<totfact> 0.10208924E+05</totfact>
</mgrwt>
</event>
<event>
 5   1  0.1388354E+00  0.9737296E+02  0.7818608E-02  0.1285919E+00
          1   -1    0    0  501    0  0.00000000000E+00  0.00000000000E+00  0.16356301441E+03  0.16356301448E+03  0.46700000000E-02 0. -1.
         -1   -1    0    0    0  501 -0.00000000000E+00 -0.00000000000E+00 -0.14492111708E+02  0.14492112460E+02  0.46700000000E-02 0.  1.
         23    2    1    2    0    0  0.00000000000E+00  0.00000000000E+00  0.14907090270E+03  0.17805512694E+03  0.97372964400E+02 0.  0.
        -13    1    3    3    0    0  0.18950398531E+02 -0.43672668254E+02  0.55892557007E+02  0.73419402464E+02  0.10570000000E+00 0.  1.
         13    1    3    3    0    0 -0.18950398531E+02  0.43672668254E+02  0.93178345697E+02  0.10463572447E+03  0.10570000000E+00 0. -1.
<mgrwt>
<rscale>  0 0.97372964E+02</rscale>
<asrwt>0</asrwt>
<pdfrwt beam="1">  1        1 0.25163542E-01 0.97372964E+02</pdfrwt>
<pdfrwt beam="2">  1       -1 0.22295556E-02 0.97372964E+02</pdfrwt>
<totfact> 0.95383612E+04</totfact>
</mgrwt>
</event>
<event>
 5   1  0.1388354E+00  0.8518255E+02  0.7818608E-02  0.1314956E+00
          1   -1    0    0  501    0  0.00000000000E+00  0.00000000000E+00  0.37394149371E+02  0.37394149663E+02  0.46700000000E-02 0. -1.
         -1   -1    0    0    0  501 -0.00000000000E+00 -0.00000000000E+00 -0.48510707612E+02  0.48510707837E+02  0.46700000000E-02 0.  1.
         23    2    1    2    0    0  0.00000000000E+00  0.00000000000E+00 -0.11116558241E+02  0.85904857499E+02  0.85182549121E+02 0.  0.
        -13    1    3    3    0    0 -0.14427760136E+02 -0.14429724889E+02  0.32143594057E+02  0.38073600227E+02  0.10570000000E+00 0. -1.
         13    1    3    3    0    0  0.14427760136E+02  0.14429724889E+02 -0.43260152297E+02  0.47831257272E+02  0.10570000000E+00 0.  1.
<mgrwt>
<rscale>  0 0.85182549E+02</rscale>
<asrwt>0</asrwt>
<pdfrwt beam="1">  1        1 0.57529461E-02 0.85182549E+02</pdfrwt>
<pdfrwt beam="2">  1       -1 0.74631858E-02 0.85182549E+02</pdfrwt>
<totfact> 0.10867361E+05</totfact>
</mgrwt>
</event>
<event>
 5   1  0.1388354E+00  0.8977376E+02  0.7818608E-02  0.1303401E+00
          1   -1    0    0  501    0  0.00000000000E+00  0.00000000000E+00  0.30369862333E+03  0.30369862337E+03  0.46700000000E-02 0. -1.
         -1   -1    0    0    0  501 -0.00000000000E+00 -0.00000000000E+00 -0.66343123575E+01  0.66343140012E+01  0.46700000000E-02 0.  1.
         23    2    1    2    0    0  0.00000000000E+00  0.00000000000E+00  0.29706431097E+03  0.31033293737E+03  0.89773755415E+02 0.  0.
        -13    1    3    3    0    0 -0.36903231280E+02  0.23529604246E+02  0.18298446953E+03  0.18814573611E+03  0.10570000000E+00 0.  1.
         13    1    3    3    0    0  0.36903231280E+02 -0.23529604246E+02  0.11407984144E+03  0.12218720126E+03  0.10570000000E+00 0. -1.
<mgrwt>
<rscale>  0 0.89773755E+02</rscale>
<asrwt>0</asrwt>
<pdfrwt beam="1">  1        1 0.46722870E-01 0.89773755E+02</pdfrwt>
<pdfrwt beam="2">  1       -1 0.10206635E-02 0.89773755E+02</pdfrwt>
<totfact> 0.13383072E+05</totfact>
</mgrwt>
</event>
<event>
 5   1  0.1388354E+00  0.9394740E+02  0.7818608E-02  0.1293565E+00
          1   -1    0    0  501    0  0.00000000000E+00  0.00000000000E+00  0.12163238941E+03  0.12163238950E+03  0.46700000000E-02 0. -1.
         -1   -1    0    0    0  501 -0.00000000000E+00 -0.00000000000E+00 -0.18140961740E+02  0.18140962341E+02  0.46700000000E-02 0.  1.
         23    2    1    2    0    0  0.00000000000E+00  0.00000000000E+00  0.10349142767E+03  0.13977335184E+03  0.93947401686E+02 0.  0.
        -13    1    3    3    0    0 -0.44971084649E+02 -0.57185835193E+01  0.70053109244E+02  0.83441895588E+02  0.10570000000E+00 0. -1.
         13    1    3    3    0    0  0.44971084649E+02  0.57185835193E+01  0.33438318427E+02  0.56331456254E+02  0.10570000000E+00 0.  1.
<mgrwt>
<rscale>  0 0.93947402E+02</rscale>
<asrwt>0</asrwt>
<pdfrwt beam="1">  1        1 0.18712676E-01 0.93947402E+02</pdfrwt>
<pdfrwt beam="2">  1       -1 0.27909172E-02 0.93947402E+02</pdfrwt>
<totfact> 0.99552575E+04</totfact>
</mgrwt>
</event>
<event>
 5   1  0.1388354E+00  0.9140929E+02  0.7818608E-02  0.1299474E+00
         -1   -1    0    0    0  501 -0.00000000000E+00  0.00000000000E+00  0.23341867310E+02  0.23341867778E+02  0.46700000000E-02 0.  1.
          1   -1    0    0  501    0  0.00000000000E+00 -0.00000000000E+00 -0.89492185239E+02  0.89492185361E+02  0.46700000000E-02 0. -1.
         23    2    1    2    0    0  0.00000000000E+00  0.00000000000E+00 -0.66150317928E+02  0.11283405314E+03  0.91409293759E+02 0.  0.
        -13    1    3    3    0    0  0.34778632916E+02  0.16504505396E+02 -0.26644283491E+01  0.38588370745E+02  0.10570000000E+00 0.  1.
         13    1    3    3    0    0 -0.34778632916E+02 -0.16504505396E+02 -0.63485889579E+02  0.74245682393E+02  0.10570000000E+00 0. -1.
<mgrwt>
<rscale>  0 0.91409294E+02</rscale>
<asrwt>0</asrwt>
<pdfrwt beam="2">  1        1 0.13768028E-01 0.91409294E+02</pdfrwt>
<pdfrwt beam="1">  1       -1 0.35910566E-02 0.91409294E+02</pdfrwt>
<totfact> 0.10185367E+05</totfact>
</mgrwt>
</event>
<event>
 5   1  0.1388354E+00  0.8993549E+02  0.7818608E-02  0.1303008E+00
         -1   -1    0    0    0  501 -0.00000000000E+00  0.00000000000E+00  0.11107593042E+03  0.11107593052E+03  0.46700000000E-02 0.  1.
          1   -1    0    0  501    0  0.00000000000E+00 -0.00000000000E+00 -0.18204647192E+02  0.18204647791E+02  0.46700000000E-02 0. -1.
         23    2    1    2    0    0  0.00000000000E+00  0.00000000000E+00  0.92871283232E+02  0.12928057831E+03  0.89935491771E+02 0.  0.
        -13    1    3    3    0    0 -0.59547485300E+01  0.34960307884E+02  0.86178938102E+02  0.93190679267E+02  0.10570000000E+00 0.  1.
         13    1    3    3    0    0  0.59547485300E+01 -0.34960307884E+02  0.66923451301E+01  0.36089899047E+02  0.10570000000E+00 0. -1.
<mgrwt>
<rscale>  0 0.89935492E+02</rscale>
<asrwt>0</asrwt>
<pdfrwt beam="2">  1        1 0.28007150E-02 0.89935492E+02</pdfrwt>
<pdfrwt beam="1">  1       -1 0.17088605E-01 0.89935492E+02</pdfrwt>
<totfact> 0.82624667E+04</totfact>
</mgrwt>
</event>
<event>
 5   1  0.1388354E+00  0.8385864E+02  0.7818608E-02  0.1318445E+00
          1   -1    0    0  501    0  0.00000000000E+00  0.00000000000E+00  0.42756540846E+02  0.42756541101E+02  0.46700000000E-02 0. -1.
         -1   -1    0    0    0  501 -0.00000000000E+00 -0.00000000000E+00 -0.41118100395E+02  0.41118100660E+02  0.46700000000E-02 0.  1.
         23    2    1    2    0    0  0.00000000000E+00  0.00000000000E+00  0.16384404512E+01  0.83874641762E+02  0.83858637263E+02 0.  0.
        -13    1    3    3    0    0  0.28240879166E+02  0.28005242694E+02 -0.12457939948E+02  0.41677959579E+02  0.10570000000E+00 0. -1.
         13    1    3    3    0    0 -0.28240879166E+02 -0.28005242694E+02  0.14096380399E+02  0.42196682183E+02  0.10570000000E+00 0.  1.
<mgrwt>
<rscale>  0 0.83858637E+02</rscale>
<asrwt>0</asrwt>
<pdfrwt beam="1">  1        1 0.65779294E-02 0.83858637E+02</pdfrwt>
<pdfrwt beam="2">  1       -1 0.63258616E-02 0.83858637E+02</pdfrwt>
<totfact> 0.11570169E+05</totfact>
</mgrwt>
</event>
<event>
 5   1  0.1388354E+00  0.9160266E+02  0.7818608E-02  0.1299016E+00
         -1   -1    0    0    0  501 -0.00000000000E+00  0.00000000000E+00  0.57291056254E+01  0.57291075288E+01  0.46700000000E-02 0.  1.
          1   -1    0    0  501    0  0.00000000000E+00 -0.00000000000E+00 -0.36615860311E+03  0.36615860314E+03  0.46700000000E-02 0. -1.
         23    2    1    2    0    0  0.00000000000E+00  0.00000000000E+00 -0.36042949748E+03  0.37188771067E+03  0.91602656563E+02 0.  0.
        -13    1    3    3    0    0  0.32019528590E+02 -0.29851823382E+02 -0.23488929695E+03  0.23893382884E+03  0.10570000000E+00 0. -1.
         13    1    3    3    0    0 -0.32019528590E+02  0.29851823382E+02 -0.12554020053E+03  0.13295388183E+03  0.10570000000E+00 0.  1.
<mgrwt>
<rscale>  0 0.91602657E+02</rscale>
<asrwt>0</asrwt>
<pdfrwt beam="2">  1        1 0.56332075E-01 0.91602657E+02</pdfrwt>
<pdfrwt beam="1">  1       -1 0.88140130E-03 0.91602657E+02</pdfrwt>
<totfact> 0.13124825E+05</totfact>
</mgrwt>
</event>
<event>
 5   1  0.1388354E+00  0.8749756E+02  0.7818608E-02  0.1309027E+00
         -1   -1    0    0    0  501 -0.00000000000E+00  0.00000000000E+00  0.28980988551E+02  0.28980988927E+02  0.46700000000E-02 0.  1.
          1   -1    0    0  501    0  0.00000000000E+00 -0.00000000000E+00 -0.66041772541E+02  0.66041772706E+02  0.46700000000E-02 0. -1.
         23    2    1    2    0    0  0.00000000000E+00  0.00000000000E+00 -0.37060783990E+02  0.95022761634E+02  0.87497562929E+02 0.  0.
        -13    1    3    3    0    0  0.29805450014E+02  0.18778893378E+02  0.96416035421E+01  0.36523737191E+02  0.10570000000E+00 0. -1.
         13    1    3    3    0    0 -0.29805450014E+02 -0.18778893378E+02 -0.46702387532E+02  0.58499024443E+02  0.10570000000E+00 0.  1.
<mgrwt>
<rscale>  0 0.87497563E+02</rscale>
<asrwt>0</asrwt>
<pdfrwt beam="2">  1        1 0.10160273E-01 0.87497563E+02</pdfrwt>
<pdfrwt beam="1">  1       -1 0.44586137E-02 0.87497563E+02</pdfrwt>
<totfact> 0.10953103E+05</totfact>
</mgrwt>
</event>
<event>
 5   1  0.1388354E+00  0.9260371E+02  0.7818608E-02  0.1296666E+00
          1   -1    0    0  501    0  0.00000000000E+00  0.00000000000E+00  0.11111163115E+03  0.11111163125E+03  0.46700000000E-02 0. -1.
         -1   -1    0    0    0  501 -0.00000000000E+00 -0.00000000000E+00 -0.19294664046E+02  0.19294664611E+02  0.46700000000E-02 0.  1.
         23    2    1    2    0    0  0.00000000000E+00  0.00000000000E+00  0.91816967106E+02  0.13040629586E+03  0.92603707008E+02 0.  0.
        -13    1    3    3    0    0  0.44577524977E+02 -0.12040505386E+02  0.50729646637E+02  0.68597651005E+02  0.10570000000E+00 0.  1.
         13    1    3    3    0    0 -0.44577524977E+02  0.12040505386E+02  0.41087320470E+02  0.61808644856E+02  0.10570000000E+00 0. -1.
<mgrwt>
<rscale>  0 0.92603707E+02</rscale>
<asrwt>0</asrwt>
<pdfrwt beam="1">  1        1 0.17094097E-01 0.92603707E+02</pdfrwt>
<pdfrwt beam="2">  1       -1 0.29684100E-02 0.92603707E+02</pdfrwt>
<totfact> 0.10191967E+05</totfact>
</mgrwt>
</event>
<event>
 5   1  0.1388354E+00  0.9212271E+02  0.7818608E-02  0.1297791E+00
          1   -1    0    0  501    0  0.00000000000E+00  0.00000000000E+00  0.21692692535E+03  0.21692692540E+03  0.46700000000E-02 0. -1.
         -1   -1    0    0    0  501 -0.00000000000E+00 -0.00000000000E+00 -0.97804748759E+01  0.97804759908E+01  0.46700000000E-02 0.  1.
         23    2    1    2    0    0  0.00000000000E+00  0.00000000000E+00  0.20714645047E+03  0.22670740139E+03  0.92122711105E+02 0.  0.
        -13    1    3    3    0    0  0.41131203726E+02  0.20200500749E+02  0.11506371959E+03  0.12385276294E+03  0.10570000000E+00 0. -1.
         13    1    3    3    0    0 -0.41131203726E+02 -0.20200500749E+02  0.92082730882E+02  0.10285463844E+03  0.10570000000E+00 0.  1.
<mgrwt>
<rscale>  0 0.92122711E+02</rscale>
<asrwt>0</asrwt>
<pdfrwt beam="1">  1        1 0.33373372E-01 0.92122711E+02</pdfrwt>
<pdfrwt beam="2">  1       -1 0.15046886E-02 0.92122711E+02</pdfrwt>
<totfact> 0.11700922E+05</totfact>
</mgrwt>
</event>
<event>
 5   1  0.1388354E+00  0.9358141E+02  0.7818608E-02  0.1294403E+00
          1   -1    0    0  501    0  0.00000000000E+00  0.00000000000E+00  0.10432867449E+02  0.10432868494E+02  0.46700000000E-02 0. -1.
         -1   -1    0    0    0  501 -0.00000000000E+00 -0.00000000000E+00 -0.20985313186E+03  0.20985313192E+03  0.46700000000E-02 0.  1.
         23    2    1    2    0    0  0.00000000000E+00  0.00000000000E+00 -0.19942026441E+03  0.22028600041E+03  0.93581409038E+02 0.  0.
        -13    1    3    3    0    0 -0.40789597314E+02  0.10278684981E+02 -0.14794695060E+03  0.15381077328E+03  0.10570000000E+00 0.  1.
         13    1    3    3    0    0  0.40789597314E+02 -0.10278684981E+02 -0.51473313819E+02  0.66475227130E+02  0.10570000000E+00 0. -1.
<mgrwt>
<rscale>  0 0.93581409E+02</rscale>
<asrwt>0</asrwt>
<pdfrwt beam="1">  1        1 0.16050568E-02 0.93581409E+02</pdfrwt>
<pdfrwt beam="2">  1       -1 0.32285094E-01 0.93581409E+02</pdfrwt>
<totfact> 0.63961132E+04</totfact>
</mgrwt>
</event>
<event>
 5   1  0.1388354E+00  0.9090745E+02  0.7818608E-02  0.1300669E+00
          1   -1    0    0  501    0  0.00000000000E+00  0.00000000000E+00  0.45792295757E+02  0.45792295995E+02  0.46700000000E-02 0. -1.
         -1   -1    0    0    0  501 -0.00000000000E+00 -0.00000000000E+00 -0.45117661386E+02  0.45117661627E+02  0.46700000000E-02 0.  1.
         23    2    1    2    0    0  0.00000000000E+00  0.00000000000E+00  0.67463437131E+00  0.90909957622E+02  0.90907454388E+02 0.  0.
        -13    1    3    3    0    0 -0.22940524304E+02 -0.23931452736E+02  0.31435569807E+02  0.45685756062E+02  0.10570000000E+00 0. -1.
         13    1    3    3    0    0  0.22940524304E+02  0.23931452736E+02 -0.30760935435E+02  0.45224201560E+02  0.10570000000E+00 0.  1.
<mgrwt>
<rscale>  0 0.90907454E+02</rscale>
<asrwt>0</asrwt>
<pdfrwt beam="1">  1        1 0.70449686E-02 0.90907454E+02</pdfrwt>
<pdfrwt beam="2">  1       -1 0.69411787E-02 0.90907454E+02</pdfrwt>
<totfact> 0.93305797E+04</totfact>
</mgrwt>
</event>
<event>
 5   1  0.1388354E+00  0.9285590E+02  0.7818608E-02  0.1296079E+00
         -1   -1    0    0    0  501 -0.00000000000E+00  0.00000000000E+00  0.42249962094E+02  0.42249962352E+02  0.46700000000E-02 0.  1.
          1   -1    0    0  501    0  0.00000000000E+00 -0.00000000000E+00 -0.51019083204E+02  0.51019083417E+02  0.46700000000E-02 0. -1.
         23    2    1    2    0    0  0.00000000000E+00  0.00000000000E+00 -0.87691211093E+01  0.93269045770E+02  0.92855895956E+02 0.  0.
        -13    1    3    3    0    0 -0.27011558083E+02  0.17216188431E+02  0.29373333900E+02  0.43460618162E+02  0.10570000000E+00 0. -1.
         13    1    3    3    0    0  0.27011558083E+02 -0.17216188431E+02 -0.38142455009E+02  0.49808427608E+02  0.10570000000E+00 0.  1.
<mgrwt>
<rscale>  0 0.92855896E+02</rscale>
<asrwt>0</asrwt>
<pdfrwt beam="2">  1        1 0.78490897E-02 0.92855896E+02</pdfrwt>
<pdfrwt beam="1">  1       -1 0.64999943E-02 0.92855896E+02</pdfrwt>
<totfact> 0.89364528E+04</totfact>
</mgrwt>
</event>
<event>
 5   1  0.1388354E+00  0.8628822E+02  0.7818608E-02  0.1312098E+00
          1   -1    0    0  501    0  0.00000000000E+00  0.00000000000E+00  0.16526914013E+03  0.16526914019E+03  0.46700000000E-02 0. -1.
         -1   -1    0    0    0  501 -0.00000000000E+00 -0.00000000000E+00 -0.11262925802E+02  0.11262926771E+02  0.46700000000E-02 0.  1.
         23    2    1    2    0    0  0.00000000000E+00  0.00000000000E+00  0.15400621433E+03  0.17653206696E+03  0.86288218291E+02 0.  0.
        -13    1    3    3    0    0  0.27326335993E+02  0.24241519676E+02  0.30036745675E+02  0.47292675736E+02  0.10570000000E+00 0.  1.
         13    1    3    3    0    0 -0.27326335993E+02 -0.24241519676E+02  0.12396946865E+03  0.12923939123E+03  0.10570000000E+00 0. -1.
<mgrwt>
<rscale>  0 0.86288218E+02</rscale>
<asrwt>0</asrwt>
<pdfrwt beam="1">  1        1 0.25426021E-01 0.86288218E+02</pdfrwt>
<pdfrwt beam="2">  1       -1 0.17327579E-02 0.86288218E+02</pdfrwt>
<totfact> 0.13235013E+05</totfact>
</mgrwt>
</event>
<event>
 5   1  0.1388354E+00  0.8980299E+02  0.7818608E-02  0.1303329E+00
         -1   -1    0    0    0  501 -0.00000000000E+00  0.00000000000E+00  0.17857569770E+03  0.17857569776E+03  0.46700000000E-02 0.  1.
          1   -1    0    0  501    0  0.00000000000E+00 -0.00000000000E+00 -0.11290138165E+02  0.11290139131E+02  0.46700000000E-02 0. -1.
         23    2    1    2    0    0  0.00000000000E+00  0.00000000000E+00  0.16728555953E+03  0.18986583689E+03  0.89802993212E+02 0.  0.
        -13    1    3    3    0    0  0.52076112571E+01  0.44061260033E+02  0.69053029514E+02  0.82078291333E+02  0.10570000000E+00 0. -1.
         13    1    3    3    0    0 -0.52076112571E+01 -0.44061260033E+02  0.98232530018E+02  0.10778754556E+03  0.10570000000E+00 0.  1.
<mgrwt>
<rscale>  0 0.89802993E+02</rscale>
<asrwt>0</asrwt>
<pdfrwt beam="2">  1        1 0.17369447E-02 0.89802993E+02</pdfrwt>
<pdfrwt beam="1">  1       -1 0.27473180E-01 0.89802993E+02</pdfrwt>
<totfact> 0.74502146E+04</totfact>
</mgrwt>
</event>
<event>
 5   1  0.1388354E+00  0.9278655E+02  0.7818608E-02  0.1296241E+00
         -1   -1    0    0    0  501 -0.00000000000E+00  0.00000000000E+00  0.22447087879E+02  0.22447088365E+02  0.46700000000E-02 0.  1.
          1   -1    0    0  501    0  0.00000000000E+00 -0.00000000000E+00 -0.95884858774E+02  0.95884858888E+02  0.46700000000E-02 0. -1.
         23    2    1    2    0    0  0.00000000000E+00  0.00000000000E+00 -0.73437770895E+02  0.11833194725E+03  0.92786548306E+02 0.  0.
        -13    1    3    3    0    0  0.13326755176E+02  0.44259301035E+02 -0.41794021932E+02  0.62315644692E+02  0.10570000000E+00 0. -1.
         13    1    3    3    0    0 -0.13326755176E+02 -0.44259301035E+02 -0.31643748963E+02  0.56016302561E+02  0.10570000000E+00 0.  1.
<mgrwt>
<rscale>  0 0.92786548E+02</rscale>
<asrwt>0</asrwt>
<pdfrwt beam="2">  1        1 0.14751517E-01 0.92786548E+02</pdfrwt>
<pdfrwt beam="1">  1       -1 0.34533982E-02 0.92786548E+02</pdfrwt>
<totfact> 0.98880170E+04</totfact>
</mgrwt>
</event>
<event>
 5   1  0.1388354E+00  0.9137230E+02  0.7818608E-02  0.1299562E+00
         -1   -1    0    0    0  501 -0.00000000000E+00  0.00000000000E+00  0.25756304990E+02  0.25756305413E+02  0.46700000000E-02 0.  1.
          1   -1    0    0  501    0  0.00000000000E+00 -0.00000000000E+00 -0.81037415736E+02  0.81037415870E+02  0.46700000000E-02 0. -1.
         23    2    1    2    0    0  0.00000000000E+00  0.00000000000E+00 -0.55281110746E+02  0.10679372128E+03  0.91372302698E+02 0.  0.
        -13    1    3    3    0    0 -0.13643116550E+02  0.37004538910E+02 -0.68911824586E+00  0.39445615543E+02  0.10570000000E+00 0.  1.
         13    1    3    3    0    0  0.13643116550E+02 -0.37004538910E+02 -0.54591992500E+02  0.67348105740E+02  0.10570000000E+00 0. -1.
<mgrwt>
<rscale>  0 0.91372303E+02</rscale>
<asrwt>0</asrwt>
<pdfrwt beam="2">  1        1 0.12467295E-01 0.91372303E+02</pdfrwt>
<pdfrwt beam="1">  1       -1 0.39625085E-02 0.91372303E+02</pdfrwt>
<totfact> 0.10035747E+05</totfact>
</mgrwt>
</event>
<event>
 5   1  0.1388354E+00  0.9147909E+02  0.7818608E-02  0.1299309E+00
         -1   -1    0    0    0  501 -0.00000000000E+00  0.00000000000E+00  0.15308864324E+03  0.15308864332E+03  0.46700000000E-02 0.  1.
          1   -1    0    0  501    0  0.00000000000E+00 -0.00000000000E+00 -0.13665977719E+02  0.13665978517E+02  0.46700000000E-02 0. -1.
         23    2    1    2    0    0  0.00000000000E+00  0.00000000000E+00  0.13942266553E+03  0.16675462183E+03  0.91479091821E+02 0.  0.
        -13    1    3    3    0    0 -0.26776825774E+02 -0.36132076532E+02  0.54507062377E+02  0.70665100117E+02  0.10570000000E+00 0. -1.
         13    1    3    3    0    0  0.26776825774E+02  0.36132076532E+02  0.84915603148E+02  0.96089521716E+02  0.10570000000E+00 0.  1.
<mgrwt>
<rscale>  0 0.91479092E+02</rscale>
<asrwt>0</asrwt>
<pdfrwt beam="2">  1        1 0.21024582E-02 0.91479092E+02</pdfrwt>
<pdfrwt beam="1">  1       -1 0.23552098E-01 0.91479092E+02</pdfrwt>
<totfact> 0.73792651E+04</totfact>
</mgrwt>
</event>
<event>
 5   1  0.1388354E+00  0.9184894E+02  0.7818608E-02  0.1298435E+00
         -1   -1    0    0    0  501 -0.00000000000E+00  0.00000000000E+00  0.30658323891E+02  0.30658324247E+02  0.46700000000E-02 0.  1.
          1   -1    0    0  501    0  0.00000000000E+00 -0.00000000000E+00 -0.68792315774E+02  0.68792315933E+02  0.46700000000E-02 0. -1.
         23    2    1    2    0    0  0.00000000000E+00  0.00000000000E+00 -0.38133991883E+02  0.99450640180E+02  0.91848943898E+02 0.  0.
        -13    1    3    3    0    0  0.45849330635E+02  0.20227421053E+01 -0.20876650921E+02  0.50419225812E+02  0.10570000000E+00 0.  1.
         13    1    3    3    0    0 -0.45849330635E+02 -0.20227421053E+01 -0.17257340962E+02  0.49031414368E+02  0.10570000000E+00 0. -1.
<mgrwt>
<rscale>  0 0.91848944E+02</rscale>
<asrwt>0</asrwt>
<pdfrwt beam="2">  1        1 0.10583433E-01 0.91848944E+02</pdfrwt>
<pdfrwt beam="1">  1       -1 0.47166653E-02 0.91848944E+02</pdfrwt>
<totfact> 0.96425372E+04</totfact>
</mgrwt>
</event>
<event>
 5   1  0.1388354E+00  0.9113338E+02  0.7818608E-02  0.1300130E+00
         -1   -1    0    0    0  501 -0.00000000000E+00  0.00000000000E+00  0.57253469305E+02  0.57253469495E+02  0.46700000000E-02 0. -1.
          1   -1    0    0  501    0  0.00000000000E+00 -0.00000000000E+00 -0.36265459380E+02  0.36265459681E+02  0.46700000000E-02 0.  1.
         23    2    1    2    0    0  0.00000000000E+00  0.00000000000E+00  0.20988009925E+02  0.93518929176E+02  0.91133383310E+02 0.  0.
        -13    1    3    3    0    0  0.20508831604E+02  0.40689800205E+02  0.10699756273E+02  0.46805640379E+02  0.10570000000E+00 0.  1.
         13    1    3    3    0    0 -0.20508831604E+02 -0.40689800205E+02  0.10288253652E+02  0.46713288797E+02  0.10570000000E+00 0. -1.
<mgrwt>
<rscale>  0 0.91133383E+02</rscale>
<asrwt>0</asrwt>
<pdfrwt beam="2">  1        1 0.55793015E-02 0.91133383E+02</pdfrwt>
<pdfrwt beam="1">  1       -1 0.88082261E-02 0.91133383E+02</pdfrwt>
<totfact> 0.89434955E+04</totfact>
</mgrwt>
</event>
<event>
 5   1  0.1388354E+00  0.9367817E+02  0.7818608E-02  0.1294181E+00
         -1   -1    0    0    0  501 -0.00000000000E+00  0.00000000000E+00  0.26275592218E+02  0.26275592633E+02  0.46700000000E-02 0.  1.
          1   -1    0    0  501    0  0.00000000000E+00 -0.00000000000E+00 -0.83495726211E+02  0.83495726342E+02  0.46700000000E-02 0. -1.
         23    2    1    2    0    0  0.00000000000E+00  0.00000000000E+00 -0.57220133993E+02  0.10977131897E+03  0.93678165733E+02 0.  0.
        -13    1    3    3    0    0  0.24781359598E+02 -0.38854351165E+02 -0.18798303666E+02  0.49771113923E+02  0.10570000000E+00 0.  1.
         13    1    3    3    0    0 -0.24781359598E+02  0.38854351165E+02 -0.38421830327E+02  0.60000205051E+02  0.10570000000E+00 0. -1.
<mgrwt>
<rscale>  0 0.93678166E+02</rscale>
<asrwt>0</asrwt>
<pdfrwt beam="2">  1        1 0.12845496E-01 0.93678166E+02</pdfrwt>
<pdfrwt beam="1">  1       -1 0.40423989E-02 0.93678166E+02</pdfrwt>
<totfact> 0.94158402E+04</totfact>
</mgrwt>
</event>
<event>
 5   1  0.1388354E+00  0.9142710E+02  0.7818608E-02  0.1299432E+00
         -1   -1    0    0    0  501 -0.00000000000E+00  0.00000000000E+00  0.13221107584E+03  0.13221107592E+03  0.46700000000E-02 0.  1.
          1   -1    0    0  501    0  0.00000000000E+00 -0.00000000000E+00 -0.15806002019E+02  0.15806002709E+02  0.46700000000E-02 0. -1.
         23    2    1    2    0    0  0.00000000000E+00  0.00000000000E+00  0.11640507382E+03  0.14801707863E+03  0.91427098583E+02 0.  0.
        -13    1    3    3    0    0 -0.43815158763E+02 -0.35873780402E+01  0.78493251112E+02  0.89965766051E+02  0.10570000000E+00 0.  1.
         13    1    3    3    0    0  0.43815158763E+02  0.35873780402E+01  0.37911822712E+02  0.58051312582E+02  0.10570000000E+00 0. -1.
<mgrwt>
<rscale>  0 0.91427099E+02</rscale>
<asrwt>0</asrwt>
<pdfrwt beam="2">  1        1 0.24316928E-02 0.91427099E+02</pdfrwt>
<pdfrwt beam="1">  1       -1 0.20340165E-01 0.91427099E+02</pdfrwt>
<totfact> 0.76399740E+04</totfact>
</mgrwt>
</event>
<event>
 5   1  0.1388354E+00  0.8894988E+02  0.7818608E-02  0.1305415E+00
          1   -1    0    0  501    0  0.00000000000E+00  0.00000000000E+00  0.40401557888E+02  0.40401558158E+02  0.46700000000E-02 0. -1.
         -1   -1    0    0    0  501 -0.00000000000E+00 -0.00000000000E+00 -0.48959012792E+02  0.48959013015E+02  0.46700000000E-02 0.  1.
         23    2    1    2    0    0  0.00000000000E+00  0.00000000000E+00 -0.85574549035E+01  0.89360571173E+02  0.88949882776E+02 0.  0.
        -13    1    3    3    0    0 -0.41999603448E+02  0.12234795537E+02  0.37803009284E+01  0.43908527181E+02  0.10570000000E+00 0.  1.
         13    1    3    3    0    0  0.41999603448E+02 -0.12234795537E+02 -0.12337755832E+02  0.45452043992E+02  0.10570000000E+00 0. -1.
<mgrwt>
<rscale>  0 0.88949883E+02</rscale>
<asrwt>0</asrwt>
<pdfrwt beam="1">  1        1 0.62156243E-02 0.88949883E+02</pdfrwt>
<pdfrwt beam="2">  1       -1 0.75321558E-02 0.88949883E+02</pdfrwt>
<totfact> 0.97347144E+04</totfact>
</mgrwt>
</event>
<event>
 5   1  0.1388354E+00  0.9246427E+02  0.7818608E-02  0.1296991E+00
          1   -1    0    0  501    0  0.00000000000E+00  0.00000000000E+00  0.24751873342E+03  0.24751873346E+03  0.46700000000E-02 0. -1.
         -1   -1    0    0    0  501 -0.00000000000E+00 -0.00000000000E+00 -0.86353469976E+01  0.86353482604E+01  0.46700000000E-02 0.  1.
         23    2    1    2    0    0  0.00000000000E+00  0.00000000000E+00  0.23888338642E+03  0.25615408172E+03  0.92464270264E+02 0.  0.
        -13    1    3    3    0    0  0.18302588218E+02 -0.36903537655E+02  0.17758793421E+03  0.18230288362E+03  0.10570000000E+00 0. -1.
         13    1    3    3    0    0 -0.18302588218E+02  0.36903537655E+02  0.61295452212E+02  0.73851198103E+02  0.10570000000E+00 0.  1.
<mgrwt>
<rscale>  0 0.92464270E+02</rscale>
<asrwt>0</asrwt>
<pdfrwt beam="1">  1        1 0.38079809E-01 0.92464270E+02</pdfrwt>
<pdfrwt beam="2">  1       -1 0.13285149E-02 0.92464270E+02</pdfrwt>
<totfact> 0.11888494E+05</totfact>
</mgrwt>
</event>
<event>
 5   1  0.1388354E+00  0.9034891E+02  0.7818608E-02  0.1302009E+00
         -1   -1    0    0    0  501 -0.00000000000E+00  0.00000000000E+00  0.89515218684E+02  0.89515218806E+02  0.46700000000E-02 0.  1.
          1   -1    0    0  501    0  0.00000000000E+00 -0.00000000000E+00 -0.22797592513E+02  0.22797592991E+02  0.46700000000E-02 0. -1.
         23    2    1    2    0    0  0.00000000000E+00  0.00000000000E+00  0.66717626171E+02  0.11231281180E+03  0.90348912843E+02 0.  0.
        -13    1    3    3    0    0 -0.43765505446E+02  0.79753136851E+01  0.23594713142E+02  0.50356198785E+02  0.10570000000E+00 0. -1.
         13    1    3    3    0    0  0.43765505446E+02 -0.79753136851E+01  0.43122913029E+02  0.61956613012E+02  0.10570000000E+00 0.  1.
<mgrwt>
<rscale>  0 0.90348913E+02</rscale>
<asrwt>0</asrwt>
<pdfrwt beam="2">  1        1 0.35073219E-02 0.90348913E+02</pdfrwt>
<pdfrwt beam="1">  1       -1 0.13771573E-01 0.90348913E+02</pdfrwt>
<totfact> 0.84987552E+04</totfact>
</mgrwt>
</event>
<event>
 5   1  0.1388354E+00  0.9211362E+02  0.7818608E-02  0.1297812E+00
          1   -1    0    0  501    0  0.00000000000E+00  0.00000000000E+00  0.67557278387E+01  0.67557294528E+01  0.46700000000E-02 0. -1.
         -1   -1    0    0    0  501 -0.00000000000E+00 -0.00000000000E+00 -0.31398980529E+03  0.31398980532E+03  0.46700000000E-02 0.  1.
         23    2    1    2    0    0  0.00000000000E+00  0.00000000000E+00 -0.30723407745E+03  0.32074553478E+03  0.92113624032E+02 0.  0.
        -13    1    3    3    0    0  0.28723894114E+02  0.29310944929E+02 -0.80823978482E+02  0.90646126535E+02  0.10570000000E+00 0. -1.
         13    1    3    3    0    0 -0.28723894114E+02 -0.29310944929E+02 -0.22641009897E+03  0.23009940824E+03  0.10570000000E+00 0.  1.
<mgrwt>
<rscale>  0 0.92113624E+02</rscale>
<asrwt>0</asrwt>
<pdfrwt beam="1">  1        1 0.10393431E-02 0.92113624E+02</pdfrwt>
<pdfrwt beam="2">  1       -1 0.48306113E-01 0.92113624E+02</pdfrwt>
<totfact> 0.57917245E+04</totfact>
</mgrwt>
</event>
<event>
 5   1  0.1388354E+00  0.9338126E+02  0.7818608E-02  0.1294864E+00
          1   -1    0    0  501    0  0.00000000000E+00  0.00000000000E+00  0.20301609968E+02  0.20301610505E+02  0.46700000000E-02 0. -1.
         -1   -1    0    0    0  501 -0.00000000000E+00 -0.00000000000E+00 -0.10738138275E+03  0.10738138285E+03  0.46700000000E-02 0.  1.
         23    2    1    2    0    0  0.00000000000E+00  0.00000000000E+00 -0.87079772783E+02  0.12768299336E+03  0.93381261314E+02 0.  0.
        -13    1    3    3    0    0  0.39945405977E+02  0.11330732297E+02 -0.72737515105E+02  0.83754272901E+02  0.10570000000E+00 0.  1.
         13    1    3    3    0    0 -0.39945405977E+02 -0.11330732297E+02 -0.14342257678E+02  0.43928720456E+02  0.10570000000E+00 0. -1.
<mgrwt>
<rscale>  0 0.93381261E+02</rscale>
<asrwt>0</asrwt>
<pdfrwt beam="1">  1        1 0.31233247E-02 0.93381261E+02</pdfrwt>
<pdfrwt beam="2">  1       -1 0.16520213E-01 0.93381261E+02</pdfrwt>
<totfact> 0.75477327E+04</totfact>
</mgrwt>
</event>
<event>
 5   1  0.1388354E+00  0.8855671E+02  0.7818608E-02  0.1306385E+00
         -1   -1    0    0    0  501 -0.00000000000E+00  0.00000000000E+00  0.15914117846E+03  0.15914117853E+03  0.46700000000E-02 0.  1.
          1   -1    0    0  501    0  0.00000000000E+00 -0.00000000000E+00 -0.12319706643E+02  0.12319707528E+02  0.46700000000E-02 0. -1.
         23    2    1    2    0    0  0.00000000000E+00  0.00000000000E+00  0.14682147182E+03  0.17146088606E+03  0.88556709857E+02 0.  0.
        -13    1    3    3    0    0 -0.37179870124E+02 -0.10176126940E+02  0.31227751171E+02  0.49609272496E+02  0.10570000000E+00 0. -1.
         13    1    3    3    0    0  0.37179870124E+02  0.10176126940E+02  0.11559372065E+03  0.12185161356E+03  0.10570000000E+00 0.  1.
<mgrwt>
<rscale>  0 0.88556710E+02</rscale>
<asrwt>0</asrwt>
<pdfrwt beam="2">  1        1 0.18953395E-02 0.88556710E+02</pdfrwt>
<pdfrwt beam="1">  1       -1 0.24483258E-01 0.88556710E+02</pdfrwt>
<totfact> 0.79532670E+04</totfact>
</mgrwt>
</event>
<event>
 5   1  0.1388354E+00  0.9173927E+02  0.7818608E-02  0.1298694E+00
          1   -1    0    0  501    0  0.00000000000E+00  0.00000000000E+00  0.57653109989E+02  0.57653110178E+02  0.46700000000E-02 0. -1.
         -1   -1    0    0    0  501 -0.00000000000E+00 -0.00000000000E+00 -0.36494533875E+02  0.36494534174E+02  0.46700000000E-02 0.  1.
         23    2    1    2    0    0  0.00000000000E+00  0.00000000000E+00  0.21158576113E+02  0.94147644352E+02  0.91739269639E+02 0.  0.
        -13    1    3    3    0    0 -0.36847787669E+01 -0.42084863855E+02  0.28917326028E+02  0.51195080598E+02  0.10570000000E+00 0.  1.
         13    1    3    3    0    0  0.36847787669E+01  0.42084863855E+02 -0.77587499151E+01  0.42952563754E+02  0.10570000000E+00 0. -1.
<mgrwt>
<rscale>  0 0.91739270E+02</rscale>
<asrwt>0</asrwt>
<pdfrwt beam="1">  1        1 0.88697092E-02 0.91739270E+02</pdfrwt>
<pdfrwt beam="2">  1       -1 0.56145437E-02 0.91739270E+02</pdfrwt>
<totfact> 0.94167070E+04</totfact>
</mgrwt>
</event>
<event>
 5   1  0.1388354E+00  0.9009887E+02  0.7818608E-02  0.1302612E+00
          1   -1    0    0  501    0  0.00000000000E+00  0.00000000000E+00  0.36853922470E+02  0.36853922766E+02  0.46700000000E-02 0. -1.
         -1   -1    0    0    0  501 -0.00000000000E+00 -0.00000000000E+00 -0.55067453357E+02  0.55067453555E+02  0.46700000000E-02 0.  1.
         23    2    1    2    0    0  0.00000000000E+00  0.00000000000E+00 -0.18213530887E+02  0.91921376322E+02  0.90098871899E+02 0.  0.
        -13    1    3    3    0    0  0.42327251733E+02 -0.10791245923E+02  0.21339637814E+01  0.43733422022E+02  0.10570000000E+00 0.  1.
         13    1    3    3    0    0 -0.42327251733E+02  0.10791245923E+02 -0.20347494668E+02  0.48187954300E+02  0.10570000000E+00 0. -1.
<mgrwt>
<rscale>  0 0.90098872E+02</rscale>
<asrwt>0</asrwt>
<pdfrwt beam="1">  1        1 0.56698343E-02 0.90098872E+02</pdfrwt>
<pdfrwt beam="2">  1       -1 0.84719159E-02 0.90098872E+02</pdfrwt>
<totfact> 0.92602345E+04</totfact>
</mgrwt>
</event>
<event>
 5   1  0.1388354E+00  0.9294085E+02  0.7818608E-02  0.1295882E+00
          1   -1    0    0  501    0  0.00000000000E+00  0.00000000000E+00  0.56929763480E+02  0.56929763672E+02  0.46700000000E-02 0. -1.
         -1   -1    0    0    0  501 -0.00000000000E+00 -0.00000000000E+00 -0.37932709918E+02  0.37932710206E+02  0.46700000000E-02 0.  1.
         23    2    1    2    0    0  0.00000000000E+00  0.00000000000E+00  0.18997053562E+02  0.94862473877E+02  0.92940846274E+02 0.  0.
        -13    1    3    3    0    0  0.32368447540E+02  0.32873689175E+02  0.38071064757E+01  0.46291479435E+02  0.10570000000E+00 0.  1.
         13    1    3    3    0    0 -0.32368447540E+02 -0.32873689175E+02  0.15189947086E+02  0.48570994442E+02  0.10570000000E+00 0. -1.
<mgrwt>
<rscale>  0 0.92940846E+02</rscale>
<asrwt>0</asrwt>
<pdfrwt beam="1">  1        1 0.87584252E-02 0.92940846E+02</pdfrwt>
<pdfrwt beam="2">  1       -1 0.58358016E-02 0.92940846E+02</pdfrwt>
<totfact> 0.90639076E+04</totfact>
</mgrwt>
</event>
<event>
 5   1  0.1388354E+00  0.8965722E+02  0.7818608E-02  0.1303684E+00
          1   -1    0    0  501    0  0.00000000000E+00  0.00000000000E+00  0.12077799378E+02  0.12077800281E+02  0.46700000000E-02 0. -1.
         -1   -1    0    0    0  501 -0.00000000000E+00 -0.00000000000E+00 -0.16638826779E+03  0.16638826785E+03  0.46700000000E-02 0.  1.
         23    2    1    2    0    0  0.00000000000E+00  0.00000000000E+00 -0.15431046841E+03  0.17846606813E+03  0.89657218418E+02 0.  0.
        -13    1    3    3    0    0  0.37232003319E+02  0.20916277341E+02 -0.10429381169E+03  0.11269837203E+03  0.10570000000E+00 0.  1.
         13    1    3    3    0    0 -0.37232003319E+02 -0.20916277341E+02 -0.50016656720E+02  0.65767696104E+02  0.10570000000E+00 0. -1.
<mgrwt>
<rscale>  0 0.89657218E+02</rscale>
<asrwt>0</asrwt>
<pdfrwt beam="1">  1        1 0.18581232E-02 0.89657218E+02</pdfrwt>
<pdfrwt beam="2">  1       -1 0.25598193E-01 0.89657218E+02</pdfrwt>
<totfact> 0.76185812E+04</totfact>
</mgrwt>
</event>
<event>
 5   1  0.1388354E+00  0.9264218E+02  0.7818608E-02  0.1296577E+00
          1   -1    0    0  501    0  0.00000000000E+00  0.00000000000E+00  0.56440253024E+01  0.56440272344E+01  0.46700000000E-02 0. -1.
         -1   -1    0    0    0  501 -0.00000000000E+00 -0.00000000000E+00 -0.38016186095E+03  0.38016186098E+03  0.46700000000E-02 0.  1.
         23    2    1    2    0    0  0.00000000000E+00  0.00000000000E+00 -0.37451783565E+03  0.38580588821E+03  0.92642183489E+02 0.  0.
        -13    1    3    3    0    0  0.21729742516E+02  0.40881264510E+02 -0.18112021008E+03  0.18694384496E+03  0.10570000000E+00 0. -1.
         13    1    3    3    0    0 -0.21729742516E+02 -0.40881264510E+02 -0.19339762557E+03  0.19886204325E+03  0.10570000000E+00 0.  1.
<mgrwt>
<rscale>  0 0.92642183E+02</rscale>
<asrwt>0</asrwt>
<pdfrwt beam="1">  1        1 0.86831203E-03 0.92642183E+02</pdfrwt>
<pdfrwt beam="2">  1       -1 0.58486420E-01 0.92642183E+02</pdfrwt>
<totfact> 0.52408565E+04</totfact>
</mgrwt>
</event>
<event>
 5   1  0.1388354E+00  0.9288915E+02  0.7818608E-02  0.1296002E+00
         -1   -1    0    0    0  501 -0.00000000000E+00  0.00000000000E+00  0.35463214481E+03  0.35463214484E+03  0.46700000000E-02 0.  1.
          1   -1    0    0  501    0  0.00000000000E+00 -0.00000000000E+00 -0.60826360477E+01  0.60826378404E+01  0.46700000000E-02 0. -1.
         23    2    1    2    0    0  0.00000000000E+00  0.00000000000E+00  0.34854950876E+03  0.36071478268E+03  0.92889151068E+02 0.  0.
        -13    1    3    3    0    0  0.44931612111E+02 -0.10241674058E+02  0.15185043244E+03  0.15868934010E+03  0.10570000000E+00 0. -1.
         13    1    3    3    0    0 -0.44931612111E+02  0.10241674058E+02  0.19669907632E+03  0.20202544258E+03  0.10570000000E+00 0.  1.
<mgrwt>
<rscale>  0 0.92889151E+02</rscale>
<asrwt>0</asrwt>
<pdfrwt beam="2">  1        1 0.93578998E-03 0.92889151E+02</pdfrwt>
<pdfrwt beam="1">  1       -1 0.54558811E-01 0.92889151E+02</pdfrwt>
<totfact> 0.53764394E+04</totfact>
</mgrwt>
</event>
<event>
 5   1  0.1388354E+00  0.9182638E+02  0.7818608E-02  0.1298488E+00
          1   -1    0    0  501    0  0.00000000000E+00  0.00000000000E+00  0.66247760150E+02  0.66247760315E+02  0.46700000000E-02 0. -1.
         -1   -1    0    0    0  501 -0.00000000000E+00 -0.00000000000E+00 -0.31820260798E+02  0.31820261140E+02  0.46700000000E-02 0.  1.
         23    2    1    2    0    0  0.00000000000E+00  0.00000000000E+00  0.34427499353E+02  0.98068021455E+02  0.91826380308E+02 0.  0.
        -13    1    3    3    0    0 -0.29524794864E+02  0.35014618801E+02  0.13790766967E+02  0.47832347502E+02  0.10570000000E+00 0.  1.
         13    1    3    3    0    0  0.29524794864E+02 -0.35014618801E+02  0.20636732386E+02  0.50235673953E+02  0.10570000000E+00 0. -1.
<mgrwt>
<rscale>  0 0.91826380E+02</rscale>
<asrwt>0</asrwt>
<pdfrwt beam="1">  1        1 0.10191963E-01 0.91826380E+02</pdfrwt>
<pdfrwt beam="2">  1       -1 0.48954247E-02 0.91826380E+02</pdfrwt>
<totfact> 0.95931623E+04</totfact>
</mgrwt>
</event>
<event>
 5   1  0.1388354E+00  0.9087570E+02  0.7818608E-02  0.1300745E+00
         -1   -1    0    0    0  501 -0.00000000000E+00  0.00000000000E+00  0.10156611850E+02  0.10156612924E+02  0.46700000000E-02 0.  1.
          1   -1    0    0  501    0  0.00000000000E+00 -0.00000000000E+00 -0.20327624446E+03  0.20327624451E+03  0.46700000000E-02 0. -1.
         23    2    1    2    0    0  0.00000000000E+00  0.00000000000E+00 -0.19311963261E+03  0.21343285744E+03  0.90875696061E+02 0.  0.
        -13    1    3    3    0    0 -0.32788627102E+02  0.31202437650E+02 -0.87194523522E+02  0.98242466821E+02  0.10570000000E+00 0. -1.
         13    1    3    3    0    0  0.32788627102E+02 -0.31202437650E+02 -0.10592510909E+03  0.11519039062E+03  0.10570000000E+00 0.  1.
<mgrwt>
<rscale>  0 0.90875696E+02</rscale>
<asrwt>0</asrwt>
<pdfrwt beam="2">  1        1 0.31273266E-01 0.90875696E+02</pdfrwt>
<pdfrwt beam="1">  1       -1 0.15625559E-02 0.90875696E+02</pdfrwt>
<totfact> 0.11983804E+05</totfact>
</mgrwt>
</event>
<event>
 5   1  0.1388354E+00  0.8951615E+02  0.7818608E-02  0.1304028E+00
         -1   -1    0    0    0  501 -0.00000000000E+00  0.00000000000E+00  0.27084948587E+02  0.27084948989E+02  0.46700000000E-02 0.  1.
          1   -1    0    0  501    0  0.00000000000E+00 -0.00000000000E+00 -0.73963043371E+02  0.73963043519E+02  0.46700000000E-02 0. -1.
         23    2    1    2    0    0  0.00000000000E+00  0.00000000000E+00 -0.46878094785E+02  0.10104799251E+03  0.89516149488E+02 0.  0.
        -13    1    3    3    0    0 -0.33216351405E+02  0.19723935696E+02  0.20762354363E+01  0.38686968944E+02  0.10570000000E+00 0.  1.
         13    1    3    3    0    0  0.33216351405E+02 -0.19723935696E+02 -0.48954330221E+02  0.62361023563E+02  0.10570000000E+00 0. -1.
<mgrwt>
<rscale>  0 0.89516149E+02</rscale>
<asrwt>0</asrwt>
<pdfrwt beam="2">  1        1 0.11378930E-01 0.89516149E+02</pdfrwt>
<pdfrwt beam="1">  1       -1 0.41669152E-02 0.89516149E+02</pdfrwt>
<totfact> 0.10466608E+05</totfact>
</mgrwt>
</event>
<event>
 5   1  0.1388354E+00  0.8707779E+02  0.7818608E-02  0.1310087E+00
          1   -1    0    0  501    0  0.00000000000E+00  0.00000000000E+00  0.74808453873E+02  0.74808454019E+02  0.46700000000E-02 0. -1.
         -1   -1    0    0    0  501 -0.00000000000E+00 -0.00000000000E+00 -0.25339856294E+02  0.25339856724E+02  0.46700000000E-02 0.  1.
         23    2    1    2    0    0  0.00000000000E+00  0.00000000000E+00  0.49468597579E+02  0.10014831074E+03  0.87077792796E+02 0.  0.
        -13    1    3    3    0    0 -0.10089829028E+01  0.41402262582E+02  0.40184189417E+02  0.57705681219E+02  0.10570000000E+00 0.  1.
         13    1    3    3    0    0  0.10089829028E+01 -0.41402262582E+02  0.92844081628E+01  0.42442629523E+02  0.10570000000E+00 0. -1.
<mgrwt>
<rscale>  0 0.87077793E+02</rscale>
<asrwt>0</asrwt>
<pdfrwt beam="1">  1        1 0.11508993E-01 0.87077793E+02</pdfrwt>
<pdfrwt beam="2">  1       -1 0.38984395E-02 0.87077793E+02</pdfrwt>
<totfact> 0.11307997E+05</totfact>
</mgrwt>
</event>
<event>
 5   1  0.1388354E+00  0.9098118E+02  0.7818608E-02  0.1300493E+00
         -1   -1    0    0    0  501 -0.00000000000E+00  0.00000000000E+00  0.17199968051E+03  0.17199968057E+03  0.46700000000E-02 0.  1.
          1   -1    0    0  501    0  0.00000000000E+00 -0.00000000000E+00 -0.12031380763E+02  0.12031381670E+02  0.46700000000E-02 0. -1.
         23    2    1    2    0    0  0.00000000000E+00  0.00000000000E+00  0.15996829975E+03  0.18403106224E+03  0.90981179078E+02 0.  0.
        -13    1    3    3    0    0 -0.18528150277E+02  0.22554568110E+02  0.15055948532E+03  0.15336287259E+03  0.10570000000E+00 0.  1.
         13    1    3    3    0    0  0.18528150277E+02 -0.22554568110E+02  0.94088144220E+01  0.30668189653E+02  0.10570000000E+00 0. -1.
<mgrwt>
<rscale>  0 0.90981179E+02</rscale>
<asrwt>0</asrwt>
<pdfrwt beam="2">  1        1 0.18509818E-02 0.90981179E+02</pdfrwt>
<pdfrwt beam="1">  1       -1 0.26461489E-01 0.90981179E+02</pdfrwt>
<totfact> 0.72727249E+04</totfact>
</mgrwt>
</event>
<event>
 5   1  0.1388354E+00  0.9349985E+02  0.7818608E-02  0.1294591E+00
         -1   -1    0    0    0  501 -0.00000000000E+00  0.00000000000E+00  0.70162900734E+01  0.70162916276E+01  0.46700000000E-02 0.  1.
          1   -1    0    0  501    0  0.00000000000E+00 -0.00000000000E+00 -0.31149727008E+03  0.31149727011E+03  0.46700000000E-02 0. -1.
         23    2    1    2    0    0  0.00000000000E+00  0.00000000000E+00 -0.30448098000E+03  0.31851356174E+03  0.93499849348E+02 0.  0.
        -13    1    3    3    0    0 -0.36901624811E+02 -0.14067343920E+02 -0.67013354704E+02  0.77784451915E+02  0.10570000000E+00 0.  1.
         13    1    3    3    0    0  0.36901624811E+02  0.14067343920E+02 -0.23746762530E+03  0.24072910983E+03  0.10570000000E+00 0. -1.
<mgrwt>
<rscale>  0 0.93499849E+02</rscale>
<asrwt>0</asrwt>
<pdfrwt beam="2">  1        1 0.47922646E-01 0.93499849E+02</pdfrwt>
<pdfrwt beam="1">  1       -1 0.10794296E-02 0.93499849E+02</pdfrwt>
<totfact> 0.12066048E+05</totfact>
</mgrwt>
</event>
<event>
 5   1  0.1388354E+00  0.8684749E+02  0.7818608E-02  0.1310671E+00
         -1   -1    0    0    0  501 -0.00000000000E+00  0.00000000000E+00  0.28566471851E+02  0.28566472233E+02  0.46700000000E-02 0.  1.
          1   -1    0    0  501    0  0.00000000000E+00 -0.00000000000E+00 -0.66008203967E+02  0.66008204132E+02  0.46700000000E-02 0. -1.
         23    2    1    2    0    0  0.00000000000E+00  0.00000000000E+00 -0.37441732116E+02  0.94574676365E+02  0.86847487619E+02 0.  0.
        -13    1    3    3    0    0 -0.37092029171E+02  0.20593306467E+02 -0.28802406653E+02  0.51278579356E+02  0.10570000000E+00 0. -1.
         13    1    3    3    0    0  0.37092029171E+02 -0.20593306467E+02 -0.86393254634E+01  0.43296097009E+02  0.10570000000E+00 0.  1.
<mgrwt>
<rscale>  0 0.86847488E+02</rscale>
<asrwt>0</asrwt>
<pdfrwt beam="2">  1        1 0.10155108E-01 0.86847488E+02</pdfrwt>
<pdfrwt beam="1">  1       -1 0.43948419E-02 0.86847488E+02</pdfrwt>
<totfact> 0.11178683E+05</totfact>
</mgrwt>
</event>
<event>
 5   1  0.1388354E+00  0.9078693E+02  0.7818608E-02  0.1300957E+00
         -1   -1    0    0    0  501 -0.00000000000E+00  0.00000000000E+00  0.17193416892E+02  0.17193417526E+02  0.46700000000E-02 0.  1.
          1   -1    0    0  501    0  0.00000000000E+00 -0.00000000000E+00 -0.11984626179E+03  0.11984626188E+03  0.46700000000E-02 0. -1.
         23    2    1    2    0    0  0.00000000000E+00  0.00000000000E+00 -0.10265284490E+03  0.13703967941E+03  0.90786932795E+02 0.  0.
        -13    1    3    3    0    0  0.22468044934E+01 -0.22180445950E+02  0.83601769990E+01  0.23810166840E+02  0.10570000000E+00 0.  1.
         13    1    3    3    0    0 -0.22468044934E+01  0.22180445950E+02 -0.11101302190E+03  0.11322951257E+03  0.10570000000E+00 0. -1.
<mgrwt>
<rscale>  0 0.90786933E+02</rscale>
<asrwt>0</asrwt>
<pdfrwt beam="2">  1        1 0.18437886E-01 0.90786933E+02</pdfrwt>
<pdfrwt beam="1">  1       -1 0.26451412E-02 0.90786933E+02</pdfrwt>
<totfact> 0.10897343E+05</totfact>
</mgrwt>
</event>
<event>
 5   1  0.1388354E+00  0.8608170E+02  0.7818608E-02  0.1312628E+00
         -1   -1    0    0    0  501 -0.00000000000E+00  0.00000000000E+00  0.76591389990E+02  0.76591390133E+02  0.46700000000E-02 0.  1.
          1   -1    0    0  501    0  0.00000000000E+00 -0.00000000000E+00 -0.24186985722E+02  0.24186986173E+02  0.46700000000E-02 0. -1.
         23    2    1    2    0    0  0.00000000000E+00  0.00000000000E+00  0.52404404269E+02  0.10077837631E+03  0.86081702725E+02 0.  0.
        -13    1    3    3    0    0  0.14462350253E+01 -0.35396941856E+02  0.54818540346E+02  0.65269584239E+02  0.10570000000E+00 0.  1.
         13    1    3    3    0    0 -0.14462350253E+01  0.35396941856E+02 -0.24141360778E+01  0.35508792066E+02  0.10570000000E+00 0. -1.
<mgrwt>
<rscale>  0 0.86081703E+02</rscale>
<asrwt>0</asrwt>
<pdfrwt beam="2">  1        1 0.37210748E-02 0.86081703E+02</pdfrwt>
<pdfrwt beam="1">  1       -1 0.11783291E-01 0.86081703E+02</pdfrwt>
<totfact> 0.98753808E+04</totfact>
</mgrwt>
</event>
<event>
 5   1  0.1388354E+00  0.9050407E+02  0.7818608E-02  0.1301636E+00
          1   -1    0    0  501    0  0.00000000000E+00  0.00000000000E+00  0.31640539461E+02  0.31640539806E+02  0.46700000000E-02 0. -1.
         -1   -1    0    0    0  501 -0.00000000000E+00 -0.00000000000E+00 -0.64719078360E+02  0.64719078528E+02  0.46700000000E-02 0.  1.
         23    2    1    2    0    0  0.00000000000E+00  0.00000000000E+00 -0.33078538898E+02  0.96359618334E+02  0.90504067919E+02 0.  0.
        -13    1    3    3    0    0  0.31599996831E+02  0.16865366999E+02  0.12903757406E+02  0.38072543012E+02  0.10570000000E+00 0. -1.
         13    1    3    3    0    0 -0.31599996831E+02 -0.16865366999E+02 -0.45982296305E+02  0.58287075322E+02  0.10570000000E+00 0.  1.
<mgrwt>
<rscale>  0 0.90504068E+02</rscale>
<asrwt>0</asrwt>
<pdfrwt beam="1">  1        1 0.48677753E-02 0.90504068E+02</pdfrwt>
<pdfrwt beam="2">  1       -1 0.99567813E-02 0.90504068E+02</pdfrwt>
<totfact> 0.89297020E+04</totfact>
</mgrwt>
</event>
<event>
 5   1  0.1388354E+00  0.9015858E+02  0.7818608E-02  0.1302468E+00
         -1   -1    0    0    0  501 -0.00000000000E+00  0.00000000000E+00  0.97417936302E+01  0.97417947495E+01  0.46700000000E-02 0.  1.
          1   -1    0    0  501    0  0.00000000000E+00 -0.00000000000E+00 -0.20860039946E+03  0.20860039951E+03  0.46700000000E-02 0. -1.
         23    2    1    2    0    0  0.00000000000E+00  0.00000000000E+00 -0.19885860583E+03  0.21834219426E+03  0.90158575202E+02 0.  0.
        -13    1    3    3    0    0  0.26184612327E+02 -0.21681742146E+02 -0.27735502867E+02  0.43874835122E+02  0.10570000000E+00 0.  1.
         13    1    3    3    0    0 -0.26184612327E+02  0.21681742146E+02 -0.17112310296E+03  0.17446735914E+03  0.10570000000E+00 0. -1.
<mgrwt>
<rscale>  0 0.90158575E+02</rscale>
<asrwt>0</asrwt>
<pdfrwt beam="2">  1        1 0.32092366E-01 0.90158575E+02</pdfrwt>
<pdfrwt beam="1">  1       -1 0.14987377E-02 0.90158575E+02</pdfrwt>
<totfact> 0.12302184E+05</totfact>
</mgrwt>
</event>
<event>
 5   1  0.1388354E+00  0.9303225E+02  0.7818608E-02  0.1295670E+00
          1   -1    0    0  501    0  0.00000000000E+00  0.00000000000E+00  0.11804133156E+03  0.11804133165E+03  0.46700000000E-02 0. -1.
         -1   -1    0    0    0  501 -0.00000000000E+00 -0.00000000000E+00 -0.18330441348E+02  0.18330441943E+02  0.46700000000E-02 0.  1.
         23    2    1    2    0    0  0.00000000000E+00  0.00000000000E+00  0.99710890213E+02  0.13637177360E+03  0.93032247134E+02 0.  0.
        -13    1    3    3    0    0 -0.27686009974E+02  0.37332023761E+02  0.47096118685E+02  0.66168351302E+02  0.10570000000E+00 0.  1.
         13    1    3    3    0    0  0.27686009974E+02 -0.37332023761E+02  0.52614771528E+02  0.70203422294E+02  0.10570000000E+00 0. -1.
<mgrwt>
<rscale>  0 0.93032247E+02</rscale>
<asrwt>0</asrwt>
<pdfrwt beam="1">  1        1 0.18160204E-01 0.93032247E+02</pdfrwt>
<pdfrwt beam="2">  1       -1 0.28200681E-02 0.93032247E+02</pdfrwt>
<totfact> 0.10170540E+05</totfact>
</mgrwt>
</event>
<event>
 5   1  0.1388354E+00  0.9224769E+02  0.7818608E-02  0.1297498E+00
          1   -1    0    0  501    0  0.00000000000E+00  0.00000000000E+00  0.50249200784E+02  0.50249201001E+02  0.46700000000E-02 0. -1.
         -1   -1    0    0    0  501 -0.00000000000E+00 -0.00000000000E+00 -0.42337176287E+02  0.42337176544E+02  0.46700000000E-02 0.  1.
         23    2    1    2    0    0  0.00000000000E+00  0.00000000000E+00  0.79120244975E+01  0.92586377546E+02  0.92247694689E+02 0.  0.
        -13    1    3    3    0    0  0.15279246278E+02  0.42603201939E+02 -0.49597283628E+01  0.45531288804E+02  0.10570000000E+00 0.  1.
         13    1    3    3    0    0 -0.15279246278E+02 -0.42603201939E+02  0.12871752860E+02  0.47055088741E+02  0.10570000000E+00 0. -1.
<mgrwt>
<rscale>  0 0.92247695E+02</rscale>
<asrwt>0</asrwt>
<pdfrwt beam="1">  1        1 0.77306462E-02 0.92247695E+02</pdfrwt>
<pdfrwt beam="2">  1       -1 0.65134118E-02 0.92247695E+02</pdfrwt>
<totfact> 0.90815750E+04</totfact>
</mgrwt>
</event>
<event>
 5   1  0.1388354E+00  0.9673728E+02  0.7818608E-02  0.1287311E+00
          1   -1    0    0  501    0  0.00000000000E+00  0.00000000000E+00  0.26193645130E+02  0.26193645546E+02  0.46700000000E-02 0. -1.
         -1   -1    0    0    0  501 -0.00000000000E+00 -0.00000000000E+00 -0.89316525454E+02  0.89316525576E+02  0.46700000000E-02 0.  1.
         23    2    1    2    0    0  0.00000000000E+00  0.00000000000E+00 -0.63122880324E+02  0.11551017112E+03  0.96737281398E+02 0.  0.
        -13    1    3    3    0    0 -0.42905613701E+02 -0.19480459443E+02 -0.44594447941E+02  0.64877237509E+02  0.10570000000E+00 0. -1.
         13    1    3    3    0    0  0.42905613701E+02  0.19480459443E+02 -0.18528432383E+02  0.50632933613E+02  0.10570000000E+00 0.  1.
<mgrwt>
<rscale>  0 0.96737281E+02</rscale>
<asrwt>0</asrwt>
<pdfrwt beam="1">  1        1 0.40297917E-02 0.96737281E+02</pdfrwt>
<pdfrwt beam="2">  1       -1 0.13741004E-01 0.96737281E+02</pdfrwt>
<totfact> 0.71325245E+04</totfact>
</mgrwt>
</event>
<event>
 5   1  0.1388354E+00  0.9126056E+02  0.7818608E-02  0.1299827E+00
         -1   -1    0    0    0  501 -0.00000000000E+00  0.00000000000E+00  0.88996312435E+02  0.88996312558E+02  0.46700000000E-02 0.  1.
          1   -1    0    0  501    0  0.00000000000E+00 -0.00000000000E+00 -0.23395602440E+02  0.23395602906E+02  0.46700000000E-02 0. -1.
         23    2    1    2    0    0  0.00000000000E+00  0.00000000000E+00  0.65600709996E+02  0.11239191546E+03  0.91260558346E+02 0.  0.
        -13    1    3    3    0    0 -0.36550119264E+02  0.10938450634E+02  0.63627259500E+02  0.74188949612E+02  0.10570000000E+00 0. -1.
         13    1    3    3    0    0  0.36550119264E+02 -0.10938450634E+02  0.19734504954E+01  0.38202965852E+02  0.10570000000E+00 0.  1.
<mgrwt>
<rscale>  0 0.91260558E+02</rscale>
<asrwt>0</asrwt>
<pdfrwt beam="2">  1        1 0.35993235E-02 0.91260558E+02</pdfrwt>
<pdfrwt beam="1">  1       -1 0.13691740E-01 0.91260558E+02</pdfrwt>
<totfact> 0.82911034E+04</totfact>
</mgrwt>
</event>
<event>
 5   1  0.1388354E+00  0.8705004E+02  0.7818608E-02  0.1310157E+00
         -1   -1    0    0    0  501 -0.00000000000E+00  0.00000000000E+00  0.12289094242E+02  0.12289095130E+02  0.46700000000E-02 0.  1.
          1   -1    0    0  501    0  0.00000000000E+00 -0.00000000000E+00 -0.15415515021E+03  0.15415515029E+03  0.46700000000E-02 0. -1.
         23    2    1    2    0    0  0.00000000000E+00  0.00000000000E+00 -0.14186605597E+03  0.16644424542E+03  0.87050037304E+02 0.  0.
        -13    1    3    3    0    0 -0.14724714675E+02  0.40204008170E+02 -0.55970489153E+02  0.70469045145E+02  0.10570000000E+00 0. -1.
         13    1    3    3    0    0  0.14724714675E+02 -0.40204008170E+02 -0.85895566819E+02  0.95975200270E+02  0.10570000000E+00 0.  1.
<mgrwt>
<rscale>  0 0.87050037E+02</rscale>
<asrwt>0</asrwt>
<pdfrwt beam="2">  1        1 0.23716176E-01 0.87050037E+02</pdfrwt>
<pdfrwt beam="1">  1       -1 0.18906301E-02 0.87050037E+02</pdfrwt>
<totfact> 0.12763394E+05</totfact>
</mgrwt>
</event>
<event>
 5   1  0.1388354E+00  0.8991815E+02  0.7818608E-02  0.1303050E+00
         -1   -1    0    0    0  501 -0.00000000000E+00  0.00000000000E+00  0.15304516298E+03  0.15304516305E+03  0.46700000000E-02 0.  1.
          1   -1    0    0  501    0  0.00000000000E+00 -0.00000000000E+00 -0.13207332767E+02  0.13207333593E+02  0.46700000000E-02 0. -1.
         23    2    1    2    0    0  0.00000000000E+00  0.00000000000E+00  0.13983783021E+03  0.16625249664E+03  0.89918151013E+02 0.  0.
        -13    1    3    3    0    0  0.31966505550E+02 -0.20468387091E+02  0.11446607607E+03  0.12059563048E+03  0.10570000000E+00 0.  1.
         13    1    3    3    0    0 -0.31966505550E+02  0.20468387091E+02  0.25371754143E+02  0.45656866165E+02  0.10570000000E+00 0. -1.
<mgrwt>
<rscale>  0 0.89918151E+02</rscale>
<asrwt>0</asrwt>
<pdfrwt beam="2">  1        1 0.20318972E-02 0.89918151E+02</pdfrwt>
<pdfrwt beam="1">  1       -1 0.23545412E-01 0.89918151E+02</pdfrwt>
<totfact> 0.77167714E+04</totfact>
</mgrwt>
</event>
<event>
 5   1  0.1388354E+00  0.9194678E+02  0.7818608E-02  0.1298205E+00
          1   -1    0    0  501    0  0.00000000000E+00  0.00000000000E+00  0.16306041895E+02  0.16306042564E+02  0.46700000000E-02 0. -1.
         -1   -1    0    0    0  501 -0.00000000000E+00 -0.00000000000E+00 -0.12961774273E+03  0.12961774281E+03  0.46700000000E-02 0.  1.
         23    2    1    2    0    0  0.00000000000E+00  0.00000000000E+00 -0.11331170083E+03  0.14592378538E+03  0.91946775870E+02 0.  0.
        -13    1    3    3    0    0  0.28829393760E+02  0.28680416749E+02 -0.90688316165E+02  0.99388541144E+02  0.10570000000E+00 0.  1.
         13    1    3    3    0    0 -0.28829393760E+02 -0.28680416749E+02 -0.22623384670E+02  0.46535244234E+02  0.10570000000E+00 0. -1.
<mgrwt>
<rscale>  0 0.91946776E+02</rscale>
<asrwt>0</asrwt>
<pdfrwt beam="1">  1        1 0.25086220E-02 0.91946776E+02</pdfrwt>
<pdfrwt beam="2">  1       -1 0.19941191E-01 0.91946776E+02</pdfrwt>
<totfact> 0.75607510E+04</totfact>
</mgrwt>
</event>
<event>
 5   1  0.1388354E+00  0.9166182E+02  0.7818608E-02  0.1298877E+00
         -1   -1    0    0    0  501 -0.00000000000E+00  0.00000000000E+00  0.10805192374E+03  0.10805192384E+03  0.46700000000E-02 0.  1.
          1   -1    0    0  501    0  0.00000000000E+00 -0.00000000000E+00 -0.19439471512E+02  0.19439472073E+02  0.46700000000E-02 0. -1.
         23    2    1    2    0    0  0.00000000000E+00  0.00000000000E+00  0.88612452229E+02  0.12749139592E+03  0.91661820528E+02 0.  0.
        -13    1    3    3    0    0  0.65937723299E+01 -0.43407111869E+02  0.62590249461E+02  0.76453944924E+02  0.10570000000E+00 0.  1.
         13    1    3    3    0    0 -0.65937723299E+01  0.43407111869E+02  0.26022202769E+02  0.51037450992E+02  0.10570000000E+00 0. -1.
<mgrwt>
<rscale>  0 0.91661821E+02</rscale>
<asrwt>0</asrwt>
<pdfrwt beam="2">  1        1 0.29906880E-02 0.91661821E+02</pdfrwt>
<pdfrwt beam="1">  1       -1 0.16623373E-01 0.91661821E+02</pdfrwt>
<totfact> 0.79093915E+04</totfact>
</mgrwt>
</event>
<event>
 5   1  0.1388354E+00  0.9245930E+02  0.7818608E-02  0.1297003E+00
         -1   -1    0    0    0  501 -0.00000000000E+00  0.00000000000E+00  0.11110725811E+02  0.11110726793E+02  0.46700000000E-02 0.  1.
          1   -1    0    0  501    0  0.00000000000E+00 -0.00000000000E+00 -0.19235292546E+03  0.19235292552E+03  0.46700000000E-02 0. -1.
         23    2    1    2    0    0  0.00000000000E+00  0.00000000000E+00 -0.18124219965E+03  0.20346365231E+03  0.92459303901E+02 0.  0.
        -13    1    3    3    0    0  0.10363741294E+02  0.40909727233E+02 -0.13215060285E+03  0.13872564984E+03  0.10570000000E+00 0. -1.
         13    1    3    3    0    0 -0.10363741294E+02 -0.40909727233E+02 -0.49091596803E+02  0.64738002479E+02  0.10570000000E+00 0.  1.
<mgrwt>
<rscale>  0 0.92459304E+02</rscale>
<asrwt>0</asrwt>
<pdfrwt beam="2">  1        1 0.29592755E-01 0.92459304E+02</pdfrwt>
<pdfrwt beam="1">  1       -1 0.17093427E-02 0.92459304E+02</pdfrwt>
<totfact> 0.11318576E+05</totfact>
</mgrwt>
</event>
<event>
 5   1  0.1388354E+00  0.8674957E+02  0.7818608E-02  0.1310920E+00
         -1   -1    0    0    0  501 -0.00000000000E+00  0.00000000000E+00  0.30706979146E+02  0.30706979501E+02  0.46700000000E-02 0.  1.
          1   -1    0    0  501    0  0.00000000000E+00 -0.00000000000E+00 -0.61268544574E+02  0.61268544752E+02  0.46700000000E-02 0. -1.
         23    2    1    2    0    0  0.00000000000E+00  0.00000000000E+00 -0.30561565428E+02  0.91975524254E+02  0.86749569338E+02 0.  0.
        -13    1    3    3    0    0  0.20685032225E+02 -0.18608148239E+02 -0.50560352856E+02  0.57710434000E+02  0.10570000000E+00 0. -1.
         13    1    3    3    0    0 -0.20685032225E+02  0.18608148239E+02  0.19998787428E+02  0.34265090254E+02  0.10570000000E+00 0.  1.
<mgrwt>
<rscale>  0 0.86749569E+02</rscale>
<asrwt>0</asrwt>
<pdfrwt beam="2">  1        1 0.94259300E-02 0.86749569E+02</pdfrwt>
<pdfrwt beam="1">  1       -1 0.47241507E-02 0.86749569E+02</pdfrwt>
<totfact> 0.11090924E+05</totfact>
</mgrwt>
</event>
<event>
 5   1  0.1388354E+00  0.9004293E+02  0.7818608E-02  0.1302748E+00
          1   -1    0    0  501    0  0.00000000000E+00  0.00000000000E+00  0.38113042185E+03  0.38113042187E+03  0.46700000000E-02 0. -1.
         -1   -1    0    0    0  501 -0.00000000000E+00 -0.00000000000E+00 -0.53182106904E+01  0.53182127408E+01  0.46700000000E-02 0.  1.
         23    2    1    2    0    0  0.00000000000E+00  0.00000000000E+00  0.37581221116E+03  0.38644863462E+03  0.90042929442E+02 0.  0.
        -13    1    3    3    0    0 -0.14915362413E+02  0.40458294210E+02  0.24346487468E+03  0.24725391398E+03  0.10570000000E+00 0.  1.
         13    1    3    3    0    0  0.14915362413E+02 -0.40458294210E+02  0.13234733648E+03  0.13919472063E+03  0.10570000000E+00 0. -1.
<mgrwt>
<rscale>  0 0.90042929E+02</rscale>
<asrwt>0</asrwt>
<pdfrwt beam="1">  1        1 0.58635475E-01 0.90042929E+02</pdfrwt>
<pdfrwt beam="2">  1       -1 0.81818606E-03 0.90042929E+02</pdfrwt>
<totfact> 0.13832455E+05</totfact>
</mgrwt>
</event>
<event>
 5   1  0.1388354E+00  0.9175644E+02  0.7818608E-02  0.1298653E+00
         -1   -1    0    0    0  501 -0.00000000000E+00  0.00000000000E+00  0.11170863037E+02  0.11170864013E+02  0.46700000000E-02 0.  1.
          1   -1    0    0  501    0  0.00000000000E+00 -0.00000000000E+00 -0.18841973951E+03  0.18841973957E+03  0.46700000000E-02 0. -1.
         23    2    1    2    0    0  0.00000000000E+00  0.00000000000E+00 -0.17724887647E+03  0.19959060358E+03  0.91756442973E+02 0.  0.
        -13    1    3    3    0    0 -0.22933208701E+02  0.36183068563E+02 -0.12434403693E+03  0.13151652825E+03  0.10570000000E+00 0. -1.
         13    1    3    3    0    0  0.22933208701E+02 -0.36183068563E+02 -0.52904839544E+02  0.68074075327E+02  0.10570000000E+00 0.  1.
<mgrwt>
<rscale>  0 0.91756443E+02</rscale>
<asrwt>0</asrwt>
<pdfrwt beam="2">  1        1 0.28987650E-01 0.91756443E+02</pdfrwt>
<pdfrwt beam="1">  1       -1 0.17185945E-02 0.91756443E+02</pdfrwt>
<totfact> 0.11507197E+05</totfact>
</mgrwt>
</event>
<event>
 5   1  0.1388354E+00  0.9036879E+02  0.7818608E-02  0.1301961E+00
         -1   -1    0    0    0  501 -0.00000000000E+00  0.00000000000E+00  0.68997428479E+02  0.68997428637E+02  0.46700000000E-02 0.  1.
          1   -1    0    0  501    0  0.00000000000E+00 -0.00000000000E+00 -0.29589935852E+02  0.29589936221E+02  0.46700000000E-02 0. -1.
         23    2    1    2    0    0  0.00000000000E+00  0.00000000000E+00  0.39407492627E+02  0.98587364857E+02  0.90368789050E+02 0.  0.
        -13    1    3    3    0    0  0.18436118741E+02  0.24241114701E+01 -0.25222145975E+02  0.31335835886E+02  0.10570000000E+00 0. -1.
         13    1    3    3    0    0 -0.18436118741E+02 -0.24241114701E+01  0.64629638602E+02  0.67251528971E+02  0.10570000000E+00 0.  1.
<mgrwt>
<rscale>  0 0.90368789E+02</rscale>
<asrwt>0</asrwt>
<pdfrwt beam="2">  1        1 0.45522979E-02 0.90368789E+02</pdfrwt>
<pdfrwt beam="1">  1       -1 0.10614989E-01 0.90368789E+02</pdfrwt>
<totfact> 0.88729533E+04</totfact>
</mgrwt>
</event>
<event>
 5   1  0.1388354E+00  0.8521275E+02  0.7818608E-02  0.1314877E+00
         -1   -1    0    0    0  501 -0.00000000000E+00  0.00000000000E+00  0.26813592923E+02  0.26813593330E+02  0.46700000000E-02 0.  1.
          1   -1    0    0  501    0  0.00000000000E+00 -0.00000000000E+00 -0.67700862150E+02  0.67700862311E+02  0.46700000000E-02 0. -1.
         23    2    1    2    0    0  0.00000000000E+00  0.00000000000E+00 -0.40887269227E+02  0.94514455641E+02  0.85212754564E+02 0.  0.
        -13    1    3    3    0    0  0.61429827883E+01 -0.26077468328E+02 -0.57188797351E+02  0.63153307965E+02  0.10570000000E+00 0. -1.
         13    1    3    3    0    0 -0.61429827883E+01  0.26077468328E+02  0.16301528124E+02  0.31361147677E+02  0.10570000000E+00 0.  1.
<mgrwt>
<rscale>  0 0.85212755E+02</rscale>
<asrwt>0</asrwt>
<pdfrwt beam="2">  1        1 0.10415517E-01 0.85212755E+02</pdfrwt>
<pdfrwt beam="1">  1       -1 0.41251682E-02 0.85212755E+02</pdfrwt>
<totfact> 0.11819649E+05</totfact>
</mgrwt>
</event>
<event>
 5   1  0.1388354E+00  0.9093522E+02  0.7818608E-02  0.1300603E+00
         -1   -1    0    0    0  501 -0.00000000000E+00  0.00000000000E+00  0.19145277885E+02  0.19145278455E+02  0.46700000000E-02 0.  1.
          1   -1    0    0  501    0  0.00000000000E+00 -0.00000000000E+00 -0.10797981736E+03  0.10797981747E+03  0.46700000000E-02 0. -1.
         23    2    1    2    0    0  0.00000000000E+00  0.00000000000E+00 -0.88834539479E+02  0.12712509592E+03  0.90935222044E+02 0.  0.
        -13    1    3    3    0    0 -0.21513131213E+02 -0.35254736743E+02 -0.17834386470E+02  0.44986528991E+02  0.10570000000E+00 0.  1.
         13    1    3    3    0    0  0.21513131213E+02  0.35254736743E+02 -0.71000153009E+02  0.82138566929E+02  0.10570000000E+00 0. -1.
<mgrwt>
<rscale>  0 0.90935222E+02</rscale>
<asrwt>0</asrwt>
<pdfrwt beam="2">  1        1 0.16612279E-01 0.90935222E+02</pdfrwt>
<pdfrwt beam="1">  1       -1 0.29454275E-02 0.90935222E+02</pdfrwt>
<totfact> 0.10657279E+05</totfact>
</mgrwt>
</event>
<event>
 5   1  0.1388354E+00  0.9250394E+02  0.7818608E-02  0.1296899E+00
         -1   -1    0    0    0  501 -0.00000000000E+00  0.00000000000E+00  0.12037725497E+02  0.12037726403E+02  0.46700000000E-02 0.  1.
          1   -1    0    0  501    0  0.00000000000E+00 -0.00000000000E+00 -0.17771171170E+03  0.17771171176E+03  0.46700000000E-02 0. -1.
         23    2    1    2    0    0  0.00000000000E+00  0.00000000000E+00 -0.16567398620E+03  0.18974943817E+03  0.92503943588E+02 0.  0.
        -13    1    3    3    0    0 -0.15650898052E+02  0.21951023721E+02 -0.15992815464E+03  0.16218453648E+03  0.10570000000E+00 0. -1.
         13    1    3    3    0    0  0.15650898052E+02 -0.21951023721E+02 -0.57458315600E+01  0.27564901687E+02  0.10570000000E+00 0.  1.
<mgrwt>
<rscale>  0 0.92503944E+02</rscale>
<asrwt>0</asrwt>
<pdfrwt beam="2">  1        1 0.27340262E-01 0.92503944E+02</pdfrwt>
<pdfrwt beam="1">  1       -1 0.18519580E-02 0.92503944E+02</pdfrwt>
<totfact> 0.11132659E+05</totfact>
</mgrwt>
</event>
<event>
 5   1  0.1388354E+00  0.9032267E+02  0.7818608E-02  0.1302072E+00
          1   -1    0    0  501    0  0.00000000000E+00  0.00000000000E+00  0.17990592788E+03  0.17990592794E+03  0.46700000000E-02 0. -1.
         -1   -1    0    0    0  501 -0.00000000000E+00 -0.00000000000E+00 -0.11336735610E+02  0.11336736572E+02  0.46700000000E-02 0.  1.
         23    2    1    2    0    0  0.00000000000E+00  0.00000000000E+00  0.16856919227E+03  0.19124266451E+03  0.90322666851E+02 0.  0.
        -13    1    3    3    0    0  0.24255335379E+02  0.30890019851E+02  0.13148819084E+03  0.13722853247E+03  0.10570000000E+00 0. -1.
         13    1    3    3    0    0 -0.24255335379E+02 -0.30890019851E+02  0.37081001427E+02  0.54014132040E+02  0.10570000000E+00 0.  1.
<mgrwt>
<rscale>  0 0.90322667E+02</rscale>
<asrwt>0</asrwt>
<pdfrwt beam="1">  1        1 0.27677833E-01 0.90322667E+02</pdfrwt>
<pdfrwt beam="2">  1       -1 0.17441134E-02 0.90322667E+02</pdfrwt>
<totfact> 0.11898310E+05</totfact>
</mgrwt>
</event>
<event>
 5   1  0.1388354E+00  0.9108654E+02  0.7818608E-02  0.1300242E+00
          1   -1    0    0  501    0  0.00000000000E+00  0.00000000000E+00  0.10547860943E+02  0.10547861976E+02  0.46700000000E-02 0. -1.
         -1   -1    0    0    0  501 -0.00000000000E+00 -0.00000000000E+00 -0.19664547533E+03  0.19664547539E+03  0.46700000000E-02 0.  1.
         23    2    1    2    0    0  0.00000000000E+00  0.00000000000E+00 -0.18609761439E+03  0.20719333736E+03  0.91086535594E+02 0.  0.
        -13    1    3    3    0    0 -0.35072378175E+02 -0.15041599953E+02 -0.14959006388E+03  0.15438108635E+03  0.10570000000E+00 0.  1.
         13    1    3    3    0    0  0.35072378175E+02  0.15041599953E+02 -0.36507550511E+02  0.52812251010E+02  0.10570000000E+00 0. -1.
<mgrwt>
<rscale>  0 0.91086536E+02</rscale>
<asrwt>0</asrwt>
<pdfrwt beam="1">  1        1 0.16227481E-02 0.91086536E+02</pdfrwt>
<pdfrwt beam="2">  1       -1 0.30253147E-01 0.91086536E+02</pdfrwt>
<totfact> 0.69939719E+04</totfact>
</mgrwt>
</event>
<event>
 5   1  0.1388354E+00  0.8901772E+02  0.7818608E-02  0.1305248E+00
          1   -1    0    0  501    0  0.00000000000E+00  0.00000000000E+00  0.81205670754E+02  0.81205670888E+02  0.46700000000E-02 0. -1.
         -1   -1    0    0    0  501 -0.00000000000E+00 -0.00000000000E+00 -0.24395321474E+02  0.24395321921E+02  0.46700000000E-02 0.  1.
         23    2    1    2    0    0  0.00000000000E+00  0.00000000000E+00  0.56810349280E+02  0.10560099281E+03  0.89017716759E+02 0.  0.
        -13    1    3    3    0    0  0.34857800659E+02 -0.23608768514E+02  0.11272101963E+02  0.43583387577E+02  0.10570000000E+00 0.  1.
         13    1    3    3    0    0 -0.34857800659E+02  0.23608768514E+02  0.45538247317E+02  0.62017605232E+02  0.10570000000E+00 0. -1.
<mgrwt>
<rscale>  0 0.89017717E+02</rscale>
<asrwt>0</asrwt>
<pdfrwt beam="1">  1        1 0.12493180E-01 0.89017717E+02</pdfrwt>
<pdfrwt beam="2">  1       -1 0.37531264E-02 0.89017717E+02</pdfrwt>
<totfact> 0.10782777E+05</totfact>
</mgrwt>
</event>
<event>
 5   1  0.1388354E+00  0.9180547E+02  0.7818608E-02  0.1298537E+00
         -1   -1    0    0    0  501 -0.00000000000E+00  0.00000000000E+00  0.78712386680E+01  0.78712400533E+01  0.46700000000E-02 0.  1.
          1   -1    0    0  501    0  0.00000000000E+00 -0.00000000000E+00 -0.26769115031E+03  0.26769115035E+03  0.46700000000E-02 0. -1.
         23    2    1    2    0    0  0.00000000000E+00  0.00000000000E+00 -0.25981991164E+03  0.27556239040E+03  0.91805471076E+02 0.  0.
        -13    1    3    3    0    0 -0.12128454535E+02  0.39526033475E+02 -0.70055267439E+02  0.81345918153E+02  0.10570000000E+00 0.  1.
         13    1    3    3    0    0  0.12128454535E+02 -0.39526033475E+02 -0.18976464420E+03  0.19421647225E+03  0.10570000000E+00 0. -1.
<mgrwt>
<rscale>  0 0.91805471E+02</rscale>
<asrwt>0</asrwt>
<pdfrwt beam="2">  1        1 0.41183247E-01 0.91805471E+02</pdfrwt>
<pdfrwt beam="1">  1       -1 0.12109601E-02 0.91805471E+02</pdfrwt>
<totfact> 0.12305253E+05</totfact>
</mgrwt>
</event>
<event>
 5   1  0.1388354E+00  0.9292912E+02  0.7818608E-02  0.1295910E+00
         -1   -1    0    0    0  501 -0.00000000000E+00  0.00000000000E+00  0.89388264177E+02  0.89388264299E+02  0.46700000000E-02 0.  1.
          1   -1    0    0  501    0  0.00000000000E+00 -0.00000000000E+00 -0.24152559399E+02  0.24152559851E+02  0.46700000000E-02 0. -1.
         23    2    1    2    0    0  0.00000000000E+00  0.00000000000E+00  0.65235704778E+02  0.11354082415E+03  0.92929121221E+02 0.  0.
        -13    1    3    3    0    0 -0.29189794814E+02 -0.18972807000E+01 -0.11490667056E+02  0.31427542017E+02  0.10570000000E+00 0. -1.
         13    1    3    3    0    0  0.29189794814E+02  0.18972807000E+01  0.76726371834E+02  0.82113282133E+02  0.10570000000E+00 0.  1.
<mgrwt>
<rscale>  0 0.92929121E+02</rscale>
<asrwt>0</asrwt>
<pdfrwt beam="2">  1        1 0.37157785E-02 0.92929121E+02</pdfrwt>
<pdfrwt beam="1">  1       -1 0.13752040E-01 0.92929121E+02</pdfrwt>
<totfact> 0.79075890E+04</totfact>
</mgrwt>
</event>
<event>
 5   1  0.1388354E+00  0.9061228E+02  0.7818608E-02  0.1301376E+00
          1   -1    0    0  501    0  0.00000000000E+00  0.00000000000E+00  0.25936603715E+03  0.25936603719E+03  0.46700000000E-02 0. -1.
         -1   -1    0    0    0  501 -0.00000000000E+00 -0.00000000000E+00 -0.79140905437E+01  0.79140919216E+01  0.46700000000E-02 0.  1.
         23    2    1    2    0    0  0.00000000000E+00  0.00000000000E+00  0.25145194660E+03  0.26728012911E+03  0.90612283752E+02 0.  0.
        -13    1    3    3    0    0 -0.27816236075E+02  0.33985262381E+02  0.92893378429E+02  0.10275179793E+03  0.10570000000E+00 0.  1.
         13    1    3    3    0    0  0.27816236075E+02 -0.33985262381E+02  0.15855856817E+03  0.16452833118E+03  0.10570000000E+00 0. -1.
<mgrwt>
<rscale>  0 0.90612284E+02</rscale>
<asrwt>0</asrwt>
<pdfrwt beam="1">  1        1 0.39902462E-01 0.90612284E+02</pdfrwt>
<pdfrwt beam="2">  1       -1 0.12175527E-02 0.90612284E+02</pdfrwt>
<totfact> 0.12664164E+05</totfact>
</mgrwt>
</event>
<event>
 5   1  0.1388354E+00  0.8965650E+02  0.7818608E-02  0.1303686E+00
         -1   -1    0    0    0  501 -0.00000000000E+00  0.00000000000E+00  0.12524905366E+02  0.12524906237E+02  0.46700000000E-02 0.  1.
          1   -1    0    0  501    0  0.00000000000E+00 -0.00000000000E+00 -0.16044606848E+03  0.16044606855E+03  0.46700000000E-02 0. -1.
         23    2    1    2    0    0  0.00000000000E+00  0.00000000000E+00 -0.14792116311E+03  0.17297097479E+03  0.89656497931E+02 0.  0.
        -13    1    3    3    0    0 -0.34113910583E+02  0.19835124733E+02 -0.32927115885E+02  0.51394525014E+02  0.10570000000E+00 0.  1.
         13    1    3    3    0    0  0.34113910583E+02 -0.19835124733E+02 -0.11499404723E+03  0.12157644977E+03  0.10570000000E+00 0. -1.
<mgrwt>
<rscale>  0 0.89656498E+02</rscale>
<asrwt>0</asrwt>
<pdfrwt beam="2">  1        1 0.24684009E-01 0.89656498E+02</pdfrwt>
<pdfrwt beam="1">  1       -1 0.19269087E-02 0.89656498E+02</pdfrwt>
<totfact> 0.11879063E+05</totfact>
</mgrwt>
</event>
<event>
 5   1  0.1388354E+00  0.8942857E+02  0.7818608E-02  0.1304241E+00
          1   -1    0    0  501    0  0.00000000000E+00  0.00000000000E+00  0.19845491335E+02  0.19845491885E+02  0.46700000000E-02 0. -1.
         -1   -1    0    0    0  501 -0.00000000000E+00 -0.00000000000E+00 -0.10074666770E+03  0.10074666781E+03  0.46700000000E-02 0.  1.
         23    2    1    2    0    0  0.00000000000E+00  0.00000000000E+00 -0.80901176367E+02  0.12059215970E+03  0.89428567261E+02 0.  0.
        -13    1    3    3    0    0  0.25138448177E+02  0.35660179965E+02 -0.53646773934E+02  0.69148951821E+02  0.10570000000E+00 0.  1.
         13    1    3    3    0    0 -0.25138448177E+02 -0.35660179965E+02 -0.27254402433E+02  0.51443207874E+02  0.10570000000E+00 0. -1.
<mgrwt>
<rscale>  0 0.89428567E+02</rscale>
<asrwt>0</asrwt>
<pdfrwt beam="1">  1        1 0.30531526E-02 0.89428567E+02</pdfrwt>
<pdfrwt beam="2">  1       -1 0.15499487E-01 0.89428567E+02</pdfrwt>
<totfact> 0.85407627E+04</totfact>
</mgrwt>
</event>
<event>
 5   1  0.1388354E+00  0.9177438E+02  0.7818608E-02  0.1298611E+00
         -1   -1    0    0    0  501 -0.00000000000E+00  0.00000000000E+00  0.41421499254E+03  0.41421499257E+03  0.46700000000E-02 0.  1.
          1   -1    0    0  501    0  0.00000000000E+00 -0.00000000000E+00 -0.50834318472E+01  0.50834339923E+01  0.46700000000E-02 0. -1.
         23    2    1    2    0    0  0.00000000000E+00  0.00000000000E+00  0.40913156069E+03  0.41929842656E+03  0.91774378558E+02 0.  0.
        -13    1    3    3    0    0 -0.16480065564E+02 -0.42179143614E+02  0.17069800908E+03  0.17660264492E+03  0.10570000000E+00 0. -1.
         13    1    3    3    0    0  0.16480065564E+02  0.42179143614E+02  0.23843355162E+03  0.24269578164E+03  0.10570000000E+00 0.  1.
<mgrwt>
<rscale>  0 0.91774379E+02</rscale>
<asrwt>0</asrwt>
<pdfrwt beam="2">  1        1 0.78206688E-03 0.91774379E+02</pdfrwt>
<pdfrwt beam="1">  1       -1 0.63725361E-01 0.91774379E+02</pdfrwt>
<totfact> 0.51454577E+04</totfact>
</mgrwt>
</event>
<event>
 5   1  0.1388354E+00  0.9170390E+02  0.7818608E-02  0.1298777E+00
         -1   -1    0    0    0  501 -0.00000000000E+00  0.00000000000E+00  0.38952926631E+03  0.38952926633E+03  0.46700000000E-02 0.  1.
          1   -1    0    0  501    0  0.00000000000E+00 -0.00000000000E+00 -0.53972861437E+01  0.53972881641E+01  0.46700000000E-02 0. -1.
         23    2    1    2    0    0  0.00000000000E+00  0.00000000000E+00  0.38413198016E+03  0.39492655450E+03  0.91703899940E+02 0.  0.
        -13    1    3    3    0    0 -0.52550430129E+00  0.44999477849E+02  0.22989521161E+03  0.23425850818E+03  0.10570000000E+00 0. -1.
         13    1    3    3    0    0  0.52550430129E+00 -0.44999477849E+02  0.15423676855E+03  0.16066804631E+03  0.10570000000E+00 0.  1.
<mgrwt>
<rscale>  0 0.91703900E+02</rscale>
<asrwt>0</asrwt>
<pdfrwt beam="2">  1        1 0.83035183E-03 0.91703900E+02</pdfrwt>
<pdfrwt beam="1">  1       -1 0.59927582E-01 0.91703900E+02</pdfrwt>
<totfact> 0.53190466E+04</totfact>
</mgrwt>
</event>
<event>
 5   1  0.1388354E+00  0.9166044E+02  0.7818608E-02  0.1298880E+00
          1   -1    0    0  501    0  0.00000000000E+00  0.00000000000E+00  0.59845656928E+02  0.59845657110E+02  0.46700000000E-02 0. -1.
         -1   -1    0    0    0  501 -0.00000000000E+00 -0.00000000000E+00 -0.35097099371E+02  0.35097099681E+02  0.46700000000E-02 0.  1.
         23    2    1    2    0    0  0.00000000000E+00  0.00000000000E+00  0.24748557557E+02  0.94942756792E+02  0.91660438391E+02 0.  0.
        -13    1    3    3    0    0  0.33416017221E+02  0.57934701409E+01  0.44303489175E+02  0.55794308211E+02  0.10570000000E+00 0. -1.
         13    1    3    3    0    0 -0.33416017221E+02 -0.57934701409E+01 -0.19554931617E+02  0.39148448580E+02  0.10570000000E+00 0.  1.
<mgrwt>
<rscale>  0 0.91660438E+02</rscale>
<asrwt>0</asrwt>
<pdfrwt beam="1">  1        1 0.92070241E-02 0.91660438E+02</pdfrwt>
<pdfrwt beam="2">  1       -1 0.53995538E-02 0.91660438E+02</pdfrwt>
<totfact> 0.94928414E+04</totfact>
</mgrwt>
</event>
<event>
 5   1  0.1388354E+00  0.8322058E+02  0.7818608E-02  0.1320153E+00
         -1   -1    0    0    0  501 -0.00000000000E+00  0.00000000000E+00  0.21288728053E+03  0.21288728058E+03  0.46700000000E-02 0.  1.
          1   -1    0    0  501    0  0.00000000000E+00 -0.00000000000E+00 -0.81330188605E+01  0.81330202013E+01  0.46700000000E-02 0. -1.
         23    2    1    2    0    0  0.00000000000E+00  0.00000000000E+00  0.20475426167E+03  0.22102030078E+03  0.83220584509E+02 0.  0.
        -13    1    3    3    0    0  0.26040603603E+02  0.31611308715E+02  0.12189660611E+03  0.12859308546E+03  0.10570000000E+00 0. -1.
         13    1    3    3    0    0 -0.26040603603E+02 -0.31611308715E+02  0.82857655555E+02  0.92427215317E+02  0.10570000000E+00 0.  1.
<mgrwt>
<rscale>  0 0.83220585E+02</rscale>
<asrwt>0</asrwt>
<pdfrwt beam="2">  1        1 0.12512336E-02 0.83220585E+02</pdfrwt>
<pdfrwt beam="1">  1       -1 0.32751893E-01 0.83220585E+02</pdfrwt>
<totfact> 0.86418583E+04</totfact>
</mgrwt>
</event>
<event>
 5   1  0.1388354E+00  0.8496126E+02  0.7818608E-02  0.1315534E+00
         -1   -1    0    0    0  501 -0.00000000000E+00  0.00000000000E+00  0.16763960615E+02  0.16763961265E+02  0.46700000000E-02 0.  1.
          1   -1    0    0  501    0  0.00000000000E+00 -0.00000000000E+00 -0.10764782205E+03  0.10764782215E+03  0.46700000000E-02 0. -1.
         23    2    1    2    0    0  0.00000000000E+00  0.00000000000E+00 -0.90883861439E+02  0.12441178342E+03  0.84961259311E+02 0.  0.
        -13    1    3    3    0    0 -0.41988539589E+02  0.42316243766E+01 -0.38320889625E+02  0.57003910882E+02  0.10570000000E+00 0.  1.
         13    1    3    3    0    0  0.41988539589E+02 -0.42316243766E+01 -0.52562971814E+02  0.67407872538E+02  0.10570000000E+00 0. -1.
<mgrwt>
<rscale>  0 0.84961259E+02</rscale>
<asrwt>0</asrwt>
<pdfrwt beam="2">  1        1 0.16561203E-01 0.84961259E+02</pdfrwt>
<pdfrwt beam="1">  1       -1 0.25790710E-02 0.84961259E+02</pdfrwt>
<totfact> 0.12801456E+05</totfact>
</mgrwt>
</event>
<event>
 5   1  0.1388354E+00  0.8997501E+02  0.7818608E-02  0.1302912E+00
         -1   -1    0    0    0  501 -0.00000000000E+00  0.00000000000E+00  0.20071987514E+03  0.20071987519E+03  0.46700000000E-02 0.  1.
          1   -1    0    0  501    0  0.00000000000E+00 -0.00000000000E+00 -0.10083084883E+02  0.10083085964E+02  0.46700000000E-02 0. -1.
         23    2    1    2    0    0  0.00000000000E+00  0.00000000000E+00  0.19063679026E+03  0.21080296116E+03  0.89975011163E+02 0.  0.
        -13    1    3    3    0    0 -0.14097673034E+02  0.32770353677E+02  0.15953384525E+03  0.16347384934E+03  0.10570000000E+00 0.  1.
         13    1    3    3    0    0  0.14097673034E+02 -0.32770353677E+02  0.31102945009E+02  0.47329111821E+02  0.10570000000E+00 0. -1.
<mgrwt>
<rscale>  0 0.89975011E+02</rscale>
<asrwt>0</asrwt>
<pdfrwt beam="2">  1        1 0.15512441E-02 0.89975011E+02</pdfrwt>
<pdfrwt beam="1">  1       -1 0.30879978E-01 0.89975011E+02</pdfrwt>
<totfact> 0.71790282E+04</totfact>
</mgrwt>
</event>
<event>
 5   1  0.1388354E+00  0.9459602E+02  0.7818608E-02  0.1292089E+00
         -1   -1    0    0    0  501 -0.00000000000E+00  0.00000000000E+00  0.54823137926E+02  0.54823138125E+02  0.46700000000E-02 0.  1.
          1   -1    0    0  501    0  0.00000000000E+00 -0.00000000000E+00 -0.40805795865E+02  0.40805796132E+02  0.46700000000E-02 0. -1.
         23    2    1    2    0    0  0.00000000000E+00  0.00000000000E+00  0.14017342061E+02  0.95628934257E+02  0.94596020998E+02 0.  0.
        -13    1    3    3    0    0 -0.58942218409E+01  0.41478879906E+02  0.29199471179E+02  0.51067206885E+02  0.10570000000E+00 0.  1.
         13    1    3    3    0    0  0.58942218409E+01 -0.41478879906E+02 -0.15182129119E+02  0.44561727373E+02  0.10570000000E+00 0. -1.
<mgrwt>
<rscale>  0 0.94596021E+02</rscale>
<asrwt>0</asrwt>
<pdfrwt beam="2">  1        1 0.62778148E-02 0.94596021E+02</pdfrwt>
<pdfrwt beam="1">  1       -1 0.84343290E-02 0.94596021E+02</pdfrwt>
<totfact> 0.81930792E+04</totfact>
</mgrwt>
</event>
<event>
 5   1  0.1388354E+00  0.9560980E+02  0.7818608E-02  0.1289809E+00
         -1   -1    0    0    0  501 -0.00000000000E+00  0.00000000000E+00  0.19135117942E+02  0.19135118512E+02  0.46700000000E-02 0.  1.
          1   -1    0    0  501    0  0.00000000000E+00 -0.00000000000E+00 -0.11943006097E+03  0.11943006106E+03  0.46700000000E-02 0. -1.
         23    2    1    2    0    0  0.00000000000E+00  0.00000000000E+00 -0.10029494303E+03  0.13856517957E+03  0.95609797580E+02 0.  0.
        -13    1    3    3    0    0 -0.23446523808E+02 -0.11860822296E+00 -0.11052418624E+03  0.11298389470E+03  0.10570000000E+00 0. -1.
         13    1    3    3    0    0  0.23446523808E+02  0.11860822296E+00  0.10229243207E+02  0.25581284871E+02  0.10570000000E+00 0.  1.
<mgrwt>
<rscale>  0 0.95609798E+02</rscale>
<asrwt>0</asrwt>
<pdfrwt beam="2">  1        1 0.18373855E-01 0.95609798E+02</pdfrwt>
<pdfrwt beam="1">  1       -1 0.29438644E-02 0.95609798E+02</pdfrwt>
<totfact> 0.94597116E+04</totfact>
</mgrwt>
</event>
<event>
 5   1  0.1388354E+00  0.9035321E+02  0.7818608E-02  0.1301999E+00
          1   -1    0    0  501    0  0.00000000000E+00  0.00000000000E+00  0.79903213502E+02  0.79903213639E+02  0.46700000000E-02 0. -1.
         -1   -1    0    0    0  501 -0.00000000000E+00 -0.00000000000E+00 -0.25542473753E+02  0.25542474180E+02  0.46700000000E-02 0.  1.
         23    2    1    2    0    0  0.00000000000E+00  0.00000000000E+00  0.54360739749E+02  0.10544568782E+03  0.90353212746E+02 0.  0.
        -13    1    3    3    0    0 -0.41937291624E+02 -0.15319367988E+02  0.19137523950E+02  0.48576490813E+02  0.10570000000E+00 0. -1.
         13    1    3    3    0    0  0.41937291624E+02  0.15319367988E+02  0.35223215799E+02  0.56869197005E+02  0.10570000000E+00 0.  1.
<mgrwt>
<rscale>  0 0.90353213E+02</rscale>
<asrwt>0</asrwt>
<pdfrwt beam="1">  1        1 0.12292802E-01 0.90353213E+02</pdfrwt>
<pdfrwt beam="2">  1       -1 0.39296114E-02 0.90353213E+02</pdfrwt>
<totfact> 0.10326202E+05</totfact>
</mgrwt>
</event>
<event>
 5   1  0.1388354E+00  0.8686895E+02  0.7818608E-02  0.1310616E+00
          1   -1    0    0  501    0  0.00000000000E+00  0.00000000000E+00  0.23542154576E+03  0.23542154581E+03  0.46700000000E-02 0. -1.
         -1   -1    0    0    0  501 -0.00000000000E+00 -0.00000000000E+00 -0.80135130069E+01  0.80135143676E+01  0.46700000000E-02 0.  1.
         23    2    1    2    0    0  0.00000000000E+00  0.00000000000E+00  0.22740803276E+03  0.24343506018E+03  0.86868953955E+02 0.  0.
        -13    1    3    3    0    0 -0.22073347385E+02 -0.30558702599E+02  0.17416385973E+03  0.17819688038E+03  0.10570000000E+00 0. -1.
         13    1    3    3    0    0  0.22073347385E+02  0.30558702599E+02  0.53244173028E+02  0.65238179797E+02  0.10570000000E+00 0.  1.
<mgrwt>
<rscale>  0 0.86868954E+02</rscale>
<asrwt>0</asrwt>
<pdfrwt beam="1">  1        1 0.36218701E-01 0.86868954E+02</pdfrwt>
<pdfrwt beam="2">  1       -1 0.12328482E-02 0.86868954E+02</pdfrwt>
<totfact> 0.13906126E+05</totfact>
</mgrwt>
</event>
<event>
 5   1  0.1388354E+00  0.9137009E+02  0.7818608E-02  0.1299567E+00
         -1   -1    0    0    0  501 -0.00000000000E+00  0.00000000000E+00  0.20052837363E+03  0.20052837369E+03  0.46700000000E-02 0.  1.
          1   -1    0    0  501    0  0.00000000000E+00 -0.00000000000E+00 -0.10408119416E+02  0.10408120464E+02  0.46700000000E-02 0. -1.
         23    2    1    2    0    0  0.00000000000E+00  0.00000000000E+00  0.19012025422E+03  0.21093649415E+03  0.91370090847E+02 0.  0.
        -13    1    3    3    0    0  0.12461092951E+01  0.39229246365E+02  0.14903512921E+03  0.15411673326E+03  0.10570000000E+00 0.  1.
         13    1    3    3    0    0 -0.12461092951E+01 -0.39229246365E+02  0.41085125007E+02  0.56819760894E+02  0.10570000000E+00 0. -1.
<mgrwt>
<rscale>  0 0.91370091E+02</rscale>
<asrwt>0</asrwt>
<pdfrwt beam="2">  1        1 0.16012494E-02 0.91370091E+02</pdfrwt>
<pdfrwt beam="1">  1       -1 0.30850516E-01 0.91370091E+02</pdfrwt>
<totfact> 0.68990158E+04</totfact>
</mgrwt>
</event>
<event>
 4   1  0.1388354E+00  0.1413159E+03  0.7818608E-02  0.1211569E+00
          1   -1    0    0  501    0  0.00000000000E+00  0.00000000000E+00  0.38817383241E+02  0.38817383522E+02  0.46700000000E-02 0. -1.
         -1   -1    0    0    0  501 -0.00000000000E+00 -0.00000000000E+00 -0.12861620123E+03  0.12861620131E+03  0.46700000000E-02 0.  1.
        -13    1    1    2    0    0  0.36908465471E+02 -0.33622341346E+01 -0.11617577199E+03  0.12194408806E+03  0.10570000000E+00 0.  1.
         13    1    1    2    0    0 -0.36908465471E+02  0.33622341346E+01  0.26376954006E+02  0.45489496776E+02  0.10570000000E+00 0. -1.
<mgrwt>
<rscale>  0 0.14131588E+03</rscale>
<asrwt>0</asrwt>
<pdfrwt beam="1">  1        1 0.59719052E-02 0.14131588E+03</pdfrwt>
<pdfrwt beam="2">  1       -1 0.19787108E-01 0.14131588E+03</pdfrwt>
<totfact> 0.24708025E+04</totfact>
</mgrwt>
</event>
<event>
 5   1  0.1388354E+00  0.9232320E+02  0.7818608E-02  0.1297321E+00
         -1   -1    0    0    0  501 -0.00000000000E+00  0.00000000000E+00  0.50374163271E+02  0.50374163487E+02  0.46700000000E-02 0.  1.
          1   -1    0    0  501    0  0.00000000000E+00 -0.00000000000E+00 -0.42301314425E+02  0.42301314683E+02  0.46700000000E-02 0. -1.
         23    2    1    2    0    0  0.00000000000E+00  0.00000000000E+00  0.80728488459E+01  0.92675478170E+02  0.92323200581E+02 0.  0.
        -13    1    3    3    0    0  0.20823836015E+02  0.41101075716E+02  0.68670418597E+01  0.46584310747E+02  0.10570000000E+00 0.  1.
         13    1    3    3    0    0 -0.20823836015E+02 -0.41101075716E+02  0.12058069862E+01  0.46091167423E+02  0.10570000000E+00 0. -1.
<mgrwt>
<rscale>  0 0.92323201E+02</rscale>
<asrwt>0</asrwt>
<pdfrwt beam="2">  1        1 0.65078946E-02 0.92323201E+02</pdfrwt>
<pdfrwt beam="1">  1       -1 0.77498713E-02 0.92323201E+02</pdfrwt>
<totfact> 0.88266838E+04</totfact>
</mgrwt>
</event>
<event>
 5   1  0.1388354E+00  0.9337700E+02  0.7818608E-02  0.1294874E+00
          1   -1    0    0  501    0  0.00000000000E+00  0.00000000000E+00  0.12709820625E+03  0.12709820633E+03  0.46700000000E-02 0. -1.
         -1   -1    0    0    0  501 -0.00000000000E+00 -0.00000000000E+00 -0.17150644909E+02  0.17150645544E+02  0.46700000000E-02 0.  1.
         23    2    1    2    0    0  0.00000000000E+00  0.00000000000E+00  0.10994756134E+03  0.14424885188E+03  0.93377004791E+02 0.  0.
        -13    1    3    3    0    0  0.12072089789E+02 -0.36242168284E+02  0.96441677758E+02  0.10373156942E+03  0.10570000000E+00 0.  1.
         13    1    3    3    0    0 -0.12072089789E+02  0.36242168284E+02  0.13505883583E+02  0.40517282456E+02  0.10570000000E+00 0. -1.
<mgrwt>
<rscale>  0 0.93377005E+02</rscale>
<asrwt>0</asrwt>
<pdfrwt beam="1">  1        1 0.19553569E-01 0.93377005E+02</pdfrwt>
<pdfrwt beam="2">  1       -1 0.26385609E-02 0.93377005E+02</pdfrwt>
<totfact> 0.10200969E+05</totfact>
</mgrwt>
</event>
<event>
 5   1  0.1388354E+00  0.6152382E+02  0.7818608E-02  0.1391546E+00
          1   -1    0    0  501    0  0.00000000000E+00  0.00000000000E+00  0.63850922730E+02  0.63850922901E+02  0.46700000000E-02 0. -1.
         -1   -1    0    0    0  501 -0.00000000000E+00 -0.00000000000E+00 -0.14820380452E+02  0.14820381187E+02  0.46700000000E-02 0.  1.
         23    2    1    2    0    0  0.00000000000E+00  0.00000000000E+00  0.49030542279E+02  0.78671304088E+02  0.61523816615E+02 0.  0.
        -13    1    3    3    0    0 -0.18239335022E+02 -0.21825996941E+02  0.95354146437E+01  0.29999713156E+02  0.10570000000E+00 0.  1.
         13    1    3    3    0    0  0.18239335022E+02  0.21825996941E+02  0.39495127635E+02  0.48671590933E+02  0.10570000000E+00 0. -1.
<mgrwt>
<rscale>  0 0.61523817E+02</rscale>
<asrwt>0</asrwt>
<pdfrwt beam="1">  1        1 0.98232191E-02 0.61523817E+02</pdfrwt>
<pdfrwt beam="2">  1       -1 0.22800586E-02 0.61523817E+02</pdfrwt>
<totfact> 0.28018140E+05</totfact>
</mgrwt>
</event>
<event>
 5   1  0.1388354E+00  0.9287791E+02  0.7818608E-02  0.1296028E+00
         -1   -1    0    0    0  501 -0.00000000000E+00  0.00000000000E+00  0.15583738406E+03  0.15583738413E+03  0.46700000000E-02 0.  1.
          1   -1    0    0  501    0  0.00000000000E+00 -0.00000000000E+00 -0.13838633868E+02  0.13838634656E+02  0.46700000000E-02 0. -1.
         23    2    1    2    0    0  0.00000000000E+00  0.00000000000E+00  0.14199875020E+03  0.16967601879E+03  0.92877910696E+02 0.  0.
        -13    1    3    3    0    0 -0.45605975536E+02 -0.20570634046E+01  0.86546995675E+02  0.97849528089E+02  0.10570000000E+00 0.  1.
         13    1    3    3    0    0  0.45605975536E+02  0.20570634046E+01  0.55451754521E+02  0.71826490701E+02  0.10570000000E+00 0. -1.
<mgrwt>
<rscale>  0 0.92877911E+02</rscale>
<asrwt>0</asrwt>
<pdfrwt beam="2">  1        1 0.21290205E-02 0.92877911E+02</pdfrwt>
<pdfrwt beam="1">  1       -1 0.23974984E-01 0.92877911E+02</pdfrwt>
<totfact> 0.70636252E+04</totfact>
</mgrwt>
</event>
<event>
 5   1  0.1388354E+00  0.8950492E+02  0.7818608E-02  0.1304055E+00
         -1   -1    0    0    0  501 -0.00000000000E+00  0.00000000000E+00  0.13221494874E+02  0.13221495699E+02  0.46700000000E-02 0.  1.
          1   -1    0    0  501    0  0.00000000000E+00 -0.00000000000E+00 -0.15147928127E+03  0.15147928134E+03  0.46700000000E-02 0. -1.
         23    2    1    2    0    0  0.00000000000E+00  0.00000000000E+00 -0.13825778640E+03  0.16470077704E+03  0.89504918629E+02 0.  0.
        -13    1    3    3    0    0  0.36555723523E+02  0.21099830468E+02 -0.41758054643E+02  0.59373984775E+02  0.10570000000E+00 0.  1.
         13    1    3    3    0    0 -0.36555723523E+02 -0.21099830468E+02 -0.96499731756E+02  0.10532679227E+03  0.10570000000E+00 0. -1.
<mgrwt>
<rscale>  0 0.89504919E+02</rscale>
<asrwt>0</asrwt>
<pdfrwt beam="2">  1        1 0.23304504E-01 0.89504919E+02</pdfrwt>
<pdfrwt beam="1">  1       -1 0.20340763E-02 0.89504919E+02</pdfrwt>
<totfact> 0.11807475E+05</totfact>
</mgrwt>
</event>
<event>
 5   1  0.1388354E+00  0.9129841E+02  0.7818608E-02  0.1299738E+00
         -1   -1    0    0    0  501 -0.00000000000E+00  0.00000000000E+00  0.10673510471E+02  0.10673511493E+02  0.46700000000E-02 0.  1.
          1   -1    0    0  501    0  0.00000000000E+00 -0.00000000000E+00 -0.19523564320E+03  0.19523564325E+03  0.46700000000E-02 0. -1.
         23    2    1    2    0    0  0.00000000000E+00  0.00000000000E+00 -0.18456213273E+03  0.20590915475E+03  0.91298407279E+02 0.  0.
        -13    1    3    3    0    0 -0.32188006835E+01 -0.38418230414E+02 -0.14741103870E+03  0.15236911304E+03  0.10570000000E+00 0. -1.
         13    1    3    3    0    0  0.32188006835E+01  0.38418230414E+02 -0.37151094030E+02  0.53540041708E+02  0.10570000000E+00 0.  1.
<mgrwt>
<rscale>  0 0.91298407E+02</rscale>
<asrwt>0</asrwt>
<pdfrwt beam="2">  1        1 0.30036250E-01 0.91298407E+02</pdfrwt>
<pdfrwt beam="1">  1       -1 0.16420788E-02 0.91298407E+02</pdfrwt>
<totfact> 0.11743341E+05</totfact>
</mgrwt>
</event>
<event>
 5   1  0.1388354E+00  0.9037717E+02  0.7818608E-02  0.1301941E+00
         -1   -1    0    0    0  501 -0.00000000000E+00  0.00000000000E+00  0.12566383606E+03  0.12566383615E+03  0.46700000000E-02 0.  1.
          1   -1    0    0  501    0  0.00000000000E+00 -0.00000000000E+00 -0.16249767706E+02  0.16249768377E+02  0.46700000000E-02 0. -1.
         23    2    1    2    0    0  0.00000000000E+00  0.00000000000E+00  0.10941406835E+03  0.14191360452E+03  0.90377169657E+02 0.  0.
        -13    1    3    3    0    0 -0.24585527132E+02 -0.53424178039E+01  0.11364863677E+03  0.11640022931E+03  0.10570000000E+00 0.  1.
         13    1    3    3    0    0  0.24585527132E+02  0.53424178039E+01 -0.42345684170E+01  0.25513375209E+02  0.10570000000E+00 0. -1.
<mgrwt>
<rscale>  0 0.90377170E+02</rscale>
<asrwt>0</asrwt>
<pdfrwt beam="2">  1        1 0.24999643E-02 0.90377170E+02</pdfrwt>
<pdfrwt beam="1">  1       -1 0.19332898E-01 0.90377170E+02</pdfrwt>
<totfact> 0.79574928E+04</totfact>
</mgrwt>
</event>
<event>
 5   1  0.1388354E+00  0.9191431E+02  0.7818608E-02  0.1298281E+00
          1   -1    0    0  501    0  0.00000000000E+00  0.00000000000E+00  0.69665492117E+02  0.69665492274E+02  0.46700000000E-02 0. -1.
         -1   -1    0    0    0  501 -0.00000000000E+00 -0.00000000000E+00 -0.30317162992E+02  0.30317163352E+02  0.46700000000E-02 0.  1.
         23    2    1    2    0    0  0.00000000000E+00  0.00000000000E+00  0.39348329125E+02  0.99982655626E+02  0.91914310208E+02 0.  0.
        -13    1    3    3    0    0 -0.75614159479E+01 -0.33158905332E+02 -0.13947969174E+02  0.36759284957E+02  0.10570000000E+00 0.  1.
         13    1    3    3    0    0  0.75614159479E+01  0.33158905332E+02  0.53296298299E+02  0.63223370670E+02  0.10570000000E+00 0. -1.
<mgrwt>
<rscale>  0 0.91914310E+02</rscale>
<asrwt>0</asrwt>
<pdfrwt beam="1">  1        1 0.10717768E-01 0.91914310E+02</pdfrwt>
<pdfrwt beam="2">  1       -1 0.46641790E-02 0.91914310E+02</pdfrwt>
<totfact> 0.96424051E+04</totfact>
</mgrwt>
</event>
<event>
 5   1  0.1388354E+00  0.9260756E+02  0.7818608E-02  0.1296657E+00
          1   -1    0    0  501    0  0.00000000000E+00  0.00000000000E+00  0.18827772902E+03  0.18827772908E+03  0.46700000000E-02 0. -1.
         -1   -1    0    0    0  501 -0.00000000000E+00 -0.00000000000E+00 -0.11387644705E+02  0.11387645663E+02  0.46700000000E-02 0.  1.
         23    2    1    2    0    0  0.00000000000E+00  0.00000000000E+00  0.17689008431E+03  0.19966537474E+03  0.92607558771E+02 0.  0.
        -13    1    3    3    0    0 -0.87825649886E+01 -0.44536514770E+02  0.68756013548E+02  0.82389533116E+02  0.10570000000E+00 0.  1.
         13    1    3    3    0    0  0.87825649886E+01  0.44536514770E+02  0.10813407077E+03  0.11727584162E+03  0.10570000000E+00 0. -1.
<mgrwt>
<rscale>  0 0.92607559E+02</rscale>
<asrwt>0</asrwt>
<pdfrwt beam="1">  1        1 0.28965804E-01 0.92607559E+02</pdfrwt>
<pdfrwt beam="2">  1       -1 0.17519455E-02 0.92607559E+02</pdfrwt>
<totfact> 0.11223263E+05</totfact>
</mgrwt>
</event>
<event>
 5   1  0.1388354E+00  0.8246470E+02  0.7818608E-02  0.1322199E+00
          1   -1    0    0  501    0  0.00000000000E+00  0.00000000000E+00  0.15516766327E+03  0.15516766334E+03  0.46700000000E-02 0. -1.
         -1   -1    0    0    0  501 -0.00000000000E+00 -0.00000000000E+00 -0.10956578608E+02  0.10956579603E+02  0.46700000000E-02 0.  1.
         23    2    1    2    0    0  0.00000000000E+00  0.00000000000E+00  0.14421108466E+03  0.16612424294E+03  0.82464702473E+02 0.  0.
        -13    1    3    3    0    0  0.27370348830E+02 -0.30414278226E+02  0.61847202765E+02  0.74156941533E+02  0.10570000000E+00 0.  1.
         13    1    3    3    0    0 -0.27370348830E+02  0.30414278226E+02  0.82363881899E+02  0.91967301412E+02  0.10570000000E+00 0. -1.
<mgrwt>
<rscale>  0 0.82464702E+02</rscale>
<asrwt>0</asrwt>
<pdfrwt beam="1">  1        1 0.23871948E-01 0.82464702E+02</pdfrwt>
<pdfrwt beam="2">  1       -1 0.16856276E-02 0.82464702E+02</pdfrwt>
<totfact> 0.14766100E+05</totfact>
</mgrwt>
</event>
<event>
 5   1  0.1388354E+00  0.9252637E+02  0.7818608E-02  0.1296847E+00
         -1   -1    0    0    0  501 -0.00000000000E+00  0.00000000000E+00  0.48845210452E+02  0.48845210675E+02  0.46700000000E-02 0.  1.
          1   -1    0    0  501    0  0.00000000000E+00 -0.00000000000E+00 -0.43817645513E+02  0.43817645761E+02  0.46700000000E-02 0. -1.
         23    2    1    2    0    0  0.00000000000E+00  0.00000000000E+00  0.50275649392E+01  0.92662856437E+02  0.92526366803E+02 0.  0.
        -13    1    3    3    0    0 -0.15421196542E+02  0.28409981765E+02 -0.30630817717E+02  0.44533117264E+02  0.10570000000E+00 0. -1.
         13    1    3    3    0    0  0.15421196542E+02 -0.28409981765E+02  0.35658382657E+02  0.48129739173E+02  0.10570000000E+00 0.  1.
<mgrwt>
<rscale>  0 0.92526367E+02</rscale>
<asrwt>0</asrwt>
<pdfrwt beam="2">  1        1 0.67411762E-02 0.92526367E+02</pdfrwt>
<pdfrwt beam="1">  1       -1 0.75146478E-02 0.92526367E+02</pdfrwt>
<totfact> 0.88193842E+04</totfact>
</mgrwt>
</event>
<event>
 5   1  0.1388354E+00  0.9461535E+02  0.7818608E-02  0.1292045E+00
          1   -1    0    0  501    0  0.00000000000E+00  0.00000000000E+00  0.36335623819E+02  0.36335624119E+02  0.46700000000E-02 0. -1.
         -1   -1    0    0    0  501 -0.00000000000E+00 -0.00000000000E+00 -0.61592885350E+02  0.61592885527E+02  0.46700000000E-02 0.  1.
         23    2    1    2    0    0  0.00000000000E+00  0.00000000000E+00 -0.25257261530E+02  0.97928509646E+02  0.94615346226E+02 0.  0.
        -13    1    3    3    0    0 -0.34312786423E+02 -0.25089543407E+02  0.88626796413E+01  0.43421316924E+02  0.10570000000E+00 0. -1.
         13    1    3    3    0    0  0.34312786423E+02  0.25089543407E+02 -0.34119941172E+02  0.54507192723E+02  0.10570000000E+00 0.  1.
<mgrwt>
<rscale>  0 0.94615346E+02</rscale>
<asrwt>0</asrwt>
<pdfrwt beam="1">  1        1 0.55900960E-02 0.94615346E+02</pdfrwt>
<pdfrwt beam="2">  1       -1 0.94758286E-02 0.94615346E+02</pdfrwt>
<totfact> 0.80391030E+04</totfact>
</mgrwt>
</event>
<event>
 5   1  0.1388354E+00  0.9105038E+02  0.7818608E-02  0.1300328E+00
          1   -1    0    0  501    0  0.00000000000E+00  0.00000000000E+00  0.51395127087E+02  0.51395127299E+02  0.46700000000E-02 0. -1.
         -1   -1    0    0    0  501 -0.00000000000E+00 -0.00000000000E+00 -0.40325667568E+02  0.40325667839E+02  0.46700000000E-02 0.  1.
         23    2    1    2    0    0  0.00000000000E+00  0.00000000000E+00  0.11069459519E+02  0.91720795138E+02  0.91050377960E+02 0.  0.
        -13    1    3    3    0    0 -0.47334527361E+01  0.44239260483E+02  0.15250114935E+02  0.47032913166E+02  0.10570000000E+00 0. -1.
         13    1    3    3    0    0  0.47334527361E+01 -0.44239260483E+02 -0.41806554165E+01  0.44687881972E+02  0.10570000000E+00 0.  1.
<mgrwt>
<rscale>  0 0.91050378E+02</rscale>
<asrwt>0</asrwt>
<pdfrwt beam="1">  1        1 0.79069426E-02 0.91050378E+02</pdfrwt>
<pdfrwt beam="2">  1       -1 0.62039489E-02 0.91050378E+02</pdfrwt>
<totfact> 0.94517915E+04</totfact>
</mgrwt>
</event>
<event>
 5   1  0.1388354E+00  0.9009821E+02  0.7818608E-02  0.1302614E+00
          1   -1    0    0  501    0  0.00000000000E+00  0.00000000000E+00  0.11874142012E+03  0.11874142021E+03  0.46700000000E-02 0. -1.
         -1   -1    0    0    0  501 -0.00000000000E+00 -0.00000000000E+00 -0.17091101481E+02  0.17091102119E+02  0.46700000000E-02 0.  1.
         23    2    1    2    0    0  0.00000000000E+00  0.00000000000E+00  0.10165031864E+03  0.13583252233E+03  0.90098206662E+02 0.  0.
        -13    1    3    3    0    0  0.14859095495E+02 -0.41353924530E+02  0.65785491321E+02  0.79111831187E+02  0.10570000000E+00 0. -1.
         13    1    3    3    0    0 -0.14859095495E+02  0.41353924530E+02  0.35864827319E+02  0.56720691146E+02  0.10570000000E+00 0.  1.
<mgrwt>
<rscale>  0 0.90098207E+02</rscale>
<asrwt>0</asrwt>
<pdfrwt beam="1">  1        1 0.18267911E-01 0.90098207E+02</pdfrwt>
<pdfrwt beam="2">  1       -1 0.26294003E-02 0.90098207E+02</pdfrwt>
<totfact> 0.11106538E+05</totfact>
</mgrwt>
</event>
<event>
 5   1  0.1388354E+00  0.9225825E+02  0.7818608E-02  0.1297473E+00
          1   -1    0    0  501    0  0.00000000000E+00  0.00000000000E+00  0.31928662490E+03  0.31928662494E+03  0.46700000000E-02 0. -1.
         -1   -1    0    0    0  501 -0.00000000000E+00 -0.00000000000E+00 -0.66645313315E+01  0.66645329677E+01  0.46700000000E-02 0.  1.
         23    2    1    2    0    0  0.00000000000E+00  0.00000000000E+00  0.31262209357E+03  0.32595115791E+03  0.92258245976E+02 0.  0.
        -13    1    3    3    0    0  0.40141417493E+02 -0.18180091494E+02  0.20449977553E+03  0.20919373435E+03  0.10570000000E+00 0. -1.
         13    1    3    3    0    0 -0.40141417493E+02  0.18180091494E+02  0.10812231804E+03  0.11675742356E+03  0.10570000000E+00 0.  1.
<mgrwt>
<rscale>  0 0.92258246E+02</rscale>
<asrwt>0</asrwt>
<pdfrwt beam="1">  1        1 0.49121014E-01 0.92258246E+02</pdfrwt>
<pdfrwt beam="2">  1       -1 0.10253128E-02 0.92258246E+02</pdfrwt>
<totfact> 0.12562635E+05</totfact>
</mgrwt>
</event>
<event>
 5   1  0.1388354E+00  0.9111197E+02  0.7818608E-02  0.1300181E+00
          1   -1    0    0  501    0  0.00000000000E+00  0.00000000000E+00  0.44791084200E+02  0.44791084443E+02  0.46700000000E-02 0. -1.
         -1   -1    0    0    0  501 -0.00000000000E+00 -0.00000000000E+00 -0.46333943927E+02  0.46333944162E+02  0.46700000000E-02 0.  1.
         23    2    1    2    0    0  0.00000000000E+00  0.00000000000E+00 -0.15428597271E+01  0.91125028605E+02  0.91111966405E+02 0.  0.
        -13    1    3    3    0    0 -0.67269647775E+01  0.33731644581E+02  0.29103582884E+02  0.45056693293E+02  0.10570000000E+00 0. -1.
         13    1    3    3    0    0  0.67269647775E+01 -0.33731644581E+02 -0.30646442612E+02  0.46068335313E+02  0.10570000000E+00 0.  1.
<mgrwt>
<rscale>  0 0.91111966E+02</rscale>
<asrwt>0</asrwt>
<pdfrwt beam="1">  1        1 0.68909361E-02 0.91111966E+02</pdfrwt>
<pdfrwt beam="2">  1       -1 0.71282991E-02 0.91111966E+02</pdfrwt>
<totfact> 0.92411949E+04</totfact>
</mgrwt>
</event>
<event>
 5   1  0.1388354E+00  0.9386853E+02  0.7818608E-02  0.1293745E+00
          1   -1    0    0  501    0  0.00000000000E+00  0.00000000000E+00  0.14053119297E+02  0.14053120073E+02  0.46700000000E-02 0. -1.
         -1   -1    0    0    0  501 -0.00000000000E+00 -0.00000000000E+00 -0.15674991393E+03  0.15674991400E+03  0.46700000000E-02 0.  1.
         23    2    1    2    0    0  0.00000000000E+00  0.00000000000E+00 -0.14269679463E+03  0.17080303407E+03  0.93868531735E+02 0.  0.
        -13    1    3    3    0    0 -0.34772404198E+02  0.18981828377E+02 -0.11714246081E+03  0.12366000647E+03  0.10570000000E+00 0.  1.
         13    1    3    3    0    0  0.34772404198E+02 -0.18981828377E+02 -0.25554333822E+02  0.47143027605E+02  0.10570000000E+00 0. -1.
<mgrwt>
<rscale>  0 0.93868532E+02</rscale>
<asrwt>0</asrwt>
<pdfrwt beam="1">  1        1 0.21620185E-02 0.93868532E+02</pdfrwt>
<pdfrwt beam="2">  1       -1 0.24115370E-01 0.93868532E+02</pdfrwt>
<totfact> 0.68616011E+04</totfact>
</mgrwt>
</event>
<event>
 5   1  0.1388354E+00  0.9363766E+02  0.7818608E-02  0.1294274E+00
         -1   -1    0    0    0  501 -0.00000000000E+00  0.00000000000E+00  0.43301304287E+01  0.43301329470E+01  0.46700000000E-02 0.  1.
          1   -1    0    0  501    0  0.00000000000E+00 -0.00000000000E+00 -0.50622086449E+03  0.50622086451E+03  0.46700000000E-02 0. -1.
         23    2    1    2    0    0  0.00000000000E+00  0.00000000000E+00 -0.50189073406E+03  0.51055099746E+03  0.93637663733E+02 0.  0.
        -13    1    3    3    0    0 -0.38873297222E+02 -0.26081157554E+02 -0.25527935977E+03  0.25953597575E+03  0.10570000000E+00 0.  1.
         13    1    3    3    0    0  0.38873297222E+02  0.26081157554E+02 -0.24661137430E+03  0.25101502171E+03  0.10570000000E+00 0. -1.
<mgrwt>
<rscale>  0 0.93637664E+02</rscale>
<asrwt>0</asrwt>
<pdfrwt beam="2">  1        1 0.77880087E-01 0.93637664E+02</pdfrwt>
<pdfrwt beam="1">  1       -1 0.66617451E-03 0.93637664E+02</pdfrwt>
<totfact> 0.12994817E+05</totfact>
</mgrwt>
</event>
<event>
 5   1  0.1388354E+00  0.8911628E+02  0.7818608E-02  0.1305006E+00
          1   -1    0    0  501    0  0.00000000000E+00  0.00000000000E+00  0.15173876564E+02  0.15173877282E+02  0.46700000000E-02 0. -1.
         -1   -1    0    0    0  501 -0.00000000000E+00 -0.00000000000E+00 -0.13084513785E+03  0.13084513794E+03  0.46700000000E-02 0.  1.
         23    2    1    2    0    0  0.00000000000E+00  0.00000000000E+00 -0.11567126129E+03  0.14601901522E+03  0.89116284242E+02 0.  0.
        -13    1    3    3    0    0  0.30919546167E+02 -0.17850827678E+02 -0.14152907744E+02  0.38405551084E+02  0.10570000000E+00 0. -1.
         13    1    3    3    0    0 -0.30919546167E+02  0.17850827678E+02 -0.10151835354E+03  0.10761346413E+03  0.10570000000E+00 0.  1.
<mgrwt>
<rscale>  0 0.89116284E+02</rscale>
<asrwt>0</asrwt>
<pdfrwt beam="1">  1        1 0.23344427E-02 0.89116284E+02</pdfrwt>
<pdfrwt beam="2">  1       -1 0.20130020E-01 0.89116284E+02</pdfrwt>
<totfact> 0.81813496E+04</totfact>
</mgrwt>
</event>
<event>
 5   1  0.1388354E+00  0.8582413E+02  0.7818608E-02  0.1313291E+00
          1   -1    0    0  501    0  0.00000000000E+00  0.00000000000E+00  0.82086585895E+02  0.82086586028E+02  0.46700000000E-02 0. -1.
         -1   -1    0    0    0  501 -0.00000000000E+00 -0.00000000000E+00 -0.22432962654E+02  0.22432963140E+02  0.46700000000E-02 0.  1.
         23    2    1    2    0    0  0.00000000000E+00  0.00000000000E+00  0.59653623240E+02  0.10451954917E+03  0.85824130596E+02 0.  0.
        -13    1    3    3    0    0  0.15962050879E+02 -0.39832672934E+02  0.29738366525E+02  0.52209295315E+02  0.10570000000E+00 0.  1.
         13    1    3    3    0    0 -0.15962050879E+02  0.39832672934E+02  0.29915256716E+02  0.52310253853E+02  0.10570000000E+00 0. -1.
<mgrwt>
<rscale>  0 0.85824131E+02</rscale>
<asrwt>0</asrwt>
<pdfrwt beam="1">  1        1 0.12628705E-01 0.85824131E+02</pdfrwt>
<pdfrwt beam="2">  1       -1 0.34512251E-02 0.85824131E+02</pdfrwt>
<totfact> 0.11931567E+05</totfact>
</mgrwt>
</event>
<event>
 5   1  0.1388354E+00  0.8830284E+02  0.7818608E-02  0.1307014E+00
          1   -1    0    0  501    0  0.00000000000E+00  0.00000000000E+00  0.77908229848E+02  0.77908229988E+02  0.46700000000E-02 0. -1.
         -1   -1    0    0    0  501 -0.00000000000E+00 -0.00000000000E+00 -0.25021078887E+02  0.25021079323E+02  0.46700000000E-02 0.  1.
         23    2    1    2    0    0  0.00000000000E+00  0.00000000000E+00  0.52887150961E+02  0.10292930931E+03  0.88302842415E+02 0.  0.
        -13    1    3    3    0    0 -0.18125136655E+02 -0.37215536660E+02  0.44343646794E+02  0.60662071602E+02  0.10570000000E+00 0. -1.
         13    1    3    3    0    0  0.18125136655E+02  0.37215536660E+02  0.85435041669E+01  0.42267237709E+02  0.10570000000E+00 0.  1.
<mgrwt>
<rscale>  0 0.88302842E+02</rscale>
<asrwt>0</asrwt>
<pdfrwt beam="1">  1        1 0.11985882E-01 0.88302842E+02</pdfrwt>
<pdfrwt beam="2">  1       -1 0.38493968E-02 0.88302842E+02</pdfrwt>
<totfact> 0.10952297E+05</totfact>
</mgrwt>
</event>
<event>
 5   1  0.1388354E+00  0.9141977E+02  0.7818608E-02  0.1299449E+00
         -1   -1    0    0    0  501 -0.00000000000E+00  0.00000000000E+00  0.16381792932E+02  0.16381793598E+02  0.46700000000E-02 0.  1.
          1   -1    0    0  501    0  0.00000000000E+00 -0.00000000000E+00 -0.12754364559E+03  0.12754364567E+03  0.46700000000E-02 0. -1.
         23    2    1    2    0    0  0.00000000000E+00  0.00000000000E+00 -0.11116185265E+03  0.14392543927E+03  0.91419771294E+02 0.  0.
        -13    1    3    3    0    0 -0.22769547243E+02 -0.38004785057E+02 -0.37869365860E+02  0.58283067970E+02  0.10570000000E+00 0.  1.
         13    1    3    3    0    0  0.22769547243E+02  0.38004785057E+02 -0.73292486794E+02  0.85642371300E+02  0.10570000000E+00 0. -1.
<mgrwt>
<rscale>  0 0.91419771E+02</rscale>
<asrwt>0</asrwt>
<pdfrwt beam="2">  1        1 0.19622099E-01 0.91419771E+02</pdfrwt>
<pdfrwt beam="1">  1       -1 0.25202760E-02 0.91419771E+02</pdfrwt>
<totfact> 0.10811523E+05</totfact>
</mgrwt>
</event>
<event>
 5   1  0.1388354E+00  0.9404978E+02  0.7818608E-02  0.1293331E+00
         -1   -1    0    0    0  501 -0.00000000000E+00  0.00000000000E+00  0.19183488889E+03  0.19183488895E+03  0.46700000000E-02 0.  1.
          1   -1    0    0  501    0  0.00000000000E+00 -0.00000000000E+00 -0.11527308948E+02  0.11527309894E+02  0.46700000000E-02 0. -1.
         23    2    1    2    0    0  0.00000000000E+00  0.00000000000E+00  0.18030757995E+03  0.20336219884E+03  0.94049776889E+02 0.  0.
        -13    1    3    3    0    0 -0.25350128021E+02  0.38668818456E+02  0.71625860309E+02  0.85253630708E+02  0.10570000000E+00 0.  1.
         13    1    3    3    0    0  0.25350128021E+02 -0.38668818456E+02  0.10868171964E+03  0.11810856814E+03  0.10570000000E+00 0. -1.
<mgrwt>
<rscale>  0 0.94049777E+02</rscale>
<asrwt>0</asrwt>
<pdfrwt beam="2">  1        1 0.17734322E-02 0.94049777E+02</pdfrwt>
<pdfrwt beam="1">  1       -1 0.29513060E-01 0.94049777E+02</pdfrwt>
<totfact> 0.64784377E+04</totfact>
</mgrwt>
</event>
<event>
 5   1  0.1388354E+00  0.8919641E+02  0.7818608E-02  0.1304809E+00
          1   -1    0    0  501    0  0.00000000000E+00  0.00000000000E+00  0.51452146518E+01  0.51452167712E+01  0.46700000000E-02 0. -1.
         -1   -1    0    0    0  501 -0.00000000000E+00 -0.00000000000E+00 -0.38657270887E+03  0.38657270890E+03  0.46700000000E-02 0.  1.
         23    2    1    2    0    0  0.00000000000E+00  0.00000000000E+00 -0.38142749422E+03  0.39171792567E+03  0.89196412176E+02 0.  0.
        -13    1    3    3    0    0  0.28162689411E+00  0.44392135026E+02 -0.17195378803E+03  0.17759182795E+03  0.10570000000E+00 0. -1.
         13    1    3    3    0    0 -0.28162689411E+00 -0.44392135026E+02 -0.20947370619E+03  0.21412609772E+03  0.10570000000E+00 0.  1.
<mgrwt>
<rscale>  0 0.89196412E+02</rscale>
<asrwt>0</asrwt>
<pdfrwt beam="1">  1        1 0.79157196E-03 0.89196412E+02</pdfrwt>
<pdfrwt beam="2">  1       -1 0.59472702E-01 0.89196412E+02</pdfrwt>
<totfact> 0.57408321E+04</totfact>
</mgrwt>
</event>
<event>
 5   1  0.1388354E+00  0.9076689E+02  0.7818608E-02  0.1301005E+00
         -1   -1    0    0    0  501 -0.00000000000E+00  0.00000000000E+00  0.16522219619E+02  0.16522220279E+02  0.46700000000E-02 0.  1.
          1   -1    0    0  501    0  0.00000000000E+00 -0.00000000000E+00 -0.12465982742E+03  0.12465982751E+03  0.46700000000E-02 0. -1.
         23    2    1    2    0    0  0.00000000000E+00  0.00000000000E+00 -0.10813760780E+03  0.14118204778E+03  0.90766890418E+02 0.  0.
        -13    1    3    3    0    0 -0.38259189410E+01  0.37047475781E+02 -0.13732523993E+02  0.39695673633E+02  0.10570000000E+00 0.  1.
         13    1    3    3    0    0  0.38259189410E+01 -0.37047475781E+02 -0.94405083806E+02  0.10148637415E+03  0.10570000000E+00 0. -1.
<mgrwt>
<rscale>  0 0.90766890E+02</rscale>
<asrwt>0</asrwt>
<pdfrwt beam="2">  1        1 0.19178434E-01 0.90766890E+02</pdfrwt>
<pdfrwt beam="1">  1       -1 0.25418801E-02 0.90766890E+02</pdfrwt>
<totfact> 0.10979087E+05</totfact>
</mgrwt>
</event>
<event>
 5   1  0.1388354E+00  0.9293544E+02  0.7818608E-02  0.1295895E+00
          1   -1    0    0  501    0  0.00000000000E+00  0.00000000000E+00  0.77466678817E+01  0.77466692893E+01  0.46700000000E-02 0. -1.
         -1   -1    0    0    0  501 -0.00000000000E+00 -0.00000000000E+00 -0.27873257088E+03  0.27873257092E+03  0.46700000000E-02 0.  1.
         23    2    1    2    0    0  0.00000000000E+00  0.00000000000E+00 -0.27098590300E+03  0.28647924021E+03  0.92935436980E+02 0.  0.
        -13    1    3    3    0    0  0.20055956507E+02 -0.41872911331E+02 -0.12959921363E+03  0.13766462669E+03  0.10570000000E+00 0.  1.
         13    1    3    3    0    0 -0.20055956507E+02  0.41872911331E+02 -0.14138668937E+03  0.14881461352E+03  0.10570000000E+00 0. -1.
<mgrwt>
<rscale>  0 0.92935437E+02</rscale>
<asrwt>0</asrwt>
<pdfrwt beam="1">  1        1 0.11917954E-02 0.92935437E+02</pdfrwt>
<pdfrwt beam="2">  1       -1 0.42881926E-01 0.92935437E+02</pdfrwt>
<totfact> 0.59273799E+04</totfact>
</mgrwt>
</event>
<event>
 5   1  0.1388354E+00  0.9194574E+02  0.7818608E-02  0.1298207E+00
         -1   -1    0    0    0  501 -0.00000000000E+00  0.00000000000E+00  0.13053817092E+03  0.13053817101E+03  0.46700000000E-02 0.  1.
          1   -1    0    0  501    0  0.00000000000E+00 -0.00000000000E+00 -0.16190702698E+02  0.16190703372E+02  0.46700000000E-02 0. -1.
         23    2    1    2    0    0  0.00000000000E+00  0.00000000000E+00  0.11434746823E+03  0.14672887438E+03  0.91945739906E+02 0.  0.
        -13    1    3    3    0    0 -0.35050538051E+02 -0.64774603021E+01  0.10350740424E+03  0.10947278938E+03  0.10570000000E+00 0.  1.
         13    1    3    3    0    0  0.35050538051E+02  0.64774603021E+01  0.10840063984E+02  0.37256084997E+02  0.10570000000E+00 0. -1.
<mgrwt>
<rscale>  0 0.91945740E+02</rscale>
<asrwt>0</asrwt>
<pdfrwt beam="2">  1        1 0.24908774E-02 0.91945740E+02</pdfrwt>
<pdfrwt beam="1">  1       -1 0.20082795E-01 0.91945740E+02</pdfrwt>
<totfact> 0.75494815E+04</totfact>
</mgrwt>
</event>
<event>
 5   1  0.1388354E+00  0.1057289E+03  0.7818608E-02  0.1268690E+00
          1   -1    0    0  501    0  0.00000000000E+00  0.00000000000E+00  0.25277381744E+02  0.25277382176E+02  0.46700000000E-02 0. -1.
         -1   -1    0    0    0  501 -0.00000000000E+00 -0.00000000000E+00 -0.11055933440E+03  0.11055933450E+03  0.46700000000E-02 0.  1.
         23    2    1    2    0    0  0.00000000000E+00  0.00000000000E+00 -0.85281952654E+02  0.13583671667E+03  0.10572890876E+03 0.  0.
        -13    1    3    3    0    0  0.31972056624E+02  0.27762123457E+02 -0.83303133206E+02  0.93447156608E+02  0.10570000000E+00 0.  1.
         13    1    3    3    0    0 -0.31972056624E+02 -0.27762123457E+02 -0.19788194480E+01  0.42389560065E+02  0.10570000000E+00 0. -1.
<mgrwt>
<rscale>  0 0.10572891E+03</rscale>
<asrwt>0</asrwt>
<pdfrwt beam="1">  1        1 0.38888281E-02 0.10572891E+03</pdfrwt>
<pdfrwt beam="2">  1       -1 0.17009128E-01 0.10572891E+03</pdfrwt>
<totfact> 0.54414365E+04</totfact>
</mgrwt>
</event>
<event>
 5   1  0.1388354E+00  0.8989514E+02  0.7818608E-02  0.1303106E+00
          1   -1    0    0  501    0  0.00000000000E+00  0.00000000000E+00  0.32456040412E+03  0.32456040416E+03  0.46700000000E-02 0. -1.
         -1   -1    0    0    0  501 -0.00000000000E+00 -0.00000000000E+00 -0.62246777818E+01  0.62246795337E+01  0.46700000000E-02 0.  1.
         23    2    1    2    0    0  0.00000000000E+00  0.00000000000E+00  0.31833572634E+03  0.33078508369E+03  0.89895144067E+02 0.  0.
        -13    1    3    3    0    0 -0.11166423344E+02 -0.41908579533E+02  0.20259039075E+03  0.20718082838E+03  0.10570000000E+00 0. -1.
         13    1    3    3    0    0  0.11166423344E+02  0.41908579533E+02  0.11574533559E+03  0.12360425531E+03  0.10570000000E+00 0.  1.
<mgrwt>
<rscale>  0 0.89895144E+02</rscale>
<asrwt>0</asrwt>
<pdfrwt beam="1">  1        1 0.49932378E-01 0.89895144E+02</pdfrwt>
<pdfrwt beam="2">  1       -1 0.95764272E-03 0.89895144E+02</pdfrwt>
<totfact> 0.13502061E+05</totfact>
</mgrwt>
</event>
<event>
 5   1  0.1388354E+00  0.8960046E+02  0.7818608E-02  0.1303822E+00
          1   -1    0    0  501    0  0.00000000000E+00  0.00000000000E+00  0.45580111489E+02  0.45580111728E+02  0.46700000000E-02 0. -1.
         -1   -1    0    0    0  501 -0.00000000000E+00 -0.00000000000E+00 -0.44033690165E+02  0.44033690413E+02  0.46700000000E-02 0.  1.
         23    2    1    2    0    0  0.00000000000E+00  0.00000000000E+00  0.15464213232E+01  0.89613802141E+02  0.89600458231E+02 0.  0.
        -13    1    3    3    0    0  0.24252549611E+02 -0.12044044306E+02  0.36468919450E+02  0.45422884366E+02  0.10570000000E+00 0. -1.
         13    1    3    3    0    0 -0.24252549611E+02  0.12044044306E+02 -0.34922498126E+02  0.44190917774E+02  0.10570000000E+00 0.  1.
<mgrwt>
<rscale>  0 0.89600458E+02</rscale>
<asrwt>0</asrwt>
<pdfrwt beam="1">  1        1 0.70123249E-02 0.89600458E+02</pdfrwt>
<pdfrwt beam="2">  1       -1 0.67744139E-02 0.89600458E+02</pdfrwt>
<totfact> 0.97098531E+04</totfact>
</mgrwt>
</event>
<event>
 5   1  0.1388354E+00  0.9162741E+02  0.7818608E-02  0.1298958E+00
         -1   -1    0    0    0  501 -0.00000000000E+00  0.00000000000E+00  0.11380582641E+03  0.11380582650E+03  0.46700000000E-02 0.  1.
          1   -1    0    0  501    0  0.00000000000E+00 -0.00000000000E+00 -0.18442777147E+02  0.18442777738E+02  0.46700000000E-02 0. -1.
         23    2    1    2    0    0  0.00000000000E+00  0.00000000000E+00  0.95363049260E+02  0.13224860424E+03  0.91627409434E+02 0.  0.
        -13    1    3    3    0    0  0.28711014729E+02  0.23915691539E+02  0.85939350570E+02  0.93711609832E+02  0.10570000000E+00 0.  1.
         13    1    3    3    0    0 -0.28711014729E+02 -0.23915691539E+02  0.94236986904E+01  0.38536994409E+02  0.10570000000E+00 0. -1.
<mgrwt>
<rscale>  0 0.91627409E+02</rscale>
<asrwt>0</asrwt>
<pdfrwt beam="2">  1        1 0.28373504E-02 0.91627409E+02</pdfrwt>
<pdfrwt beam="1">  1       -1 0.17508589E-01 0.91627409E+02</pdfrwt>
<totfact> 0.78368912E+04</totfact>
</mgrwt>
</event>
<event>
 5   1  0.1388354E+00  0.9124967E+02  0.7818608E-02  0.1299853E+00
          1   -1    0    0  501    0  0.00000000000E+00  0.00000000000E+00  0.56858890753E+02  0.56858890944E+02  0.46700000000E-02 0. -1.
         -1   -1    0    0    0  501 -0.00000000000E+00 -0.00000000000E+00 -0.36610375339E+02  0.36610375637E+02  0.46700000000E-02 0.  1.
         23    2    1    2    0    0  0.00000000000E+00  0.00000000000E+00  0.20248515413E+02  0.93469266582E+02  0.91249665308E+02 0.  0.
        -13    1    3    3    0    0 -0.41063607953E+02 -0.18761698286E+02  0.33766907885E+01  0.45272888508E+02  0.10570000000E+00 0.  1.
         13    1    3    3    0    0  0.41063607953E+02  0.18761698286E+02  0.16871824625E+02  0.48196378073E+02  0.10570000000E+00 0. -1.
<mgrwt>
<rscale>  0 0.91249665E+02</rscale>
<asrwt>0</asrwt>
<pdfrwt beam="1">  1        1 0.87475217E-02 0.91249665E+02</pdfrwt>
<pdfrwt beam="2">  1       -1 0.56323655E-02 0.91249665E+02</pdfrwt>
<totfact> 0.95379917E+04</totfact>
</mgrwt>
</event>
<event>
 5   1  0.1388354E+00  0.9571019E+02  0.7818608E-02  0.1289585E+00
          1   -1    0    0  501    0  0.00000000000E+00  0.00000000000E+00  0.15028108558E+03  0.15028108566E+03  0.46700000000E-02 0. -1.
         -1   -1    0    0    0  501 -0.00000000000E+00 -0.00000000000E+00 -0.15238845808E+02  0.15238846523E+02  0.46700000000E-02 0.  1.
         23    2    1    2    0    0  0.00000000000E+00  0.00000000000E+00  0.13504223978E+03  0.16551993218E+03  0.95710194990E+02 0.  0.
        -13    1    3    3    0    0 -0.45682478334E+02 -0.13915085053E+02  0.72874057623E+02  0.87127250994E+02  0.10570000000E+00 0. -1.
         13    1    3    3    0    0  0.45682478334E+02  0.13915085053E+02  0.62168182154E+02  0.78392681187E+02  0.10570000000E+00 0.  1.
<mgrwt>
<rscale>  0 0.95710195E+02</rscale>
<asrwt>0</asrwt>
<pdfrwt beam="1">  1        1 0.23120167E-01 0.95710195E+02</pdfrwt>
<pdfrwt beam="2">  1       -1 0.23444378E-02 0.95710195E+02</pdfrwt>
<totfact> 0.98362046E+04</totfact>
</mgrwt>
</event>
<event>
 5   1  0.1388354E+00  0.9104386E+02  0.7818608E-02  0.1300343E+00
          1   -1    0    0  501    0  0.00000000000E+00  0.00000000000E+00  0.96892207809E+02  0.96892207922E+02  0.46700000000E-02 0. -1.
         -1   -1    0    0    0  501 -0.00000000000E+00 -0.00000000000E+00 -0.21387126621E+02  0.21387127131E+02  0.46700000000E-02 0.  1.
         23    2    1    2    0    0  0.00000000000E+00  0.00000000000E+00  0.75505081189E+02  0.11827933505E+03  0.91043856548E+02 0.  0.
        -13    1    3    3    0    0  0.76924177191E+01  0.20632862607E+02 -0.14007438706E+02  0.26098042481E+02  0.10570000000E+00 0.  1.
         13    1    3    3    0    0 -0.76924177191E+01 -0.20632862607E+02  0.89512519895E+02  0.92181292572E+02  0.10570000000E+00 0. -1.
<mgrwt>
<rscale>  0 0.91043857E+02</rscale>
<asrwt>0</asrwt>
<pdfrwt beam="1">  1        1 0.14906493E-01 0.91043857E+02</pdfrwt>
<pdfrwt beam="2">  1       -1 0.32903273E-02 0.91043857E+02</pdfrwt>
<totfact> 0.10432198E+05</totfact>
</mgrwt>
</event>
<event>
 5   1  0.1388354E+00  0.9140638E+02  0.7818608E-02  0.1299481E+00
          1   -1    0    0  501    0  0.00000000000E+00  0.00000000000E+00  0.12639469881E+03  0.12639469890E+03  0.46700000000E-02 0. -1.
         -1   -1    0    0    0  501 -0.00000000000E+00 -0.00000000000E+00 -0.16525862515E+02  0.16525863175E+02  0.46700000000E-02 0.  1.
         23    2    1    2    0    0  0.00000000000E+00  0.00000000000E+00  0.10986883630E+03  0.14292056207E+03  0.91406377644E+02 0.  0.
        -13    1    3    3    0    0  0.75403096828E+01  0.35637238370E+02  0.98093039665E+02  0.10463806493E+03  0.10570000000E+00 0. -1.
         13    1    3    3    0    0 -0.75403096828E+01 -0.35637238370E+02  0.11775796632E+02  0.38282497144E+02  0.10570000000E+00 0.  1.
<mgrwt>
<rscale>  0 0.91406378E+02</rscale>
<asrwt>0</asrwt>
<pdfrwt beam="1">  1        1 0.19445338E-01 0.91406378E+02</pdfrwt>
<pdfrwt beam="2">  1       -1 0.25424404E-02 0.91406378E+02</pdfrwt>
<totfact> 0.10798510E+05</totfact>
</mgrwt>
</event>
<event>
 5   1  0.1388354E+00  0.9234549E+02  0.7818608E-02  0.1297269E+00
          1   -1    0    0  501    0  0.00000000000E+00  0.00000000000E+00  0.55366595482E+02  0.55366595679E+02  0.46700000000E-02 0. -1.
         -1   -1    0    0    0  501 -0.00000000000E+00 -0.00000000000E+00 -0.38505572353E+02  0.38505572636E+02  0.46700000000E-02 0.  1.
         23    2    1    2    0    0  0.00000000000E+00  0.00000000000E+00  0.16861023130E+02  0.93872168315E+02  0.92345491948E+02 0.  0.
        -13    1    3    3    0    0 -0.78469905327E+01 -0.40498533024E+02 -0.12653769980E+02  0.43148991932E+02  0.10570000000E+00 0.  1.
         13    1    3    3    0    0  0.78469905327E+01  0.40498533024E+02  0.29514793110E+02  0.50723176383E+02  0.10570000000E+00 0. -1.
<mgrwt>
<rscale>  0 0.92345492E+02</rscale>
<asrwt>0</asrwt>
<pdfrwt beam="1">  1        1 0.85179378E-02 0.92345492E+02</pdfrwt>
<pdfrwt beam="2">  1       -1 0.59239343E-02 0.92345492E+02</pdfrwt>
<totfact> 0.91888601E+04</totfact>
</mgrwt>
</event>
<event>
 5   1  0.1388354E+00  0.9032615E+02  0.7818608E-02  0.1302064E+00
          1   -1    0    0  501    0  0.00000000000E+00  0.00000000000E+00  0.13004875613E+03  0.13004875622E+03  0.46700000000E-02 0. -1.
         -1   -1    0    0    0  501 -0.00000000000E+00 -0.00000000000E+00 -0.15684141592E+02  0.15684142287E+02  0.46700000000E-02 0.  1.
         23    2    1    2    0    0  0.00000000000E+00  0.00000000000E+00  0.11436461454E+03  0.14573289850E+03  0.90326145978E+02 0.  0.
        -13    1    3    3    0    0 -0.39882574231E+02  0.68859163278E+01  0.89517203991E+02  0.98241419747E+02  0.10570000000E+00 0. -1.
         13    1    3    3    0    0  0.39882574231E+02 -0.68859163278E+01  0.24847410549E+02  0.47491478757E+02  0.10570000000E+00 0.  1.
<mgrwt>
<rscale>  0 0.90326146E+02</rscale>
<asrwt>0</asrwt>
<pdfrwt beam="1">  1        1 0.20007500E-01 0.90326146E+02</pdfrwt>
<pdfrwt beam="2">  1       -1 0.24129451E-02 0.90326146E+02</pdfrwt>
<totfact> 0.11207916E+05</totfact>
</mgrwt>
</event>
<event>
 5   1  0.1388354E+00  0.8977744E+02  0.7818608E-02  0.1303392E+00
         -1   -1    0    0    0  501 -0.00000000000E+00  0.00000000000E+00  0.20293445271E+02  0.20293445809E+02  0.46700000000E-02 0.  1.
          1   -1    0    0  501    0  0.00000000000E+00 -0.00000000000E+00 -0.99293003082E+02  0.99293003192E+02  0.46700000000E-02 0. -1.
         23    2    1    2    0    0  0.00000000000E+00  0.00000000000E+00 -0.78999557811E+02  0.11958644900E+03  0.89777439539E+02 0.  0.
        -13    1    3    3    0    0  0.23432576043E+02  0.20778501291E+02 -0.82335631600E+02  0.88090857297E+02  0.10570000000E+00 0. -1.
         13    1    3    3    0    0 -0.23432576043E+02 -0.20778501291E+02  0.33360737895E+01  0.31495591703E+02  0.10570000000E+00 0.  1.
<mgrwt>
<rscale>  0 0.89777440E+02</rscale>
<asrwt>0</asrwt>
<pdfrwt beam="2">  1        1 0.15275846E-01 0.89777440E+02</pdfrwt>
<pdfrwt beam="1">  1       -1 0.31220686E-02 0.89777440E+02</pdfrwt>
<totfact> 0.10881461E+05</totfact>
</mgrwt>
</event>
<event>
 5   1  0.1388354E+00  0.9319821E+02  0.7818608E-02  0.1295287E+00
         -1   -1    0    0    0  501 -0.00000000000E+00  0.00000000000E+00  0.69008377377E+02  0.69008377535E+02  0.46700000000E-02 0.  1.
          1   -1    0    0  501    0  0.00000000000E+00 -0.00000000000E+00 -0.31466852093E+02  0.31466852439E+02  0.46700000000E-02 0. -1.
         23    2    1    2    0    0  0.00000000000E+00  0.00000000000E+00  0.37541525285E+02  0.10047522997E+03  0.93198206623E+02 0.  0.
        -13    1    3    3    0    0 -0.13918292967E+01 -0.28911449158E+02  0.58141485953E+02  0.64948076511E+02  0.10570000000E+00 0.  1.
         13    1    3    3    0    0  0.13918292967E+01  0.28911449158E+02 -0.20599960668E+02  0.35527153464E+02  0.10570000000E+00 0. -1.
<mgrwt>
<rscale>  0 0.93198207E+02</rscale>
<asrwt>0</asrwt>
<pdfrwt beam="2">  1        1 0.48410542E-02 0.93198207E+02</pdfrwt>
<pdfrwt beam="1">  1       -1 0.10616674E-01 0.93198207E+02</pdfrwt>
<totfact> 0.82020033E+04</totfact>
</mgrwt>
</event>
<event>
 5   1  0.1388354E+00  0.9106102E+02  0.7818608E-02  0.1300302E+00
         -1   -1    0    0    0  501 -0.00000000000E+00  0.00000000000E+00  0.13803810492E+02  0.13803811282E+02  0.46700000000E-02 0.  1.
          1   -1    0    0  501    0  0.00000000000E+00 -0.00000000000E+00 -0.15017788827E+03  0.15017788835E+03  0.46700000000E-02 0. -1.
         23    2    1    2    0    0  0.00000000000E+00  0.00000000000E+00 -0.13637407778E+03  0.16398169963E+03  0.91061016479E+02 0.  0.
        -13    1    3    3    0    0  0.14757827965E+02 -0.35389508700E+02 -0.23973896482E+02  0.45221341171E+02  0.10570000000E+00 0.  1.
         13    1    3    3    0    0 -0.14757827965E+02  0.35389508700E+02 -0.11240018130E+03  0.11876035846E+03  0.10570000000E+00 0. -1.
<mgrwt>
<rscale>  0 0.91061016E+02</rscale>
<asrwt>0</asrwt>
<pdfrwt beam="2">  1        1 0.23104289E-01 0.91061016E+02</pdfrwt>
<pdfrwt beam="1">  1       -1 0.21236633E-02 0.91061016E+02</pdfrwt>
<totfact> 0.11254271E+05</totfact>
</mgrwt>
</event>
<event>
 5   1  0.1388354E+00  0.9409076E+02  0.7818608E-02  0.1293237E+00
          1   -1    0    0  501    0  0.00000000000E+00  0.00000000000E+00  0.53382203223E+02  0.53382203427E+02  0.46700000000E-02 0. -1.
         -1   -1    0    0    0  501 -0.00000000000E+00 -0.00000000000E+00 -0.41460778194E+02  0.41460778457E+02  0.46700000000E-02 0.  1.
         23    2    1    2    0    0  0.00000000000E+00  0.00000000000E+00  0.11921425030E+02  0.94842981884E+02  0.94090758515E+02 0.  0.
        -13    1    3    3    0    0 -0.44945310209E+02  0.92892879013E+00 -0.80178410096E+01  0.45664436550E+02  0.10570000000E+00 0.  1.
         13    1    3    3    0    0  0.44945310209E+02 -0.92892879013E+00  0.19939266039E+02  0.49178545334E+02  0.10570000000E+00 0. -1.
<mgrwt>
<rscale>  0 0.94090759E+02</rscale>
<asrwt>0</asrwt>
<pdfrwt beam="1">  1        1 0.82126466E-02 0.94090759E+02</pdfrwt>
<pdfrwt beam="2">  1       -1 0.63785813E-02 0.94090759E+02</pdfrwt>
<totfact> 0.86714884E+04</totfact>
</mgrwt>
</event>
<event>
 5   1  0.1388354E+00  0.8343145E+02  0.7818608E-02  0.1319586E+00
          1   -1    0    0  501    0  0.00000000000E+00  0.00000000000E+00  0.28762323096E+02  0.28762323475E+02  0.46700000000E-02 0.  1.
         -1   -1    0    0    0  501 -0.00000000000E+00 -0.00000000000E+00 -0.60502818058E+02  0.60502818238E+02  0.46700000000E-02 0. -1.
         23    2    1    2    0    0  0.00000000000E+00  0.00000000000E+00 -0.31740494961E+02  0.89265141713E+02  0.83431447936E+02 0.  0.
        -13    1    3    3    0    0 -0.18387108714E+02 -0.16862528643E+02  0.19900363979E+02  0.31913418778E+02  0.10570000000E+00 0.  1.
         13    1    3    3    0    0  0.18387108714E+02  0.16862528643E+02 -0.51640858941E+02  0.57351722936E+02  0.10570000000E+00 0. -1.
<mgrwt>
<rscale>  0 0.83431448E+02</rscale>
<asrwt>0</asrwt>
<pdfrwt beam="1">  1        1 0.44249728E-02 0.83431448E+02</pdfrwt>
<pdfrwt beam="2">  1       -1 0.93081259E-02 0.83431448E+02</pdfrwt>
<totfact> 0.11089966E+05</totfact>
</mgrwt>
</event>
<event>
 5   1  0.1388354E+00  0.9099450E+02  0.7818608E-02  0.1300461E+00
          1   -1    0    0  501    0  0.00000000000E+00  0.00000000000E+00  0.10337333107E+02  0.10337334162E+02  0.46700000000E-02 0. -1.
         -1   -1    0    0    0  501 -0.00000000000E+00 -0.00000000000E+00 -0.20024501904E+03  0.20024501910E+03  0.46700000000E-02 0.  1.
         23    2    1    2    0    0  0.00000000000E+00  0.00000000000E+00 -0.18990768593E+03  0.21058235326E+03  0.90994496132E+02 0.  0.
        -13    1    3    3    0    0 -0.10880906900E+02  0.40546945420E+02 -0.13553807160E+03  0.14189090508E+03  0.10570000000E+00 0. -1.
         13    1    3    3    0    0  0.10880906900E+02 -0.40546945420E+02 -0.54369614334E+02  0.68691448181E+02  0.10570000000E+00 0.  1.
<mgrwt>
<rscale>  0 0.90994496E+02</rscale>
<asrwt>0</asrwt>
<pdfrwt beam="1">  1        1 0.15903592E-02 0.90994496E+02</pdfrwt>
<pdfrwt beam="2">  1       -1 0.30806923E-01 0.90994496E+02</pdfrwt>
<totfact> 0.69763367E+04</totfact>
</mgrwt>
</event>
<event>
 5   1  0.1388354E+00  0.8816992E+02  0.7818608E-02  0.1307345E+00
          1   -1    0    0  501    0  0.00000000000E+00  0.00000000000E+00  0.27180943123E+03  0.27180943127E+03  0.46700000000E-02 0. -1.
         -1   -1    0    0    0  501 -0.00000000000E+00 -0.00000000000E+00 -0.71501698441E+01  0.71501713691E+01  0.46700000000E-02 0.  1.
         23    2    1    2    0    0  0.00000000000E+00  0.00000000000E+00  0.26465926138E+03  0.27895960264E+03  0.88169922691E+02 0.  0.
        -13    1    3    3    0    0 -0.11240908061E+02  0.41257463729E+02  0.16624913476E+03  0.17166048558E+03  0.10570000000E+00 0. -1.
         13    1    3    3    0    0  0.11240908061E+02 -0.41257463729E+02  0.98410126620E+02  0.10729911706E+03  0.10570000000E+00 0.  1.
<mgrwt>
<rscale>  0 0.88169923E+02</rscale>
<asrwt>0</asrwt>
<pdfrwt beam="1">  1        1 0.41816838E-01 0.88169923E+02</pdfrwt>
<pdfrwt beam="2">  1       -1 0.11000262E-02 0.88169923E+02</pdfrwt>
<totfact> 0.13744376E+05</totfact>
</mgrwt>
</event>
<event>
 5   1  0.1388354E+00  0.9875794E+02  0.7818608E-02  0.1282930E+00
         -1   -1    0    0    0  501 -0.00000000000E+00  0.00000000000E+00  0.47199066228E+02  0.47199066459E+02  0.46700000000E-02 0.  1.
          1   -1    0    0  501    0  0.00000000000E+00 -0.00000000000E+00 -0.51659548880E+02  0.51659549091E+02  0.46700000000E-02 0. -1.
         23    2    1    2    0    0  0.00000000000E+00  0.00000000000E+00 -0.44604826521E+01  0.98858615550E+02  0.98757936202E+02 0.  0.
        -13    1    3    3    0    0 -0.24332332718E+02  0.35038171567E+02 -0.27125968225E+02  0.50552598419E+02  0.10570000000E+00 0.  1.
         13    1    3    3    0    0  0.24332332718E+02 -0.35038171567E+02  0.22665485573E+02  0.48306017131E+02  0.10570000000E+00 0. -1.
<mgrwt>
<rscale>  0 0.98757936E+02</rscale>
<asrwt>0</asrwt>
<pdfrwt beam="2">  1        1 0.79476229E-02 0.98757936E+02</pdfrwt>
<pdfrwt beam="1">  1       -1 0.72613949E-02 0.98757936E+02</pdfrwt>
<totfact> 0.75275152E+04</totfact>
</mgrwt>
</event>
<event>
 5   1  0.1388354E+00  0.8403172E+02  0.7818608E-02  0.1317984E+00
          1   -1    0    0  501    0  0.00000000000E+00  0.00000000000E+00  0.46384973907E+02  0.46384974142E+02  0.46700000000E-02 0. -1.
         -1   -1    0    0    0  501 -0.00000000000E+00 -0.00000000000E+00 -0.38058287226E+02  0.38058287513E+02  0.46700000000E-02 0.  1.
         23    2    1    2    0    0  0.00000000000E+00  0.00000000000E+00  0.83266866807E+01  0.84443261655E+02  0.84031724532E+02 0.  0.
        -13    1    3    3    0    0  0.22096527951E+02 -0.19817395174E+02 -0.25720078762E+02  0.39274919771E+02  0.10570000000E+00 0.  1.
         13    1    3    3    0    0 -0.22096527951E+02  0.19817395174E+02  0.34046765443E+02  0.45168341884E+02  0.10570000000E+00 0. -1.
<mgrwt>
<rscale>  0 0.84031725E+02</rscale>
<asrwt>0</asrwt>
<pdfrwt beam="1">  1        1 0.71361499E-02 0.84031725E+02</pdfrwt>
<pdfrwt beam="2">  1       -1 0.58551211E-02 0.84031725E+02</pdfrwt>
<totfact> 0.11636276E+05</totfact>
</mgrwt>
</event>
<event>
 5   1  0.1388354E+00  0.9208043E+02  0.7818608E-02  0.1297890E+00
          1   -1    0    0  501    0  0.00000000000E+00  0.00000000000E+00  0.50788266771E+03  0.50788266773E+03  0.46700000000E-02 0. -1.
         -1   -1    0    0    0  501 -0.00000000000E+00 -0.00000000000E+00 -0.41736035861E+01  0.41736061988E+01  0.46700000000E-02 0.  1.
         23    2    1    2    0    0  0.00000000000E+00  0.00000000000E+00  0.50370906413E+03  0.51205627393E+03  0.92080434354E+02 0.  0.
        -13    1    3    3    0    0  0.28992786274E+02 -0.35711106755E+02  0.24097772426E+03  0.24532863584E+03  0.10570000000E+00 0.  1.
         13    1    3    3    0    0 -0.28992786274E+02  0.35711106755E+02  0.26273133986E+03  0.26672763809E+03  0.10570000000E+00 0. -1.
<mgrwt>
<rscale>  0 0.92080434E+02</rscale>
<asrwt>0</asrwt>
<pdfrwt beam="1">  1        1 0.78135747E-01 0.92080434E+02</pdfrwt>
<pdfrwt beam="2">  1       -1 0.64209346E-03 0.92080434E+02</pdfrwt>
<totfact> 0.13591660E+05</totfact>
</mgrwt>
</event>
<event>
 5   1  0.1388354E+00  0.9252566E+02  0.7818608E-02  0.1296848E+00
         -1   -1    0    0    0  501 -0.00000000000E+00  0.00000000000E+00  0.14071001167E+03  0.14071001175E+03  0.46700000000E-02 0.  1.
          1   -1    0    0  501    0  0.00000000000E+00 -0.00000000000E+00 -0.15210356011E+02  0.15210356728E+02  0.46700000000E-02 0. -1.
         23    2    1    2    0    0  0.00000000000E+00  0.00000000000E+00  0.12549965566E+03  0.15592036847E+03  0.92525659872E+02 0.  0.
        -13    1    3    3    0    0  0.15759869051E+02 -0.37146971060E+02  0.10087938711E+03  0.10865050781E+03  0.10570000000E+00 0.  1.
         13    1    3    3    0    0 -0.15759869051E+02  0.37146971060E+02  0.24620268552E+02  0.47269860667E+02  0.10570000000E+00 0. -1.
<mgrwt>
<rscale>  0 0.92525660E+02</rscale>
<asrwt>0</asrwt>
<pdfrwt beam="2">  1        1 0.23400549E-02 0.92525660E+02</pdfrwt>
<pdfrwt beam="1">  1       -1 0.21647693E-01 0.92525660E+02</pdfrwt>
<totfact> 0.73054929E+04</totfact>
</mgrwt>
</event>
<event>
 5   1  0.1388354E+00  0.9191153E+02  0.7818608E-02  0.1298288E+00
         -1   -1    0    0    0  501 -0.00000000000E+00  0.00000000000E+00  0.20031388369E+02  0.20031388913E+02  0.46700000000E-02 0.  1.
          1   -1    0    0  501    0  0.00000000000E+00 -0.00000000000E+00 -0.10543115554E+03  0.10543115564E+03  0.46700000000E-02 0. -1.
         23    2    1    2    0    0  0.00000000000E+00  0.00000000000E+00 -0.85399767168E+02  0.12546254455E+03  0.91911532756E+02 0.  0.
        -13    1    3    3    0    0  0.43062675103E+01  0.28424165095E+02 -0.91640642040E+02  0.96044237449E+02  0.10570000000E+00 0. -1.
         13    1    3    3    0    0 -0.43062675103E+01 -0.28424165095E+02  0.62408748728E+01  0.29418307104E+02  0.10570000000E+00 0.  1.
<mgrwt>
<rscale>  0 0.91911533E+02</rscale>
<asrwt>0</asrwt>
<pdfrwt beam="2">  1        1 0.16220177E-01 0.91911533E+02</pdfrwt>
<pdfrwt beam="1">  1       -1 0.30817522E-02 0.91911533E+02</pdfrwt>
<totfact> 0.10309985E+05</totfact>
</mgrwt>
</event>
<event>
 5   1  0.1388354E+00  0.9097414E+02  0.7818608E-02  0.1300510E+00
          1   -1    0    0  501    0  0.00000000000E+00  0.00000000000E+00  0.25725460654E+02  0.25725461078E+02  0.46700000000E-02 0. -1.
         -1   -1    0    0    0  501 -0.00000000000E+00 -0.00000000000E+00 -0.80429018770E+02  0.80429018905E+02  0.46700000000E-02 0.  1.
         23    2    1    2    0    0  0.00000000000E+00  0.00000000000E+00 -0.54703558116E+02  0.10615447998E+03  0.90974141106E+02 0.  0.
        -13    1    3    3    0    0  0.34801650012E+02 -0.11235143328E+02 -0.58914954964E+02  0.69342385163E+02  0.10570000000E+00 0.  1.
         13    1    3    3    0    0 -0.34801650012E+02  0.11235143328E+02  0.42113968482E+01  0.36812094820E+02  0.10570000000E+00 0. -1.
<mgrwt>
<rscale>  0 0.90974141E+02</rscale>
<asrwt>0</asrwt>
<pdfrwt beam="1">  1        1 0.39577633E-02 0.90974141E+02</pdfrwt>
<pdfrwt beam="2">  1       -1 0.12373695E-01 0.90974141E+02</pdfrwt>
<totfact> 0.85057536E+04</totfact>
</mgrwt>
</event>
<event>
 5   1  0.1388354E+00  0.7133705E+02  0.7818608E-02  0.1355604E+00
          1   -1    0    0  501    0  0.00000000000E+00  0.00000000000E+00  0.50730899343E+02  0.50730899558E+02  0.46700000000E-02 0. -1.
         -1   -1    0    0    0  501 -0.00000000000E+00 -0.00000000000E+00 -0.25078277072E+02  0.25078277507E+02  0.46700000000E-02 0.  1.
         23    2    1    2    0    0  0.00000000000E+00  0.00000000000E+00  0.25652622271E+02  0.75809177065E+02  0.71337047162E+02 0.  0.
        -13    1    3    3    0    0 -0.18589429305E+02  0.51676913329E+01 -0.19053693391E+02  0.27116901002E+02  0.10570000000E+00 0.  1.
         13    1    3    3    0    0  0.18589429305E+02 -0.51676913329E+01  0.44706315662E+02  0.48692276063E+02  0.10570000000E+00 0. -1.
<mgrwt>
<rscale>  0 0.71337047E+02</rscale>
<asrwt>0</asrwt>
<pdfrwt beam="1">  1        1 0.78047538E-02 0.71337047E+02</pdfrwt>
<pdfrwt beam="2">  1       -1 0.38581965E-02 0.71337047E+02</pdfrwt>
<totfact> 0.18403727E+05</totfact>
</mgrwt>
</event>
<event>
 5   1  0.1388354E+00  0.8813665E+02  0.7818608E-02  0.1307428E+00
          1   -1    0    0  501    0  0.00000000000E+00  0.00000000000E+00  0.69492447742E+02  0.69492447899E+02  0.46700000000E-02 0. -1.
         -1   -1    0    0    0  501 -0.00000000000E+00 -0.00000000000E+00 -0.27945727963E+02  0.27945728353E+02  0.46700000000E-02 0.  1.
         23    2    1    2    0    0  0.00000000000E+00  0.00000000000E+00  0.41546719780E+02  0.97438176252E+02  0.88136645426E+02 0.  0.
        -13    1    3    3    0    0  0.20235217116E+01 -0.20431109991E+02 -0.22335161655E+02  0.30338020934E+02  0.10570000000E+00 0.  1.
         13    1    3    3    0    0 -0.20235217116E+01  0.20431109991E+02  0.63881881435E+02  0.67100155318E+02  0.10570000000E+00 0. -1.
<mgrwt>
<rscale>  0 0.88136645E+02</rscale>
<asrwt>0</asrwt>
<pdfrwt beam="1">  1        1 0.10691146E-01 0.88136645E+02</pdfrwt>
<pdfrwt beam="2">  1       -1 0.42993429E-02 0.88136645E+02</pdfrwt>
<totfact> 0.10818830E+05</totfact>
</mgrwt>
</event>
<event>
 5   1  0.1388354E+00  0.9207822E+02  0.7818608E-02  0.1297896E+00
         -1   -1    0    0    0  501 -0.00000000000E+00  0.00000000000E+00  0.12783219277E+03  0.12783219285E+03  0.46700000000E-02 0. -1.
          1   -1    0    0  501    0  0.00000000000E+00 -0.00000000000E+00 -0.16581110405E+02  0.16581111062E+02  0.46700000000E-02 0.  1.
         23    2    1    2    0    0  0.00000000000E+00  0.00000000000E+00  0.11125108236E+03  0.14441330391E+03  0.92078222293E+02 0.  0.
        -13    1    3    3    0    0  0.41214706941E+02  0.15359041162E+02  0.34291220107E+02  0.55771418869E+02  0.10570000000E+00 0.  1.
         13    1    3    3    0    0 -0.41214706941E+02 -0.15359041162E+02  0.76959862253E+02  0.88641885044E+02  0.10570000000E+00 0. -1.
<mgrwt>
<rscale>  0 0.92078222E+02</rscale>
<asrwt>0</asrwt>
<pdfrwt beam="2">  1        1 0.25509401E-02 0.92078222E+02</pdfrwt>
<pdfrwt beam="1">  1       -1 0.19666492E-01 0.92078222E+02</pdfrwt>
<totfact> 0.75551631E+04</totfact>
</mgrwt>
</event>
<event>
 5   1  0.1388354E+00  0.9085515E+02  0.7818608E-02  0.1300794E+00
          1   -1    0    0  501    0  0.00000000000E+00  0.00000000000E+00  0.44085985120E+02  0.44085985367E+02  0.46700000000E-02 0. -1.
         -1   -1    0    0    0  501 -0.00000000000E+00 -0.00000000000E+00 -0.46809995710E+02  0.46809995943E+02  0.46700000000E-02 0.  1.
         23    2    1    2    0    0  0.00000000000E+00  0.00000000000E+00 -0.27240105898E+01  0.90895981310E+02  0.90855154970E+02 0.  0.
        -13    1    3    3    0    0 -0.26119104710E+01 -0.34279505239E+02 -0.31069574756E+02  0.46338280112E+02  0.10570000000E+00 0.  1.
         13    1    3    3    0    0  0.26119104710E+01  0.34279505239E+02  0.28345564166E+02  0.44557701199E+02  0.10570000000E+00 0. -1.
<mgrwt>
<rscale>  0 0.90855155E+02</rscale>
<asrwt>0</asrwt>
<pdfrwt beam="1">  1        1 0.67824593E-02 0.90855155E+02</pdfrwt>
<pdfrwt beam="2">  1       -1 0.72015378E-02 0.90855155E+02</pdfrwt>
<totfact> 0.92925521E+04</totfact>
</mgrwt>
</event>
<event>
 5   1  0.1388354E+00  0.9068937E+02  0.7818608E-02  0.1301191E+00
          1   -1    0    0  501    0  0.00000000000E+00  0.00000000000E+00  0.19533081752E+03  0.19533081758E+03  0.46700000000E-02 0. -1.
         -1   -1    0    0    0  501 -0.00000000000E+00 -0.00000000000E+00 -0.10526452128E+02  0.10526453164E+02  0.46700000000E-02 0.  1.
         23    2    1    2    0    0  0.00000000000E+00  0.00000000000E+00  0.18480436539E+03  0.20585727074E+03  0.90689373407E+02 0.  0.
        -13    1    3    3    0    0  0.29185819031E+02  0.23068179025E+02  0.33551503492E+02  0.50096581471E+02  0.10570000000E+00 0.  1.
         13    1    3    3    0    0 -0.29185819031E+02 -0.23068179025E+02  0.15125286190E+03  0.15576068927E+03  0.10570000000E+00 0. -1.
<mgrwt>
<rscale>  0 0.90689373E+02</rscale>
<asrwt>0</asrwt>
<pdfrwt beam="1">  1        1 0.30050895E-01 0.90689373E+02</pdfrwt>
<pdfrwt beam="2">  1       -1 0.16194542E-02 0.90689373E+02</pdfrwt>
<totfact> 0.11957189E+05</totfact>
</mgrwt>
</event>
<event>
 5   1  0.1388354E+00  0.9016791E+02  0.7818608E-02  0.1302446E+00
          1   -1    0    0  501    0  0.00000000000E+00  0.00000000000E+00  0.26332713548E+02  0.26332713963E+02  0.46700000000E-02 0. -1.
         -1   -1    0    0    0  501 -0.00000000000E+00 -0.00000000000E+00 -0.77187758855E+02  0.77187758996E+02  0.46700000000E-02 0.  1.
         23    2    1    2    0    0  0.00000000000E+00  0.00000000000E+00 -0.50855045307E+02  0.10352047296E+03  0.90167913853E+02 0.  0.
        -13    1    3    3    0    0  0.17934900837E+02  0.72865026733E+01 -0.72173049504E+02  0.74724253334E+02  0.10570000000E+00 0.  1.
         13    1    3    3    0    0 -0.17934900837E+02 -0.72865026733E+01  0.21318004197E+02  0.28796219625E+02  0.10570000000E+00 0. -1.
<mgrwt>
<rscale>  0 0.90167914E+02</rscale>
<asrwt>0</asrwt>
<pdfrwt beam="1">  1        1 0.40511868E-02 0.90167914E+02</pdfrwt>
<pdfrwt beam="2">  1       -1 0.11875040E-01 0.90167914E+02</pdfrwt>
<totfact> 0.87616791E+04</totfact>
</mgrwt>
</event>
<event>
 5   1  0.1388354E+00  0.8981608E+02  0.7818608E-02  0.1303298E+00
          1   -1    0    0  501    0  0.00000000000E+00  0.00000000000E+00  0.44779766709E+02  0.44779766953E+02  0.46700000000E-02 0. -1.
         -1   -1    0    0    0  501 -0.00000000000E+00 -0.00000000000E+00 -0.45036681548E+02  0.45036681790E+02  0.46700000000E-02 0.  1.
         23    2    1    2    0    0  0.00000000000E+00  0.00000000000E+00 -0.25691483822E+00  0.89816448743E+02  0.89816081297E+02 0.  0.
        -13    1    3    3    0    0 -0.40557813562E+02 -0.11907186670E+02 -0.15294389273E+02  0.44951605656E+02  0.10570000000E+00 0.  1.
         13    1    3    3    0    0  0.40557813562E+02  0.11907186670E+02  0.15037474435E+02  0.44864843087E+02  0.10570000000E+00 0. -1.
<mgrwt>
<rscale>  0 0.89816081E+02</rscale>
<asrwt>0</asrwt>
<pdfrwt beam="1">  1        1 0.68891949E-02 0.89816081E+02</pdfrwt>
<pdfrwt beam="2">  1       -1 0.69287203E-02 0.89816081E+02</pdfrwt>
<totfact> 0.96194639E+04</totfact>
</mgrwt>
</event>
<event>
 4   1  0.1388354E+00  0.1757156E+03  0.7818608E-02  0.1172015E+00
         -1   -1    0    0    0  501 -0.00000000000E+00  0.00000000000E+00  0.41177798575E+02  0.41177798840E+02  0.46700000000E-02 0. -1.
          1   -1    0    0  501    0  0.00000000000E+00 -0.00000000000E+00 -0.18745530439E+03  0.18745530445E+03  0.46700000000E-02 0.  1.
        -13    1    1    2    0    0  0.69798082751E+02  0.27267229254E+02 -0.13459720417E+02  0.76134416614E+02  0.10570000000E+00 0. -1.
         13    1    1    2    0    0 -0.69798082751E+02 -0.27267229254E+02 -0.13281778540E+03  0.15249868668E+03  0.10570000000E+00 0.  1.
<mgrwt>
<rscale>  0 0.17571564E+03</rscale>
<asrwt>0</asrwt>
<pdfrwt beam="2">  1        1 0.28839277E-01 0.17571564E+03</pdfrwt>
<pdfrwt beam="1">  1       -1 0.63350461E-02 0.17571564E+03</pdfrwt>
<totfact> 0.18678491E+04</totfact>
</mgrwt>
</event>
<event>
 5   1  0.1388354E+00  0.9164189E+02  0.7818608E-02  0.1298924E+00
          1   -1    0    0  501    0  0.00000000000E+00  0.00000000000E+00  0.95189968279E+01  0.95189979735E+01  0.46700000000E-02 0. -1.
         -1   -1    0    0    0  501 -0.00000000000E+00 -0.00000000000E+00 -0.22056512642E+03  0.22056512647E+03  0.46700000000E-02 0.  1.
         23    2    1    2    0    0  0.00000000000E+00  0.00000000000E+00 -0.21104612959E+03  0.23008412444E+03  0.91641887284E+02 0.  0.
        -13    1    3    3    0    0  0.88001635364E+01  0.30786079214E+02 -0.23230633279E+02  0.39558804919E+02  0.10570000000E+00 0. -1.
         13    1    3    3    0    0 -0.88001635364E+01 -0.30786079214E+02 -0.18781549631E+03  0.19052531952E+03  0.10570000000E+00 0.  1.
<mgrwt>
<rscale>  0 0.91641887E+02</rscale>
<asrwt>0</asrwt>
<pdfrwt beam="1">  1        1 0.14644613E-02 0.91641887E+02</pdfrwt>
<pdfrwt beam="2">  1       -1 0.33933093E-01 0.91641887E+02</pdfrwt>
<totfact> 0.66548198E+04</totfact>
</mgrwt>
</event>
<event>
 5   1  0.1388354E+00  0.9022846E+02  0.7818608E-02  0.1302299E+00
         -1   -1    0    0    0  501 -0.00000000000E+00  0.00000000000E+00  0.18816113447E+02  0.18816114027E+02  0.46700000000E-02 0.  1.
          1   -1    0    0  501    0  0.00000000000E+00 -0.00000000000E+00 -0.10816759417E+03  0.10816759427E+03  0.46700000000E-02 0. -1.
         23    2    1    2    0    0  0.00000000000E+00  0.00000000000E+00 -0.89351480724E+02  0.12698370830E+03  0.90228460398E+02 0.  0.
        -13    1    3    3    0    0 -0.69201555193E+01  0.39537375154E+02 -0.73661499267E+02  0.83887545162E+02  0.10570000000E+00 0. -1.
         13    1    3    3    0    0  0.69201555193E+01 -0.39537375154E+02 -0.15689981457E+02  0.43096163137E+02  0.10570000000E+00 0.  1.
<mgrwt>
<rscale>  0 0.90228460E+02</rscale>
<asrwt>0</asrwt>
<pdfrwt beam="2">  1        1 0.16641168E-01 0.90228460E+02</pdfrwt>
<pdfrwt beam="1">  1       -1 0.28947868E-02 0.90228460E+02</pdfrwt>
<totfact> 0.10888649E+05</totfact>
</mgrwt>
</event>
<event>
 5   1  0.1388354E+00  0.9111836E+02  0.7818608E-02  0.1300166E+00
          1   -1    0    0  501    0  0.00000000000E+00  0.00000000000E+00  0.61910848005E+01  0.61910865618E+01  0.46700000000E-02 0. -1.
         -1   -1    0    0    0  501 -0.00000000000E+00 -0.00000000000E+00 -0.33526252358E+03  0.33526252361E+03  0.46700000000E-02 0.  1.
         23    2    1    2    0    0  0.00000000000E+00  0.00000000000E+00 -0.32907143878E+03  0.34145361017E+03  0.91118363027E+02 0.  0.
        -13    1    3    3    0    0 -0.33795455284E+02  0.22794914022E+02 -0.88298567431E+02  0.97254249706E+02  0.10570000000E+00 0. -1.
         13    1    3    3    0    0  0.33795455284E+02 -0.22794914022E+02 -0.24077287135E+03  0.24419936047E+03  0.10570000000E+00 0.  1.
<mgrwt>
<rscale>  0 0.91118363E+02</rscale>
<asrwt>0</asrwt>
<pdfrwt beam="1">  1        1 0.95247498E-03 0.91118363E+02</pdfrwt>
<pdfrwt beam="2">  1       -1 0.51578836E-01 0.91118363E+02</pdfrwt>
<totfact> 0.57969498E+04</totfact>
</mgrwt>
</event>
<event>
 5   1  0.1388354E+00  0.9173892E+02  0.7818608E-02  0.1298694E+00
         -1   -1    0    0    0  501 -0.00000000000E+00  0.00000000000E+00  0.34227733940E+02  0.34227734258E+02  0.46700000000E-02 0.  1.
          1   -1    0    0  501    0  0.00000000000E+00 -0.00000000000E+00 -0.61470829823E+02  0.61470830000E+02  0.46700000000E-02 0. -1.
         23    2    1    2    0    0  0.00000000000E+00  0.00000000000E+00 -0.27243095883E+02  0.95698564258E+02  0.91738917193E+02 0.  0.
        -13    1    3    3    0    0  0.13536605037E+02  0.11358441860E+02 -0.57777532369E+02  0.60419436414E+02  0.10570000000E+00 0. -1.
         13    1    3    3    0    0 -0.13536605037E+02 -0.11358441860E+02  0.30534436487E+02  0.35279127844E+02  0.10570000000E+00 0.  1.
<mgrwt>
<rscale>  0 0.91738917E+02</rscale>
<asrwt>0</asrwt>
<pdfrwt beam="2">  1        1 0.94570508E-02 0.91738917E+02</pdfrwt>
<pdfrwt beam="1">  1       -1 0.52658053E-02 0.91738917E+02</pdfrwt>
<totfact> 0.95089819E+04</totfact>
</mgrwt>
</event>
<event>
 5   1  0.1388354E+00  0.8970992E+02  0.7818608E-02  0.1303556E+00
          1   -1    0    0  501    0  0.00000000000E+00  0.00000000000E+00  0.71209474330E+02  0.71209474483E+02  0.46700000000E-02 0. -1.
         -1   -1    0    0    0  501 -0.00000000000E+00 -0.00000000000E+00 -0.28254212006E+02  0.28254212392E+02  0.46700000000E-02 0.  1.
         23    2    1    2    0    0  0.00000000000E+00  0.00000000000E+00  0.42955262324E+02  0.99463686874E+02  0.89709923895E+02 0.  0.
        -13    1    3    3    0    0 -0.29740158150E+02 -0.27335643124E+02 -0.14229143795E+00  0.40394873575E+02  0.10570000000E+00 0.  1.
         13    1    3    3    0    0  0.29740158150E+02  0.27335643124E+02  0.43097553762E+02  0.59068813299E+02  0.10570000000E+00 0. -1.
<mgrwt>
<rscale>  0 0.89709924E+02</rscale>
<asrwt>0</asrwt>
<pdfrwt beam="1">  1        1 0.10955304E-01 0.89709924E+02</pdfrwt>
<pdfrwt beam="2">  1       -1 0.43468019E-02 0.89709924E+02</pdfrwt>
<totfact> 0.10344240E+05</totfact>
</mgrwt>
</event>
<event>
 5   1  0.1388354E+00  0.9136229E+02  0.7818608E-02  0.1299586E+00
          1   -1    0    0  501    0  0.00000000000E+00  0.00000000000E+00  0.14041443052E+03  0.14041443060E+03  0.46700000000E-02 0. -1.
         -1   -1    0    0    0  501 -0.00000000000E+00 -0.00000000000E+00 -0.14861484894E+02  0.14861485628E+02  0.46700000000E-02 0.  1.
         23    2    1    2    0    0  0.00000000000E+00  0.00000000000E+00  0.12555294562E+03  0.15527591622E+03  0.91362289838E+02 0.  0.
        -13    1    3    3    0    0 -0.39213477248E+02 -0.53947194896E+01  0.24022124771E+02  0.46301981029E+02  0.10570000000E+00 0.  1.
         13    1    3    3    0    0  0.39213477248E+02  0.53947194896E+01  0.10153082085E+03  0.10897393519E+03  0.10570000000E+00 0. -1.
<mgrwt>
<rscale>  0 0.91362290E+02</rscale>
<asrwt>0</asrwt>
<pdfrwt beam="1">  1        1 0.21602221E-01 0.91362290E+02</pdfrwt>
<pdfrwt beam="2">  1       -1 0.22863823E-02 0.91362290E+02</pdfrwt>
<totfact> 0.11018215E+05</totfact>
</mgrwt>
</event>
<event>
 5   1  0.1388354E+00  0.9303150E+02  0.7818608E-02  0.1295672E+00
         -1   -1    0    0    0  501 -0.00000000000E+00  0.00000000000E+00  0.14159698016E+02  0.14159698786E+02  0.46700000000E-02 0.  1.
          1   -1    0    0  501    0  0.00000000000E+00 -0.00000000000E+00 -0.15280797177E+03  0.15280797184E+03  0.46700000000E-02 0. -1.
         23    2    1    2    0    0  0.00000000000E+00  0.00000000000E+00 -0.13864827375E+03  0.16696767063E+03  0.93031495848E+02 0.  0.
        -13    1    3    3    0    0 -0.31282590600E+02 -0.32086661999E+02 -0.91708069317E+02  0.10207122760E+03  0.10570000000E+00 0.  1.
         13    1    3    3    0    0  0.31282590600E+02  0.32086661999E+02 -0.46940204435E+02  0.64896443029E+02  0.10570000000E+00 0. -1.
<mgrwt>
<rscale>  0 0.93031496E+02</rscale>
<asrwt>0</asrwt>
<pdfrwt beam="2">  1        1 0.23508918E-01 0.93031496E+02</pdfrwt>
<pdfrwt beam="1">  1       -1 0.21784153E-02 0.93031496E+02</pdfrwt>
<totfact> 0.10655779E+05</totfact>
</mgrwt>
</event>
<event>
 5   1  0.1388354E+00  0.9320649E+02  0.7818608E-02  0.1295267E+00
          1   -1    0    0  501    0  0.00000000000E+00  0.00000000000E+00  0.16847355846E+02  0.16847356493E+02  0.46700000000E-02 0. -1.
         -1   -1    0    0    0  501 -0.00000000000E+00 -0.00000000000E+00 -0.12891414582E+03  0.12891414591E+03  0.46700000000E-02 0.  1.
         23    2    1    2    0    0  0.00000000000E+00  0.00000000000E+00 -0.11206678997E+03  0.14576150240E+03  0.93206492083E+02 0.  0.
        -13    1    3    3    0    0 -0.35511280027E+02  0.17229832626E+02 -0.17284685558E+02  0.43089321981E+02  0.10570000000E+00 0. -1.
         13    1    3    3    0    0  0.35511280027E+02 -0.17229832626E+02 -0.94782104417E+02  0.10267218042E+03  0.10570000000E+00 0.  1.
<mgrwt>
<rscale>  0 0.93206492E+02</rscale>
<asrwt>0</asrwt>
<pdfrwt beam="1">  1        1 0.25919010E-02 0.93206492E+02</pdfrwt>
<pdfrwt beam="2">  1       -1 0.19832945E-01 0.93206492E+02</pdfrwt>
<totfact> 0.73071680E+04</totfact>
</mgrwt>
</event>
<event>
 5   1  0.1388354E+00  0.9156970E+02  0.7818608E-02  0.1299094E+00
          1   -1    0    0  501    0  0.00000000000E+00  0.00000000000E+00  0.36990607080E+03  0.36990607083E+03  0.46700000000E-02 0. -1.
         -1   -1    0    0    0  501 -0.00000000000E+00 -0.00000000000E+00 -0.56669852597E+01  0.56669871839E+01  0.46700000000E-02 0.  1.
         23    2    1    2    0    0  0.00000000000E+00  0.00000000000E+00  0.36423908554E+03  0.37557305801E+03  0.91569702797E+02 0.  0.
        -13    1    3    3    0    0  0.18140165879E+02  0.39321113960E+02  0.12114281221E+03  0.12864994265E+03  0.10570000000E+00 0.  1.
         13    1    3    3    0    0 -0.18140165879E+02 -0.39321113960E+02  0.24309627333E+03  0.24692311537E+03  0.10570000000E+00 0. -1.
<mgrwt>
<rscale>  0 0.91569703E+02</rscale>
<asrwt>0</asrwt>
<pdfrwt beam="1">  1        1 0.56908623E-01 0.91569703E+02</pdfrwt>
<pdfrwt beam="2">  1       -1 0.87184409E-03 0.91569703E+02</pdfrwt>
<totfact> 0.13160589E+05</totfact>
</mgrwt>
</event>
<event>
 5   1  0.1388354E+00  0.9680360E+02  0.7818608E-02  0.1287165E+00
         -1   -1    0    0    0  501 -0.00000000000E+00  0.00000000000E+00  0.69779181220E+02  0.69779181376E+02  0.46700000000E-02 0.  1.
          1   -1    0    0  501    0  0.00000000000E+00 -0.00000000000E+00 -0.33573537868E+02  0.33573538193E+02  0.46700000000E-02 0. -1.
         23    2    1    2    0    0  0.00000000000E+00  0.00000000000E+00  0.36205643352E+02  0.10335271957E+03  0.96803595138E+02 0.  0.
        -13    1    3    3    0    0  0.43880947942E+02  0.13355530330E+02  0.16036830724E+01  0.45896522249E+02  0.10570000000E+00 0. -1.
         13    1    3    3    0    0 -0.43880947942E+02 -0.13355530330E+02  0.34601960280E+02  0.57456197319E+02  0.10570000000E+00 0.  1.
<mgrwt>
<rscale>  0 0.96803595E+02</rscale>
<asrwt>0</asrwt>
<pdfrwt beam="2">  1        1 0.51651598E-02 0.96803595E+02</pdfrwt>
<pdfrwt beam="1">  1       -1 0.10735258E-01 0.96803595E+02</pdfrwt>
<totfact> 0.74312898E+04</totfact>
</mgrwt>
</event>
<event>
 5   1  0.1388354E+00  0.7751791E+02  0.7818608E-02  0.1336247E+00
          1   -1    0    0  501    0  0.00000000000E+00  0.00000000000E+00  0.90376671536E+02  0.90376671656E+02  0.46700000000E-02 0. -1.
         -1   -1    0    0    0  501 -0.00000000000E+00 -0.00000000000E+00 -0.16622169941E+02  0.16622170597E+02  0.46700000000E-02 0.  1.
         23    2    1    2    0    0  0.00000000000E+00  0.00000000000E+00  0.73754501595E+02  0.10699884225E+03  0.77517905918E+02 0.  0.
        -13    1    3    3    0    0 -0.73867064765E+01 -0.37954628769E+02  0.40562445321E+02  0.56039632587E+02  0.10570000000E+00 0.  1.
         13    1    3    3    0    0  0.73867064765E+01  0.37954628769E+02  0.33192056274E+02  0.50959209666E+02  0.10570000000E+00 0. -1.
<mgrwt>
<rscale>  0 0.77517906E+02</rscale>
<asrwt>0</asrwt>
<pdfrwt beam="1">  1        1 0.13904103E-01 0.77517906E+02</pdfrwt>
<pdfrwt beam="2">  1       -1 0.25572570E-02 0.77517906E+02</pdfrwt>
<totfact> 0.15932228E+05</totfact>
</mgrwt>
</event>
<event>
 5   1  0.1388354E+00  0.9254125E+02  0.7818608E-02  0.1296812E+00
          1   -1    0    0  501    0  0.00000000000E+00  0.00000000000E+00  0.45593292583E+02  0.45593292823E+02  0.46700000000E-02 0. -1.
         -1   -1    0    0    0  501 -0.00000000000E+00 -0.00000000000E+00 -0.46958019547E+02  0.46958019779E+02  0.46700000000E-02 0.  1.
         23    2    1    2    0    0  0.00000000000E+00  0.00000000000E+00 -0.13647269636E+01  0.92551312602E+02  0.92541250179E+02 0.  0.
        -13    1    3    3    0    0  0.23874495689E+02 -0.15858857851E+02  0.35646022322E+02  0.45739971541E+02  0.10570000000E+00 0. -1.
         13    1    3    3    0    0 -0.23874495689E+02  0.15858857851E+02 -0.37010749286E+02  0.46811341061E+02  0.10570000000E+00 0.  1.
<mgrwt>
<rscale>  0 0.92541250E+02</rscale>
<asrwt>0</asrwt>
<pdfrwt beam="1">  1        1 0.70143527E-02 0.92541250E+02</pdfrwt>
<pdfrwt beam="2">  1       -1 0.72243108E-02 0.92541250E+02</pdfrwt>
<totfact> 0.88689466E+04</totfact>
</mgrwt>
</event>
<event>
 5   1  0.1388354E+00  0.1025611E+03  0.7818608E-02  0.1275001E+00
          1   -1    0    0  501    0  0.00000000000E+00  0.00000000000E+00  0.53499969501E+02  0.53499969705E+02  0.46700000000E-02 0. -1.
         -1   -1    0    0    0  501 -0.00000000000E+00 -0.00000000000E+00 -0.49153240977E+02  0.49153241199E+02  0.46700000000E-02 0.  1.
         23    2    1    2    0    0  0.00000000000E+00  0.00000000000E+00  0.43467285238E+01  0.10265321090E+03  0.10256114108E+03 0.  0.
        -13    1    3    3    0    0 -0.39742875584E+02  0.26555015406E+02  0.20764772830E+02  0.52113836608E+02  0.10570000000E+00 0. -1.
         13    1    3    3    0    0  0.39742875584E+02 -0.26555015406E+02 -0.16418044306E+02  0.50539374296E+02  0.10570000000E+00 0.  1.
<mgrwt>
<rscale>  0 0.10256114E+03</rscale>
<asrwt>0</asrwt>
<pdfrwt beam="1">  1        1 0.82307646E-02 0.10256114E+03</pdfrwt>
<pdfrwt beam="2">  1       -1 0.75620371E-02 0.10256114E+03</pdfrwt>
<totfact> 0.68015512E+04</totfact>
</mgrwt>
</event>
<event>
 5   1  0.1388354E+00  0.9195988E+02  0.7818608E-02  0.1298174E+00
         -1   -1    0    0    0  501 -0.00000000000E+00  0.00000000000E+00  0.35809265582E+03  0.35809265585E+03  0.46700000000E-02 0.  1.
          1   -1    0    0  501    0  0.00000000000E+00 -0.00000000000E+00 -0.59039316430E+01  0.59039334899E+01  0.46700000000E-02 0. -1.
         23    2    1    2    0    0  0.00000000000E+00  0.00000000000E+00  0.35218872417E+03  0.36399658934E+03  0.91959880458E+02 0.  0.
        -13    1    3    3    0    0 -0.45200641329E+02 -0.48204540984E+01  0.14872569540E+03  0.15551745368E+03  0.10570000000E+00 0. -1.
         13    1    3    3    0    0  0.45200641329E+02  0.48204540984E+01  0.20346302877E+03  0.20847913566E+03  0.10570000000E+00 0.  1.
<mgrwt>
<rscale>  0 0.91959880E+02</rscale>
<asrwt>0</asrwt>
<pdfrwt beam="2">  1        1 0.90829728E-03 0.91959880E+02</pdfrwt>
<pdfrwt beam="1">  1       -1 0.55091180E-01 0.91959880E+02</pdfrwt>
<totfact> 0.54957187E+04</totfact>
</mgrwt>
</event>
<event>
 5   1  0.1388354E+00  0.9053169E+02  0.7818608E-02  0.1301569E+00
          1   -1    0    0  501    0  0.00000000000E+00  0.00000000000E+00  0.10259999723E+03  0.10259999733E+03  0.46700000000E-02 0. -1.
         -1   -1    0    0    0  501 -0.00000000000E+00 -0.00000000000E+00 -0.19970726323E+02  0.19970726870E+02  0.46700000000E-02 0.  1.
         23    2    1    2    0    0  0.00000000000E+00  0.00000000000E+00  0.82629270903E+02  0.12257072420E+03  0.90531685180E+02 0.  0.
        -13    1    3    3    0    0  0.43559912218E+02 -0.64012224597E+01  0.27079775205E+02  0.51689138115E+02  0.10570000000E+00 0.  1.
         13    1    3    3    0    0 -0.43559912218E+02  0.64012224597E+01  0.55549495698E+02  0.70881586087E+02  0.10570000000E+00 0. -1.
<mgrwt>
<rscale>  0 0.90531685E+02</rscale>
<asrwt>0</asrwt>
<pdfrwt beam="1">  1        1 0.15784615E-01 0.90531685E+02</pdfrwt>
<pdfrwt beam="2">  1       -1 0.30724195E-02 0.90531685E+02</pdfrwt>
<totfact> 0.10694668E+05</totfact>
</mgrwt>
</event>
<event>
 5   1  0.1388354E+00  0.1189425E+03  0.7818608E-02  0.1244852E+00
         -1   -1    0    0    0  501 -0.00000000000E+00  0.00000000000E+00  0.10693377873E+03  0.10693377883E+03  0.46700000000E-02 0.  1.
          1   -1    0    0  501    0  0.00000000000E+00 -0.00000000000E+00 -0.33074949674E+02  0.33074950004E+02  0.46700000000E-02 0. -1.
         23    2    1    2    0    0  0.00000000000E+00  0.00000000000E+00  0.73858829058E+02  0.14000872884E+03  0.11894249670E+03 0.  0.
        -13    1    3    3    0    0  0.52591966807E+02 -0.26391098242E+02  0.47083550191E+02  0.75360977370E+02  0.10570000000E+00 0.  1.
         13    1    3    3    0    0 -0.52591966807E+02  0.26391098242E+02  0.26775278867E+02  0.64647751469E+02  0.10570000000E+00 0. -1.
<mgrwt>
<rscale>  0 0.11894250E+03</rscale>
<asrwt>0</asrwt>
<pdfrwt beam="2">  1        1 0.50884539E-02 0.11894250E+03</pdfrwt>
<pdfrwt beam="1">  1       -1 0.16451350E-01 0.11894250E+03</pdfrwt>
<totfact> 0.40367610E+04</totfact>
</mgrwt>
</event>
<event>
 5   1  0.1388354E+00  0.9262292E+02  0.7818608E-02  0.1296621E+00
         -1   -1    0    0    0  501 -0.00000000000E+00  0.00000000000E+00  0.11492786806E+03  0.11492786815E+03  0.46700000000E-02 0.  1.
          1   -1    0    0  501    0  0.00000000000E+00 -0.00000000000E+00 -0.18661714921E+02  0.18661715505E+02  0.46700000000E-02 0. -1.
         23    2    1    2    0    0  0.00000000000E+00  0.00000000000E+00  0.96266153139E+02  0.13358958366E+03  0.92622916291E+02 0.  0.
        -13    1    3    3    0    0 -0.34031215105E+02 -0.16137329664E+02  0.92658853801E+01  0.38786657688E+02  0.10570000000E+00 0. -1.
         13    1    3    3    0    0  0.34031215105E+02  0.16137329664E+02  0.87000267759E+02  0.94802925972E+02  0.10570000000E+00 0.  1.
<mgrwt>
<rscale>  0 0.92622916E+02</rscale>
<asrwt>0</asrwt>
<pdfrwt beam="2">  1        1 0.28710331E-02 0.92622916E+02</pdfrwt>
<pdfrwt beam="1">  1       -1 0.17681211E-01 0.92622916E+02</pdfrwt>
<totfact> 0.76059970E+04</totfact>
</mgrwt>
</event>
<event>
 5   1  0.1388354E+00  0.9142905E+02  0.7818608E-02  0.1299427E+00
         -1   -1    0    0    0  501 -0.00000000000E+00  0.00000000000E+00  0.79888955864E+01  0.79888969513E+01  0.46700000000E-02 0.  1.
          1   -1    0    0  501    0  0.00000000000E+00 -0.00000000000E+00 -0.26159029696E+03  0.26159029700E+03  0.46700000000E-02 0. -1.
         23    2    1    2    0    0  0.00000000000E+00  0.00000000000E+00 -0.25360140137E+03  0.26957919395E+03  0.91429049179E+02 0.  0.
        -13    1    3    3    0    0 -0.24943190152E+02  0.31470004243E+02 -0.19121614492E+03  0.19538717756E+03  0.10570000000E+00 0. -1.
         13    1    3    3    0    0  0.24943190152E+02 -0.31470004243E+02 -0.62385256450E+02  0.74192016395E+02  0.10570000000E+00 0.  1.
<mgrwt>
<rscale>  0 0.91429049E+02</rscale>
<asrwt>0</asrwt>
<pdfrwt beam="2">  1        1 0.40244655E-01 0.91429049E+02</pdfrwt>
<pdfrwt beam="1">  1       -1 0.12290612E-02 0.91429049E+02</pdfrwt>
<totfact> 0.12385111E+05</totfact>
</mgrwt>
</event>
<event>
 5   1  0.1388354E+00  0.9085915E+02  0.7818608E-02  0.1300784E+00
         -1   -1    0    0    0  501 -0.00000000000E+00  0.00000000000E+00  0.57041759858E+02  0.57041760049E+02  0.46700000000E-02 0.  1.
          1   -1    0    0  501    0  0.00000000000E+00 -0.00000000000E+00 -0.36181322289E+02  0.36181322590E+02  0.46700000000E-02 0. -1.
         23    2    1    2    0    0  0.00000000000E+00  0.00000000000E+00  0.20860437569E+02  0.93223082639E+02  0.90859150784E+02 0.  0.
        -13    1    3    3    0    0  0.49709791786E+01 -0.31333751807E+02 -0.22932244982E+02  0.39146055596E+02  0.10570000000E+00 0. -1.
         13    1    3    3    0    0 -0.49709791786E+01  0.31333751807E+02  0.43792682551E+02  0.54077027043E+02  0.10570000000E+00 0.  1.
<mgrwt>
<rscale>  0 0.90859151E+02</rscale>
<asrwt>0</asrwt>
<pdfrwt beam="2">  1        1 0.55663573E-02 0.90859151E+02</pdfrwt>
<pdfrwt beam="1">  1       -1 0.87756554E-02 0.90859151E+02</pdfrwt>
<totfact> 0.90170829E+04</totfact>
</mgrwt>
</event>
<event>
 5   1  0.1388354E+00  0.9156372E+02  0.7818608E-02  0.1299109E+00
          1   -1    0    0  501    0  0.00000000000E+00  0.00000000000E+00  0.18189170890E+02  0.18189171489E+02  0.46700000000E-02 0. -1.
         -1   -1    0    0    0  501 -0.00000000000E+00 -0.00000000000E+00 -0.11523222929E+03  0.11523222939E+03  0.46700000000E-02 0.  1.
         23    2    1    2    0    0  0.00000000000E+00  0.00000000000E+00 -0.97043058403E+02  0.13342140088E+03  0.91563721133E+02 0.  0.
        -13    1    3    3    0    0  0.23729183372E+02  0.30785243983E+02 -0.83769992814E+02  0.92348406912E+02  0.10570000000E+00 0.  1.
         13    1    3    3    0    0 -0.23729183372E+02 -0.30785243983E+02 -0.13273065588E+02  0.41072993965E+02  0.10570000000E+00 0. -1.
<mgrwt>
<rscale>  0 0.91563721E+02</rscale>
<asrwt>0</asrwt>
<pdfrwt beam="1">  1        1 0.27983341E-02 0.91563721E+02</pdfrwt>
<pdfrwt beam="2">  1       -1 0.17728035E-01 0.91563721E+02</pdfrwt>
<totfact> 0.78315011E+04</totfact>
</mgrwt>
</event>
<event>
 5   1  0.1388354E+00  0.9143936E+02  0.7818608E-02  0.1299403E+00
          1   -1    0    0  501    0  0.00000000000E+00  0.00000000000E+00  0.82141926980E+02  0.82141927113E+02  0.46700000000E-02 0. -1.
         -1   -1    0    0    0  501 -0.00000000000E+00 -0.00000000000E+00 -0.25447284776E+02  0.25447285205E+02  0.46700000000E-02 0.  1.
         23    2    1    2    0    0  0.00000000000E+00  0.00000000000E+00  0.56694642204E+02  0.10758921232E+03  0.91439357787E+02 0.  0.
        -13    1    3    3    0    0 -0.38323051664E+02  0.24910766429E+02  0.29567430878E+02  0.54437548753E+02  0.10570000000E+00 0. -1.
         13    1    3    3    0    0  0.38323051664E+02 -0.24910766429E+02  0.27127211325E+02  0.53151663565E+02  0.10570000000E+00 0.  1.
<mgrwt>
<rscale>  0 0.91439358E+02</rscale>
<asrwt>0</asrwt>
<pdfrwt beam="1">  1        1 0.12637220E-01 0.91439358E+02</pdfrwt>
<pdfrwt beam="2">  1       -1 0.39149669E-02 0.91439358E+02</pdfrwt>
<totfact> 0.10037087E+05</totfact>
</mgrwt>
</event>
<event>
 5   1  0.1388354E+00  0.9042812E+02  0.7818608E-02  0.1301818E+00
         -1   -1    0    0    0  501 -0.00000000000E+00  0.00000000000E+00  0.22036034058E+02  0.22036034553E+02  0.46700000000E-02 0.  1.
          1   -1    0    0  501    0  0.00000000000E+00 -0.00000000000E+00 -0.92771288273E+02  0.92771288390E+02  0.46700000000E-02 0. -1.
         23    2    1    2    0    0  0.00000000000E+00  0.00000000000E+00 -0.70735254214E+02  0.11480732294E+03  0.90428121802E+02 0.  0.
        -13    1    3    3    0    0  0.16400909835E+02  0.39863427716E+02 -0.52692746253E+02  0.68078038991E+02  0.10570000000E+00 0. -1.
         13    1    3    3    0    0 -0.16400909835E+02 -0.39863427716E+02 -0.18042507961E+02  0.46729283952E+02  0.10570000000E+00 0.  1.
<mgrwt>
<rscale>  0 0.90428122E+02</rscale>
<asrwt>0</asrwt>
<pdfrwt beam="2">  1        1 0.14272506E-01 0.90428122E+02</pdfrwt>
<pdfrwt beam="1">  1       -1 0.33901592E-02 0.90428122E+02</pdfrwt>
<totfact> 0.10551609E+05</totfact>
</mgrwt>
</event>
<event>
 5   1  0.1388354E+00  0.9074504E+02  0.7818608E-02  0.1301057E+00
         -1   -1    0    0    0  501 -0.00000000000E+00  0.00000000000E+00  0.96601568141E+02  0.96601568254E+02  0.46700000000E-02 0.  1.
          1   -1    0    0  501    0  0.00000000000E+00 -0.00000000000E+00 -0.21310889760E+02  0.21310890272E+02  0.46700000000E-02 0. -1.
         23    2    1    2    0    0  0.00000000000E+00  0.00000000000E+00  0.75290678381E+02  0.11791245853E+03  0.90745036363E+02 0.  0.
        -13    1    3    3    0    0  0.13102564696E+01  0.28958382534E+02  0.83000088206E+02  0.87916611091E+02  0.10570000000E+00 0.  1.
         13    1    3    3    0    0 -0.13102564696E+01 -0.28958382534E+02 -0.77094098252E+01  0.29995847435E+02  0.10570000000E+00 0. -1.
<mgrwt>
<rscale>  0 0.90745036E+02</rscale>
<asrwt>0</asrwt>
<pdfrwt beam="2">  1        1 0.32785985E-02 0.90745036E+02</pdfrwt>
<pdfrwt beam="1">  1       -1 0.14861780E-01 0.90745036E+02</pdfrwt>
<totfact> 0.82897185E+04</totfact>
</mgrwt>
</event>
<event>
 5   1  0.1388354E+00  0.9222440E+02  0.7818608E-02  0.1297553E+00
          1   -1    0    0  501    0  0.00000000000E+00  0.00000000000E+00  0.19920700005E+02  0.19920700552E+02  0.46700000000E-02 0. -1.
         -1   -1    0    0    0  501 -0.00000000000E+00 -0.00000000000E+00 -0.10673998197E+03  0.10673998207E+03  0.46700000000E-02 0.  1.
         23    2    1    2    0    0  0.00000000000E+00  0.00000000000E+00 -0.86819281966E+02  0.12666068263E+03  0.92224404590E+02 0.  0.
        -13    1    3    3    0    0 -0.41749650887E+02  0.13375237646E+02 -0.63044587086E+02  0.76789071258E+02  0.10570000000E+00 0.  1.
         13    1    3    3    0    0  0.41749650887E+02 -0.13375237646E+02 -0.23774694879E+02  0.49871611367E+02  0.10570000000E+00 0. -1.
<mgrwt>
<rscale>  0 0.92224405E+02</rscale>
<asrwt>0</asrwt>
<pdfrwt beam="1">  1        1 0.30647232E-02 0.92224405E+02</pdfrwt>
<pdfrwt beam="2">  1       -1 0.16421535E-01 0.92224405E+02</pdfrwt>
<totfact> 0.78037671E+04</totfact>
</mgrwt>
</event>
<event>
 5   1  0.1388354E+00  0.9069720E+02  0.7818608E-02  0.1301172E+00
          1   -1    0    0  501    0  0.00000000000E+00  0.00000000000E+00  0.14377690701E+03  0.14377690709E+03  0.46700000000E-02 0. -1.
         -1   -1    0    0    0  501 -0.00000000000E+00 -0.00000000000E+00 -0.14303378636E+02  0.14303379398E+02  0.46700000000E-02 0.  1.
         23    2    1    2    0    0  0.00000000000E+00  0.00000000000E+00  0.12947352837E+03  0.15808028648E+03  0.90697201859E+02 0.  0.
        -13    1    3    3    0    0  0.18266251567E-01  0.41355000725E+02  0.32304484850E+02  0.52476921904E+02  0.10570000000E+00 0.  1.
         13    1    3    3    0    0 -0.18266251567E-01 -0.41355000725E+02  0.97169043525E+02  0.10560336458E+03  0.10570000000E+00 0. -1.
<mgrwt>
<rscale>  0 0.90697202E+02</rscale>
<asrwt>0</asrwt>
<pdfrwt beam="1">  1        1 0.22119524E-01 0.90697202E+02</pdfrwt>
<pdfrwt beam="2">  1       -1 0.22005198E-02 0.90697202E+02</pdfrwt>
<totfact> 0.11286159E+05</totfact>
</mgrwt>
</event>
<event>
 5   1  0.1388354E+00  0.8986736E+02  0.7818608E-02  0.1303173E+00
          1   -1    0    0  501    0  0.00000000000E+00  0.00000000000E+00  0.28355486314E+02  0.28355486699E+02  0.46700000000E-02 0. -1.
         -1   -1    0    0    0  501 -0.00000000000E+00 -0.00000000000E+00 -0.71204407481E+02  0.71204407634E+02  0.46700000000E-02 0.  1.
         23    2    1    2    0    0  0.00000000000E+00  0.00000000000E+00 -0.42848921167E+02  0.99559894333E+02  0.89867360674E+02 0.  0.
        -13    1    3    3    0    0  0.32840017127E+02  0.20609209527E+02  0.37367062067E+01  0.38950999833E+02  0.10570000000E+00 0. -1.
         13    1    3    3    0    0 -0.32840017127E+02 -0.20609209527E+02 -0.46585627374E+02  0.60608894500E+02  0.10570000000E+00 0.  1.
<mgrwt>
<rscale>  0 0.89867361E+02</rscale>
<asrwt>0</asrwt>
<pdfrwt beam="1">  1        1 0.43623826E-02 0.89867361E+02</pdfrwt>
<pdfrwt beam="2">  1       -1 0.10954524E-01 0.89867361E+02</pdfrwt>
<totfact> 0.89540987E+04</totfact>
</mgrwt>
</event>
<event>
 5   1  0.1388354E+00  0.9383225E+02  0.7818608E-02  0.1293828E+00
         -1   -1    0    0    0  501 -0.00000000000E+00  0.00000000000E+00  0.91427196314E+02  0.91427196434E+02  0.46700000000E-02 0.  1.
          1   -1    0    0  501    0  0.00000000000E+00 -0.00000000000E+00 -0.24075141883E+02  0.24075142336E+02  0.46700000000E-02 0. -1.
         23    2    1    2    0    0  0.00000000000E+00  0.00000000000E+00  0.67352054431E+02  0.11550233877E+03  0.93832249387E+02 0.  0.
        -13    1    3    3    0    0 -0.26741706355E+02 -0.34478187315E+02  0.54898580262E+02  0.70126525271E+02  0.10570000000E+00 0.  1.
         13    1    3    3    0    0  0.26741706355E+02  0.34478187315E+02  0.12453474170E+02  0.45375813499E+02  0.10570000000E+00 0. -1.
<mgrwt>
<rscale>  0 0.93832249E+02</rscale>
<asrwt>0</asrwt>
<pdfrwt beam="2">  1        1 0.37038680E-02 0.93832249E+02</pdfrwt>
<pdfrwt beam="1">  1       -1 0.14065722E-01 0.93832249E+02</pdfrwt>
<totfact> 0.76821398E+04</totfact>
</mgrwt>
</event>
<event>
 5   1  0.1388354E+00  0.9245026E+02  0.7818608E-02  0.1297024E+00
          1   -1    0    0  501    0  0.00000000000E+00  0.00000000000E+00  0.12108022549E+02  0.12108023450E+02  0.46700000000E-02 0. -1.
         -1   -1    0    0    0  501 -0.00000000000E+00 -0.00000000000E+00 -0.17647495032E+03  0.17647495038E+03  0.46700000000E-02 0.  1.
         23    2    1    2    0    0  0.00000000000E+00  0.00000000000E+00 -0.16436692777E+03  0.18858297383E+03  0.92450262706E+02 0.  0.
        -13    1    3    3    0    0 -0.33223637102E+02  0.19423300707E+02 -0.13441577951E+03  0.13981662142E+03  0.10570000000E+00 0. -1.
         13    1    3    3    0    0  0.33223637102E+02 -0.19423300707E+02 -0.29951148265E+02  0.48766352411E+02  0.10570000000E+00 0.  1.
<mgrwt>
<rscale>  0 0.92450263E+02</rscale>
<asrwt>0</asrwt>
<pdfrwt beam="1">  1        1 0.18627729E-02 0.92450263E+02</pdfrwt>
<pdfrwt beam="2">  1       -1 0.27149991E-01 0.92450263E+02</pdfrwt>
<totfact> 0.69293728E+04</totfact>
</mgrwt>
</event>
<event>
 5   1  0.1388354E+00  0.9123727E+02  0.7818608E-02  0.1299883E+00
         -1   -1    0    0    0  501 -0.00000000000E+00  0.00000000000E+00  0.93554728503E+01  0.93554740159E+01  0.46700000000E-02 0.  1.
          1   -1    0    0  501    0  0.00000000000E+00 -0.00000000000E+00 -0.22244302600E+03  0.22244302605E+03  0.46700000000E-02 0. -1.
         23    2    1    2    0    0  0.00000000000E+00  0.00000000000E+00 -0.21308755315E+03  0.23179850007E+03  0.91237269387E+02 0.  0.
        -13    1    3    3    0    0  0.35028572916E+02  0.12222994100E+02 -0.39102794599E+02  0.53902154162E+02  0.10570000000E+00 0.  1.
         13    1    3    3    0    0 -0.35028572916E+02 -0.12222994100E+02 -0.17398475855E+03  0.17789634591E+03  0.10570000000E+00 0. -1.
<mgrwt>
<rscale>  0 0.91237269E+02</rscale>
<asrwt>0</asrwt>
<pdfrwt beam="2">  1        1 0.34222000E-01 0.91237269E+02</pdfrwt>
<pdfrwt beam="1">  1       -1 0.14393038E-02 0.91237269E+02</pdfrwt>
<totfact> 0.12066924E+05</totfact>
</mgrwt>
</event>
<event>
 5   1  0.1388354E+00  0.9840667E+02  0.7818608E-02  0.1283683E+00
          1   -1    0    0  501    0  0.00000000000E+00  0.00000000000E+00  0.10821014162E+02  0.10821015170E+02  0.46700000000E-02 0. -1.
         -1   -1    0    0    0  501 -0.00000000000E+00 -0.00000000000E+00 -0.22372840568E+03  0.22372840573E+03  0.46700000000E-02 0.  1.
         23    2    1    2    0    0  0.00000000000E+00  0.00000000000E+00 -0.21290739151E+03  0.23454942090E+03  0.98406673964E+02 0.  0.
        -13    1    3    3    0    0 -0.34408873798E+02  0.68080383756E+00 -0.22640783773E+02  0.41195270994E+02  0.10570000000E+00 0. -1.
         13    1    3    3    0    0  0.34408873798E+02 -0.68080383756E+00 -0.19026660774E+03  0.19335414990E+03  0.10570000000E+00 0.  1.
<mgrwt>
<rscale>  0 0.98406674E+02</rscale>
<asrwt>0</asrwt>
<pdfrwt beam="1">  1        1 0.16647717E-02 0.98406674E+02</pdfrwt>
<pdfrwt beam="2">  1       -1 0.34419751E-01 0.98406674E+02</pdfrwt>
<totfact> 0.54991356E+04</totfact>
</mgrwt>
</event>
<event>
 5   1  0.1388354E+00  0.8014433E+02  0.7818608E-02  0.1328642E+00
          1   -1    0    0  501    0  0.00000000000E+00  0.00000000000E+00  0.79167797347E+02  0.79167797485E+02  0.46700000000E-02 0. -1.
         -1   -1    0    0    0  501 -0.00000000000E+00 -0.00000000000E+00 -0.20283224795E+02  0.20283225333E+02  0.46700000000E-02 0.  1.
         23    2    1    2    0    0  0.00000000000E+00  0.00000000000E+00  0.58884572552E+02  0.99451022818E+02  0.80144326405E+02 0.  0.
        -13    1    3    3    0    0  0.54494596726E+01 -0.29764266890E+02  0.62041792082E+02  0.69027554871E+02  0.10570000000E+00 0. -1.
         13    1    3    3    0    0 -0.54494596726E+01  0.29764266890E+02 -0.31572195304E+01  0.30423467947E+02  0.10570000000E+00 0.  1.
<mgrwt>
<rscale>  0 0.80144326E+02</rscale>
<asrwt>0</asrwt>
<pdfrwt beam="1">  1        1 0.12179661E-01 0.80144326E+02</pdfrwt>
<pdfrwt beam="2">  1       -1 0.31204962E-02 0.80144326E+02</pdfrwt>
<totfact> 0.14284557E+05</totfact>
</mgrwt>
</event>
<event>
 5   1  0.1388354E+00  0.9746292E+02  0.7818608E-02  0.1285723E+00
         -1   -1    0    0    0  501 -0.00000000000E+00  0.00000000000E+00  0.61312608699E+02  0.61312608877E+02  0.46700000000E-02 0. -1.
          1   -1    0    0  501    0  0.00000000000E+00 -0.00000000000E+00 -0.38731923409E+02  0.38731923691E+02  0.46700000000E-02 0.  1.
         23    2    1    2    0    0  0.00000000000E+00  0.00000000000E+00  0.22580685290E+02  0.10004453257E+03  0.97462921917E+02 0.  0.
        -13    1    3    3    0    0 -0.41997748461E+02 -0.18430783568E+02  0.28195933904E+02  0.53837965414E+02  0.10570000000E+00 0. -1.
         13    1    3    3    0    0  0.41997748461E+02  0.18430783568E+02 -0.56152486139E+01  0.46206567154E+02  0.10570000000E+00 0.  1.
<mgrwt>
<rscale>  0 0.97462922E+02</rscale>
<asrwt>0</asrwt>
<pdfrwt beam="2">  1        1 0.59587575E-02 0.97462922E+02</pdfrwt>
<pdfrwt beam="1">  1       -1 0.94327090E-02 0.97462922E+02</pdfrwt>
<totfact> 0.74614531E+04</totfact>
</mgrwt>
</event>
<event>
 5   1  0.1388354E+00  0.8787108E+02  0.7818608E-02  0.1308091E+00
          1   -1    0    0  501    0  0.00000000000E+00  0.00000000000E+00  0.11183020083E+03  0.11183020093E+03  0.46700000000E-02 0. -1.
         -1   -1    0    0    0  501 -0.00000000000E+00 -0.00000000000E+00 -0.17261274674E+02  0.17261275306E+02  0.46700000000E-02 0.  1.
         23    2    1    2    0    0  0.00000000000E+00  0.00000000000E+00  0.94568926156E+02  0.12909147623E+03  0.87871084220E+02 0.  0.
        -13    1    3    3    0    0 -0.42290042158E+02  0.10536161897E+02  0.39123041158E+02  0.58566901021E+02  0.10570000000E+00 0. -1.
         13    1    3    3    0    0  0.42290042158E+02 -0.10536161897E+02  0.55445884998E+02  0.70524575213E+02  0.10570000000E+00 0.  1.
<mgrwt>
<rscale>  0 0.87871084E+02</rscale>
<asrwt>0</asrwt>
<pdfrwt beam="1">  1        1 0.17204646E-01 0.87871084E+02</pdfrwt>
<pdfrwt beam="2">  1       -1 0.26555809E-02 0.87871084E+02</pdfrwt>
<totfact> 0.11763665E+05</totfact>
</mgrwt>
</event>
<event>
 5   1  0.1388354E+00  0.9078131E+02  0.7818608E-02  0.1300971E+00
         -1   -1    0    0    0  501 -0.00000000000E+00  0.00000000000E+00  0.64266144676E+02  0.64266144846E+02  0.46700000000E-02 0.  1.
          1   -1    0    0  501    0  0.00000000000E+00 -0.00000000000E+00 -0.32059049613E+02  0.32059049953E+02  0.46700000000E-02 0. -1.
         23    2    1    2    0    0  0.00000000000E+00  0.00000000000E+00  0.32207095063E+02  0.96325194799E+02  0.90781309643E+02 0.  0.
        -13    1    3    3    0    0 -0.32531178856E+02  0.18491891560E+02  0.43364394500E+02  0.57277478419E+02  0.10570000000E+00 0.  1.
         13    1    3    3    0    0  0.32531178856E+02 -0.18491891560E+02 -0.11157299437E+02  0.39047716379E+02  0.10570000000E+00 0. -1.
<mgrwt>
<rscale>  0 0.90781310E+02</rscale>
<asrwt>0</asrwt>
<pdfrwt beam="2">  1        1 0.49321615E-02 0.90781310E+02</pdfrwt>
<pdfrwt beam="1">  1       -1 0.98870992E-02 0.90781310E+02</pdfrwt>
<totfact> 0.88704419E+04</totfact>
</mgrwt>
</event>
<event>
 5   1  0.1388354E+00  0.9122483E+02  0.7818608E-02  0.1299912E+00
         -1   -1    0    0    0  501 -0.00000000000E+00  0.00000000000E+00  0.26537347543E+02  0.26537347954E+02  0.46700000000E-02 0.  1.
          1   -1    0    0  501    0  0.00000000000E+00 -0.00000000000E+00 -0.78398656613E+02  0.78398656752E+02  0.46700000000E-02 0. -1.
         23    2    1    2    0    0  0.00000000000E+00  0.00000000000E+00 -0.51861309070E+02  0.10493600471E+03  0.91224830531E+02 0.  0.
        -13    1    3    3    0    0 -0.44126024631E+02 -0.31529156856E+01 -0.13150696253E+02  0.46151911244E+02  0.10570000000E+00 0.  1.
         13    1    3    3    0    0  0.44126024631E+02  0.31529156856E+01 -0.38710612817E+02  0.58784093463E+02  0.10570000000E+00 0. -1.
<mgrwt>
<rscale>  0 0.91224831E+02</rscale>
<asrwt>0</asrwt>
<pdfrwt beam="2">  1        1 0.12061332E-01 0.91224831E+02</pdfrwt>
<pdfrwt beam="1">  1       -1 0.40826689E-02 0.91224831E+02</pdfrwt>
<totfact> 0.10027861E+05</totfact>
</mgrwt>
</event>
<event>
 4   1  0.1388354E+00  0.2539542E+03  0.7818608E-02  0.1110831E+00
          1   -1    0    0  501    0  0.00000000000E+00  0.00000000000E+00  0.20071862353E+03  0.20071862358E+03  0.46700000000E-02 0. -1.
         -1   -1    0    0    0  501 -0.00000000000E+00 -0.00000000000E+00 -0.80327288692E+02  0.80327288827E+02  0.46700000000E-02 0.  1.
        -13    1    1    2    0    0 -0.10297251242E+03  0.54502859225E+02  0.43190702833E+01  0.11658715846E+03  0.10570000000E+00 0.  1.
         13    1    1    2    0    0  0.10297251242E+03 -0.54502859225E+02  0.11607226455E+03  0.16445875394E+03  0.10570000000E+00 0. -1.
<mgrwt>
<rscale>  0 0.25395419E+03</rscale>
<asrwt>0</asrwt>
<pdfrwt beam="1">  1        1 0.30879788E-01 0.25395419E+03</pdfrwt>
<pdfrwt beam="2">  1       -1 0.12358045E-01 0.25395419E+03</pdfrwt>
<totfact> 0.63080431E+03</totfact>
</mgrwt>
</event>
<event>
 5   1  0.1388354E+00  0.9099331E+02  0.7818608E-02  0.1300464E+00
          1   -1    0    0  501    0  0.00000000000E+00  0.00000000000E+00  0.44601944723E+02  0.44601944967E+02  0.46700000000E-02 0. -1.
         -1   -1    0    0    0  501 -0.00000000000E+00 -0.00000000000E+00 -0.46409309449E+02  0.46409309684E+02  0.46700000000E-02 0.  1.
         23    2    1    2    0    0  0.00000000000E+00  0.00000000000E+00 -0.18073647265E+01  0.91011254651E+02  0.90993306929E+02 0.  0.
        -13    1    3    3    0    0  0.32810170767E+01 -0.13599405572E+02 -0.44204546381E+02  0.46365525967E+02  0.10570000000E+00 0.  1.
         13    1    3    3    0    0 -0.32810170767E+01  0.13599405572E+02  0.42397181655E+02  0.44645728684E+02  0.10570000000E+00 0. -1.
<mgrwt>
<rscale>  0 0.90993307E+02</rscale>
<asrwt>0</asrwt>
<pdfrwt beam="1">  1        1 0.68618376E-02 0.90993307E+02</pdfrwt>
<pdfrwt beam="2">  1       -1 0.71398938E-02 0.90993307E+02</pdfrwt>
<totfact> 0.92691993E+04</totfact>
</mgrwt>
</event>
<event>
 5   1  0.1388354E+00  0.9275947E+02  0.7818608E-02  0.1296304E+00
          1   -1    0    0  501    0  0.00000000000E+00  0.00000000000E+00  0.43841829545E+02  0.43841829794E+02  0.46700000000E-02 0. -1.
         -1   -1    0    0    0  501 -0.00000000000E+00 -0.00000000000E+00 -0.49064553458E+02  0.49064553680E+02  0.46700000000E-02 0.  1.
         23    2    1    2    0    0  0.00000000000E+00  0.00000000000E+00 -0.52227239132E+01  0.92906383474E+02  0.92759469841E+02 0.  0.
        -13    1    3    3    0    0 -0.39159112781E+02  0.18015074944E+02  0.14535612502E+02  0.45489276124E+02  0.10570000000E+00 0.  1.
         13    1    3    3    0    0  0.39159112781E+02 -0.18015074944E+02 -0.19758336416E+02  0.47417107350E+02  0.10570000000E+00 0. -1.
<mgrwt>
<rscale>  0 0.92759470E+02</rscale>
<asrwt>0</asrwt>
<pdfrwt beam="1">  1        1 0.67448969E-02 0.92759470E+02</pdfrwt>
<pdfrwt beam="2">  1       -1 0.75483929E-02 0.92759470E+02</pdfrwt>
<totfact> 0.87577181E+04</totfact>
</mgrwt>
</event>
<event>
 5   1  0.1388354E+00  0.9149899E+02  0.7818608E-02  0.1299262E+00
          1   -1    0    0  501    0  0.00000000000E+00  0.00000000000E+00  0.21874951192E+03  0.21874951197E+03  0.46700000000E-02 0. -1.
         -1   -1    0    0    0  501 -0.00000000000E+00 -0.00000000000E+00 -0.95680955129E+01  0.95680966526E+01  0.46700000000E-02 0.  1.
         23    2    1    2    0    0  0.00000000000E+00  0.00000000000E+00  0.20918141641E+03  0.22831760862E+03  0.91498991453E+02 0.  0.
        -13    1    3    3    0    0 -0.39308761101E+02  0.67133980866E+01  0.16054096256E+03  0.16541964890E+03  0.10570000000E+00 0. -1.
         13    1    3    3    0    0  0.39308761101E+02 -0.67133980866E+01  0.48640453851E+02  0.62897959716E+02  0.10570000000E+00 0.  1.
<mgrwt>
<rscale>  0 0.91498991E+02</rscale>
<asrwt>0</asrwt>
<pdfrwt beam="1">  1        1 0.33653769E-01 0.91498991E+02</pdfrwt>
<pdfrwt beam="2">  1       -1 0.14720149E-02 0.91498991E+02</pdfrwt>
<totfact> 0.11935555E+05</totfact>
</mgrwt>
</event>
<event>
 5   1  0.1388354E+00  0.9909523E+02  0.7818608E-02  0.1282210E+00
          1   -1    0    0  501    0  0.00000000000E+00  0.00000000000E+00  0.24031427946E+03  0.24031427951E+03  0.46700000000E-02 0. -1.
         -1   -1    0    0    0  501 -0.00000000000E+00 -0.00000000000E+00 -0.10215647165E+02  0.10215648233E+02  0.46700000000E-02 0.  1.
         23    2    1    2    0    0  0.00000000000E+00  0.00000000000E+00  0.23009863230E+03  0.25052992774E+03  0.99095227477E+02 0.  0.
        -13    1    3    3    0    0  0.20968484227E+01  0.38714598426E+02  0.37054530712E+02  0.53630833700E+02  0.10570000000E+00 0.  1.
         13    1    3    3    0    0 -0.20968484227E+01 -0.38714598426E+02  0.19304410159E+03  0.19689909404E+03  0.10570000000E+00 0. -1.
<mgrwt>
<rscale>  0 0.99095227E+02</rscale>
<asrwt>0</asrwt>
<pdfrwt beam="1">  1        1 0.36971421E-01 0.99095227E+02</pdfrwt>
<pdfrwt beam="2">  1       -1 0.15716384E-02 0.99095227E+02</pdfrwt>
<totfact> 0.98117154E+04</totfact>
</mgrwt>
</event>
<event>
 5   1  0.1388354E+00  0.9253268E+02  0.7818608E-02  0.1296832E+00
          1   -1    0    0  501    0  0.00000000000E+00  0.00000000000E+00  0.25989011710E+03  0.25989011714E+03  0.46700000000E-02 0. -1.
         -1   -1    0    0    0  501 -0.00000000000E+00 -0.00000000000E+00 -0.82364584082E+01  0.82364597321E+01  0.46700000000E-02 0.  1.
         23    2    1    2    0    0  0.00000000000E+00  0.00000000000E+00  0.25165365869E+03  0.26812657687E+03  0.92532682298E+02 0.  0.
        -13    1    3    3    0    0 -0.38845030216E+02  0.16887028932E+02  0.71892144049E+02  0.83442193566E+02  0.10570000000E+00 0.  1.
         13    1    3    3    0    0  0.38845030216E+02 -0.16887028932E+02  0.17976151464E+03  0.18468438331E+03  0.10570000000E+00 0. -1.
<mgrwt>
<rscale>  0 0.92532682E+02</rscale>
<asrwt>0</asrwt>
<pdfrwt beam="1">  1        1 0.39983089E-01 0.92532682E+02</pdfrwt>
<pdfrwt beam="2">  1       -1 0.12671477E-02 0.92532682E+02</pdfrwt>
<totfact> 0.11978715E+05</totfact>
</mgrwt>
</event>
<event>
 5   1  0.1388354E+00  0.8883305E+02  0.7818608E-02  0.1305702E+00
         -1   -1    0    0    0  501 -0.00000000000E+00  0.00000000000E+00  0.23823291476E+02  0.23823291934E+02  0.46700000000E-02 0.  1.
          1   -1    0    0  501    0  0.00000000000E+00 -0.00000000000E+00 -0.82810872390E+02  0.82810872522E+02  0.46700000000E-02 0. -1.
         23    2    1    2    0    0  0.00000000000E+00  0.00000000000E+00 -0.58987580914E+02  0.10663416446E+03  0.88833047493E+02 0.  0.
        -13    1    3    3    0    0 -0.33280564087E+02 -0.23652241035E+02 -0.50484873103E+02  0.64928869054E+02  0.10570000000E+00 0. -1.
         13    1    3    3    0    0  0.33280564087E+02  0.23652241035E+02 -0.85027078115E+01  0.41705295402E+02  0.10570000000E+00 0.  1.
<mgrwt>
<rscale>  0 0.88833047E+02</rscale>
<asrwt>0</asrwt>
<pdfrwt beam="2">  1        1 0.12740134E-01 0.88833047E+02</pdfrwt>
<pdfrwt beam="1">  1       -1 0.36651219E-02 0.88833047E+02</pdfrwt>
<totfact> 0.10877366E+05</totfact>
</mgrwt>
</event>
<event>
 5   1  0.1388354E+00  0.8972685E+02  0.7818608E-02  0.1303515E+00
         -1   -1    0    0    0  501 -0.00000000000E+00  0.00000000000E+00  0.44751719681E+02  0.44751719925E+02  0.46700000000E-02 0.  1.
          1   -1    0    0  501    0  0.00000000000E+00 -0.00000000000E+00 -0.44975409463E+02  0.44975409705E+02  0.46700000000E-02 0. -1.
         23    2    1    2    0    0  0.00000000000E+00  0.00000000000E+00 -0.22368978144E+00  0.89727129630E+02  0.89726850801E+02 0.  0.
        -13    1    3    3    0    0 -0.90983940990E+01  0.37331080756E+02  0.23046927397E+02  0.44805829984E+02  0.10570000000E+00 0.  1.
         13    1    3    3    0    0  0.90983940990E+01 -0.37331080756E+02 -0.23270617178E+02  0.44921299647E+02  0.10570000000E+00 0. -1.
<mgrwt>
<rscale>  0 0.89726851E+02</rscale>
<asrwt>0</asrwt>
<pdfrwt beam="2">  1        1 0.69192938E-02 0.89726851E+02</pdfrwt>
<pdfrwt beam="1">  1       -1 0.68848800E-02 0.89726851E+02</pdfrwt>
<totfact> 0.96525096E+04</totfact>
</mgrwt>
</event>
<event>
 5   1  0.1388354E+00  0.9078314E+02  0.7818608E-02  0.1300966E+00
          1   -1    0    0  501    0  0.00000000000E+00  0.00000000000E+00  0.69806541532E+02  0.69806541688E+02  0.46700000000E-02 0. -1.
         -1   -1    0    0    0  501 -0.00000000000E+00 -0.00000000000E+00 -0.29515782465E+02  0.29515782835E+02  0.46700000000E-02 0.  1.
         23    2    1    2    0    0  0.00000000000E+00  0.00000000000E+00  0.40290759067E+02  0.99322324523E+02  0.90783142061E+02 0.  0.
        -13    1    3    3    0    0  0.18096722285E+02  0.27600952759E+02  0.54238682680E+02  0.63491336590E+02  0.10570000000E+00 0. -1.
         13    1    3    3    0    0 -0.18096722285E+02 -0.27600952759E+02 -0.13947923613E+02  0.35830987933E+02  0.10570000000E+00 0.  1.
<mgrwt>
<rscale>  0 0.90783142E+02</rscale>
<asrwt>0</asrwt>
<pdfrwt beam="1">  1        1 0.10739468E-01 0.90783142E+02</pdfrwt>
<pdfrwt beam="2">  1       -1 0.45408897E-02 0.90783142E+02</pdfrwt>
<totfact> 0.99808322E+04</totfact>
</mgrwt>
</event>
<event>
 5   1  0.1388354E+00  0.9224301E+02  0.7818608E-02  0.1297509E+00
          1   -1    0    0  501    0  0.00000000000E+00  0.00000000000E+00  0.59057359328E+02  0.59057359513E+02  0.46700000000E-02 0. -1.
         -1   -1    0    0    0  501 -0.00000000000E+00 -0.00000000000E+00 -0.36019102901E+02  0.36019103204E+02  0.46700000000E-02 0.  1.
         23    2    1    2    0    0  0.00000000000E+00  0.00000000000E+00  0.23038256427E+02  0.95076462717E+02  0.92243007884E+02 0.  0.
        -13    1    3    3    0    0 -0.22972987470E+02  0.32377946812E+02 -0.12677327466E+02  0.41675117243E+02  0.10570000000E+00 0.  1.
         13    1    3    3    0    0  0.22972987470E+02 -0.32377946812E+02  0.35715583893E+02  0.53401345474E+02  0.10570000000E+00 0. -1.
<mgrwt>
<rscale>  0 0.92243008E+02</rscale>
<asrwt>0</asrwt>
<pdfrwt beam="1">  1        1 0.90857477E-02 0.92243008E+02</pdfrwt>
<pdfrwt beam="2">  1       -1 0.55414005E-02 0.92243008E+02</pdfrwt>
<totfact> 0.93082516E+04</totfact>
</mgrwt>
</event>
<event>
 5   1  0.1388354E+00  0.9136458E+02  0.7818608E-02  0.1299580E+00
          1   -1    0    0  501    0  0.00000000000E+00  0.00000000000E+00  0.29221147556E+03  0.29221147560E+03  0.46700000000E-02 0. -1.
         -1   -1    0    0    0  501 -0.00000000000E+00 -0.00000000000E+00 -0.71416472718E+01  0.71416487987E+01  0.46700000000E-02 0.  1.
         23    2    1    2    0    0  0.00000000000E+00  0.00000000000E+00  0.28506982829E+03  0.29935312440E+03  0.91364577849E+02 0.  0.
        -13    1    3    3    0    0 -0.23833223692E+02  0.36567969885E+02  0.98378944716E+02  0.10762744496E+03  0.10570000000E+00 0. -1.
         13    1    3    3    0    0  0.23833223692E+02 -0.36567969885E+02  0.18669088357E+03  0.19172567944E+03  0.10570000000E+00 0.  1.
<mgrwt>
<rscale>  0 0.91364578E+02</rscale>
<asrwt>0</asrwt>
<pdfrwt beam="1">  1        1 0.44955610E-01 0.91364578E+02</pdfrwt>
<pdfrwt beam="2">  1       -1 0.10987151E-02 0.91364578E+02</pdfrwt>
<totfact> 0.12678116E+05</totfact>
</mgrwt>
</event>
<event>
 5   1  0.1388354E+00  0.8941464E+02  0.7818608E-02  0.1304275E+00
         -1   -1    0    0    0  501 -0.00000000000E+00  0.00000000000E+00  0.23046699572E+02  0.23046700045E+02  0.46700000000E-02 0.  1.
          1   -1    0    0  501    0  0.00000000000E+00 -0.00000000000E+00 -0.86725847556E+02  0.86725847682E+02  0.46700000000E-02 0. -1.
         23    2    1    2    0    0  0.00000000000E+00  0.00000000000E+00 -0.63679147984E+02  0.10977254773E+03  0.89414642797E+02 0.  0.
        -13    1    3    3    0    0 -0.20962073238E+02  0.37945141906E+02 -0.45259585476E+02  0.62671233901E+02  0.10570000000E+00 0. -1.
         13    1    3    3    0    0  0.20962073238E+02 -0.37945141906E+02 -0.18419562508E+02  0.47101313826E+02  0.10570000000E+00 0.  1.
<mgrwt>
<rscale>  0 0.89414643E+02</rscale>
<asrwt>0</asrwt>
<pdfrwt beam="2">  1        1 0.13342438E-01 0.89414643E+02</pdfrwt>
<pdfrwt beam="1">  1       -1 0.35456462E-02 0.89414643E+02</pdfrwt>
<totfact> 0.10763647E+05</totfact>
</mgrwt>
</event>
<event>
 5   1  0.1388354E+00  0.9141959E+02  0.7818608E-02  0.1299450E+00
         -1   -1    0    0    0  501 -0.00000000000E+00  0.00000000000E+00  0.23215964809E+02  0.23215965279E+02  0.46700000000E-02 0.  1.
          1   -1    0    0  501    0  0.00000000000E+00 -0.00000000000E+00 -0.89997776726E+02  0.89997776847E+02  0.46700000000E-02 0. -1.
         23    2    1    2    0    0  0.00000000000E+00  0.00000000000E+00 -0.66781811917E+02  0.11321374213E+03  0.91419587634E+02 0.  0.
        -13    1    3    3    0    0  0.10682135798E+02  0.37017893367E+02 -0.29318371846E+01  0.38639866671E+02  0.10570000000E+00 0.  1.
         13    1    3    3    0    0 -0.10682135798E+02 -0.37017893367E+02 -0.63849974732E+02  0.74573875455E+02  0.10570000000E+00 0. -1.
<mgrwt>
<rscale>  0 0.91419588E+02</rscale>
<asrwt>0</asrwt>
<pdfrwt beam="2">  1        1 0.13845812E-01 0.91419588E+02</pdfrwt>
<pdfrwt beam="1">  1       -1 0.35716870E-02 0.91419588E+02</pdfrwt>
<totfact> 0.10191540E+05</totfact>
</mgrwt>
</event>
<event>
 5   1  0.1388354E+00  0.1101383E+03  0.7818608E-02  0.1260314E+00
         -1   -1    0    0    0  501 -0.00000000000E+00  0.00000000000E+00  0.93677948461E+01  0.93677960101E+01  0.46700000000E-02 0.  1.
          1   -1    0    0  501    0  0.00000000000E+00 -0.00000000000E+00 -0.32372754400E+03  0.32372754403E+03  0.46700000000E-02 0. -1.
         23    2    1    2    0    0  0.00000000000E+00  0.00000000000E+00 -0.31435974915E+03  0.33309534004E+03  0.11013833879E+03 0.  0.
        -13    1    3    3    0    0 -0.55048285199E+02 -0.13917978999E+01 -0.15538697529E+03  0.16485561582E+03  0.10570000000E+00 0.  1.
         13    1    3    3    0    0  0.55048285199E+02  0.13917978999E+01 -0.15897277386E+03  0.16823972422E+03  0.10570000000E+00 0. -1.
<mgrwt>
<rscale>  0 0.11013834E+03</rscale>
<asrwt>0</asrwt>
<pdfrwt beam="2">  1        1 0.49804229E-01 0.11013834E+03</pdfrwt>
<pdfrwt beam="1">  1       -1 0.14411995E-02 0.11013834E+03</pdfrwt>
<totfact> 0.78208757E+04</totfact>
</mgrwt>
</event>
<event>
 5   1  0.1388354E+00  0.9216550E+02  0.7818608E-02  0.1297691E+00
         -1   -1    0    0    0  501 -0.00000000000E+00  0.00000000000E+00  0.95418710125E+01  0.95418721553E+01  0.46700000000E-02 0.  1.
          1   -1    0    0  501    0  0.00000000000E+00 -0.00000000000E+00 -0.22255799140E+03  0.22255799144E+03  0.46700000000E-02 0. -1.
         23    2    1    2    0    0  0.00000000000E+00  0.00000000000E+00 -0.21301612038E+03  0.23209986360E+03  0.92165498642E+02 0.  0.
        -13    1    3    3    0    0  0.32511947330E+02  0.11845048594E+02 -0.29864286117E+02  0.45707971440E+02  0.10570000000E+00 0.  1.
         13    1    3    3    0    0 -0.32511947330E+02 -0.11845048594E+02 -0.18315183427E+03  0.18639189216E+03  0.10570000000E+00 0. -1.
<mgrwt>
<rscale>  0 0.92165499E+02</rscale>
<asrwt>0</asrwt>
<pdfrwt beam="2">  1        1 0.34239687E-01 0.92165499E+02</pdfrwt>
<pdfrwt beam="1">  1       -1 0.14679804E-02 0.92165499E+02</pdfrwt>
<totfact> 0.11745103E+05</totfact>
</mgrwt>
</event>
<event>
 5   1  0.1388354E+00  0.9146793E+02  0.7818608E-02  0.1299335E+00
          1   -1    0    0  501    0  0.00000000000E+00  0.00000000000E+00  0.59111561138E+02  0.59111561323E+02  0.46700000000E-02 0. -1.
         -1   -1    0    0    0  501 -0.00000000000E+00 -0.00000000000E+00 -0.35383865364E+02  0.35383865672E+02  0.46700000000E-02 0.  1.
         23    2    1    2    0    0  0.00000000000E+00  0.00000000000E+00  0.23727695774E+02  0.94495426995E+02  0.91467929769E+02 0.  0.
        -13    1    3    3    0    0  0.15365654313E+02 -0.11414669253E+02  0.54773989785E+02  0.58022402019E+02  0.10570000000E+00 0. -1.
         13    1    3    3    0    0 -0.15365654313E+02  0.11414669253E+02 -0.31046294011E+02  0.36473024976E+02  0.10570000000E+00 0.  1.
<mgrwt>
<rscale>  0 0.91467930E+02</rscale>
<asrwt>0</asrwt>
<pdfrwt beam="1">  1        1 0.90940863E-02 0.91467930E+02</pdfrwt>
<pdfrwt beam="2">  1       -1 0.54436716E-02 0.91467930E+02</pdfrwt>
<totfact> 0.95306132E+04</totfact>
</mgrwt>
</event>
<event>
 5   1  0.1388354E+00  0.9053830E+02  0.7818608E-02  0.1301553E+00
          1   -1    0    0  501    0  0.00000000000E+00  0.00000000000E+00  0.67399783715E+02  0.67399783877E+02  0.46700000000E-02 0. -1.
         -1   -1    0    0    0  501 -0.00000000000E+00 -0.00000000000E+00 -0.30405081460E+02  0.30405081819E+02  0.46700000000E-02 0.  1.
         23    2    1    2    0    0  0.00000000000E+00  0.00000000000E+00  0.36994702254E+02  0.97804865696E+02  0.90538299956E+02 0.  0.
        -13    1    3    3    0    0 -0.29454661888E+02  0.26372923553E+02  0.42316439481E+02  0.57912005893E+02  0.10570000000E+00 0. -1.
         13    1    3    3    0    0  0.29454661888E+02 -0.26372923553E+02 -0.53217372262E+01  0.39892859803E+02  0.10570000000E+00 0.  1.
<mgrwt>
<rscale>  0 0.90538300E+02</rscale>
<asrwt>0</asrwt>
<pdfrwt beam="1">  1        1 0.10369198E-01 0.90538300E+02</pdfrwt>
<pdfrwt beam="2">  1       -1 0.46777049E-02 0.90538300E+02</pdfrwt>
<totfact> 0.10001423E+05</totfact>
</mgrwt>
</event>
<event>
 5   1  0.1388354E+00  0.8533661E+02  0.7818608E-02  0.1314555E+00
         -1   -1    0    0    0  501 -0.00000000000E+00  0.00000000000E+00  0.55604916192E+01  0.55604935802E+01  0.46700000000E-02 0.  1.
          1   -1    0    0  501    0  0.00000000000E+00 -0.00000000000E+00 -0.32741418987E+03  0.32741418990E+03  0.46700000000E-02 0. -1.
         23    2    1    2    0    0  0.00000000000E+00  0.00000000000E+00 -0.32185369825E+03  0.33297468348E+03  0.85336608576E+02 0.  0.
        -13    1    3    3    0    0  0.10549763276E+02 -0.40071697258E+02 -0.12122428337E+03  0.12811079767E+03  0.10570000000E+00 0.  1.
         13    1    3    3    0    0 -0.10549763276E+02  0.40071697258E+02 -0.20062941488E+03  0.20486388582E+03  0.10570000000E+00 0. -1.
<mgrwt>
<rscale>  0 0.85336609E+02</rscale>
<asrwt>0</asrwt>
<pdfrwt beam="2">  1        1 0.50371399E-01 0.85336609E+02</pdfrwt>
<pdfrwt beam="1">  1       -1 0.85546066E-03 0.85336609E+02</pdfrwt>
<totfact> 0.15523029E+05</totfact>
</mgrwt>
</event>
<event>
 5   1  0.1388354E+00  0.8577035E+02  0.7818608E-02  0.1313430E+00
         -1   -1    0    0    0  501 -0.00000000000E+00  0.00000000000E+00  0.44352944417E+02  0.44352944663E+02  0.46700000000E-02 0.  1.
          1   -1    0    0  501    0  0.00000000000E+00 -0.00000000000E+00 -0.41465973237E+02  0.41465973500E+02  0.46700000000E-02 0. -1.
         23    2    1    2    0    0  0.00000000000E+00  0.00000000000E+00  0.28869711800E+01  0.85818918162E+02  0.85770345178E+02 0.  0.
        -13    1    3    3    0    0  0.30071823759E+02  0.25675436286E+02 -0.15166645833E+02  0.42350689852E+02  0.10570000000E+00 0. -1.
         13    1    3    3    0    0 -0.30071823759E+02 -0.25675436286E+02  0.18053617013E+02  0.43468228310E+02  0.10570000000E+00 0.  1.
<mgrwt>
<rscale>  0 0.85770345E+02</rscale>
<asrwt>0</asrwt>
<pdfrwt beam="2">  1        1 0.63793805E-02 0.85770345E+02</pdfrwt>
<pdfrwt beam="1">  1       -1 0.68235300E-02 0.85770345E+02</pdfrwt>
<totfact> 0.10819728E+05</totfact>
</mgrwt>
</event>
<event>
 5   1  0.1388354E+00  0.9086089E+02  0.7818608E-02  0.1300780E+00
          1   -1    0    0  501    0  0.00000000000E+00  0.00000000000E+00  0.10357756072E+03  0.10357756083E+03  0.46700000000E-02 0. -1.
         -1   -1    0    0    0  501 -0.00000000000E+00 -0.00000000000E+00 -0.19926374759E+02  0.19926375306E+02  0.46700000000E-02 0.  1.
         23    2    1    2    0    0  0.00000000000E+00  0.00000000000E+00  0.83651185963E+02  0.12350393613E+03  0.90860889977E+02 0.  0.
        -13    1    3    3    0    0  0.23696449489E+02  0.38143132349E+02  0.32458114387E+02  0.55407225394E+02  0.10570000000E+00 0.  1.
         13    1    3    3    0    0 -0.23696449489E+02 -0.38143132349E+02  0.51193071576E+02  0.68096710740E+02  0.10570000000E+00 0. -1.
<mgrwt>
<rscale>  0 0.90860890E+02</rscale>
<asrwt>0</asrwt>
<pdfrwt beam="1">  1        1 0.15935009E-01 0.90860890E+02</pdfrwt>
<pdfrwt beam="2">  1       -1 0.30655962E-02 0.90860890E+02</pdfrwt>
<totfact> 0.10606422E+05</totfact>
</mgrwt>
</event>
<event>
 5   1  0.1388354E+00  0.9244293E+02  0.7818608E-02  0.1297041E+00
          1   -1    0    0  501    0  0.00000000000E+00  0.00000000000E+00  0.14882640686E+02  0.14882641419E+02  0.46700000000E-02 0. -1.
         -1   -1    0    0    0  501 -0.00000000000E+00 -0.00000000000E+00 -0.14355140304E+03  0.14355140311E+03  0.46700000000E-02 0.  1.
         23    2    1    2    0    0  0.00000000000E+00  0.00000000000E+00 -0.12866876235E+03  0.15843404453E+03  0.92442934084E+02 0.  0.
        -13    1    3    3    0    0 -0.17640102097E+02 -0.40718657067E+02 -0.86497591703E+02  0.97216391510E+02  0.10570000000E+00 0. -1.
         13    1    3    3    0    0  0.17640102097E+02  0.40718657067E+02 -0.42171170650E+02  0.61217653024E+02  0.10570000000E+00 0.  1.
<mgrwt>
<rscale>  0 0.92442934E+02</rscale>
<asrwt>0</asrwt>
<pdfrwt beam="1">  1        1 0.22896372E-02 0.92442934E+02</pdfrwt>
<pdfrwt beam="2">  1       -1 0.22084830E-01 0.92442934E+02</pdfrwt>
<totfact> 0.72893370E+04</totfact>
</mgrwt>
</event>
<event>
 5   1  0.1388354E+00  0.9142343E+02  0.7818608E-02  0.1299441E+00
         -1   -1    0    0    0  501 -0.00000000000E+00  0.00000000000E+00  0.13468484057E+03  0.13468484065E+03  0.46700000000E-02 0.  1.
          1   -1    0    0  501    0  0.00000000000E+00 -0.00000000000E+00 -0.15514447591E+02  0.15514448294E+02  0.46700000000E-02 0. -1.
         23    2    1    2    0    0  0.00000000000E+00  0.00000000000E+00  0.11917039298E+03  0.15019928895E+03  0.91423431552E+02 0.  0.
        -13    1    3    3    0    0  0.24760592840E+02  0.68707047899E+01  0.12169575114E+03  0.12437910017E+03  0.10570000000E+00 0.  1.
         13    1    3    3    0    0 -0.24760592840E+02 -0.68707047899E+01 -0.25253581553E+01  0.25820188776E+02  0.10570000000E+00 0. -1.
<mgrwt>
<rscale>  0 0.91423432E+02</rscale>
<asrwt>0</asrwt>
<pdfrwt beam="2">  1        1 0.23868381E-02 0.91423432E+02</pdfrwt>
<pdfrwt beam="1">  1       -1 0.20720745E-01 0.91423432E+02</pdfrwt>
<totfact> 0.76099630E+04</totfact>
</mgrwt>
</event>
<event>
 4   1  0.1388354E+00  0.2359560E+02  0.7818608E-02  0.1682034E+00
         -1   -1    0    0    0  501 -0.00000000000E+00  0.00000000000E+00  0.81029998891E+01  0.81030012348E+01  0.46700000000E-02 0. -1.
          1   -1    0    0  501    0  0.00000000000E+00 -0.00000000000E+00 -0.17177345480E+02  0.17177346115E+02  0.46700000000E-02 0.  1.
        -13    1    1    2    0    0 -0.79589855906E+01 -0.84034293717E+01 -0.20907617987E+01  0.11762037843E+02  0.10570000000E+00 0.  1.
         13    1    1    2    0    0  0.79589855906E+01  0.84034293717E+01 -0.69835837920E+01  0.13518309506E+02  0.10570000000E+00 0. -1.
<mgrwt>
<rscale>  0 0.23595597E+02</rscale>
<asrwt>0</asrwt>
<pdfrwt beam="2">  1        1 0.26426687E-02 0.23595597E+02</pdfrwt>
<pdfrwt beam="1">  1       -1 0.12466155E-02 0.23595597E+02</pdfrwt>
<totfact> 0.27052870E+06</totfact>
</mgrwt>
</event>
<event>
 5   1  0.1388354E+00  0.9061764E+02  0.7818608E-02  0.1301363E+00
          1   -1    0    0  501    0  0.00000000000E+00  0.00000000000E+00  0.13396394345E+03  0.13396394353E+03  0.46700000000E-02 0. -1.
         -1   -1    0    0    0  501 -0.00000000000E+00 -0.00000000000E+00 -0.15324192681E+02  0.15324193393E+02  0.46700000000E-02 0.  1.
         23    2    1    2    0    0  0.00000000000E+00  0.00000000000E+00  0.11863975077E+03  0.14928813692E+03  0.90617643776E+02 0.  0.
        -13    1    3    3    0    0  0.10846105250E+02  0.22918931084E+02  0.12118079258E+03  0.12380513343E+03  0.10570000000E+00 0. -1.
         13    1    3    3    0    0 -0.10846105250E+02 -0.22918931084E+02 -0.25410418099E+01  0.25483003494E+02  0.10570000000E+00 0.  1.
<mgrwt>
<rscale>  0 0.90617644E+02</rscale>
<asrwt>0</asrwt>
<pdfrwt beam="1">  1        1 0.20609838E-01 0.90617644E+02</pdfrwt>
<pdfrwt beam="2">  1       -1 0.23575682E-02 0.90617644E+02</pdfrwt>
<totfact> 0.11169634E+05</totfact>
</mgrwt>
</event>
<event>
 5   1  0.1388354E+00  0.9081225E+02  0.7818608E-02  0.1300897E+00
         -1   -1    0    0    0  501 -0.00000000000E+00  0.00000000000E+00  0.89702714097E+01  0.89702726253E+01  0.46700000000E-02 0.  1.
          1   -1    0    0  501    0  0.00000000000E+00 -0.00000000000E+00 -0.22983878164E+03  0.22983878168E+03  0.46700000000E-02 0. -1.
         23    2    1    2    0    0  0.00000000000E+00  0.00000000000E+00 -0.22086851023E+03  0.23880905431E+03  0.90812254736E+02 0.  0.
        -13    1    3    3    0    0 -0.15540242722E+02 -0.36190722584E+02 -0.16984673705E+03  0.17435364294E+03  0.10570000000E+00 0. -1.
         13    1    3    3    0    0  0.15540242722E+02  0.36190722584E+02 -0.51021773173E+02  0.64455411373E+02  0.10570000000E+00 0.  1.
<mgrwt>
<rscale>  0 0.90812255E+02</rscale>
<asrwt>0</asrwt>
<pdfrwt beam="2">  1        1 0.35359808E-01 0.90812255E+02</pdfrwt>
<pdfrwt beam="1">  1       -1 0.13800420E-02 0.90812255E+02</pdfrwt>
<totfact> 0.12296884E+05</totfact>
</mgrwt>
</event>
<event>
 5   1  0.1388354E+00  0.8755755E+02  0.7818608E-02  0.1308877E+00
          1   -1    0    0  501    0  0.00000000000E+00  0.00000000000E+00  0.59237913910E+02  0.59237914095E+02  0.46700000000E-02 0. -1.
         -1   -1    0    0    0  501 -0.00000000000E+00 -0.00000000000E+00 -0.32353960490E+02  0.32353960827E+02  0.46700000000E-02 0.  1.
         23    2    1    2    0    0  0.00000000000E+00  0.00000000000E+00  0.26883953421E+02  0.91591874921E+02  0.87557550217E+02 0.  0.
        -13    1    3    3    0    0  0.33467568602E+02 -0.24639889581E+02 -0.95317565757E+00  0.41570687065E+02  0.10570000000E+00 0.  1.
         13    1    3    3    0    0 -0.33467568602E+02  0.24639889581E+02  0.27837129078E+02  0.50021187856E+02  0.10570000000E+00 0. -1.
<mgrwt>
<rscale>  0 0.87557550E+02</rscale>
<asrwt>0</asrwt>
<pdfrwt beam="1">  1        1 0.91135252E-02 0.87557550E+02</pdfrwt>
<pdfrwt beam="2">  1       -1 0.49775325E-02 0.87557550E+02</pdfrwt>
<totfact> 0.10758140E+05</totfact>
</mgrwt>
</event>
<event>
 5   1  0.1388354E+00  0.9216229E+02  0.7818608E-02  0.1297698E+00
         -1   -1    0    0    0  501 -0.00000000000E+00  0.00000000000E+00  0.16994007967E+03  0.16994007973E+03  0.46700000000E-02 0.  1.
          1   -1    0    0  501    0  0.00000000000E+00 -0.00000000000E+00 -0.12495415697E+02  0.12495416569E+02  0.46700000000E-02 0. -1.
         23    2    1    2    0    0  0.00000000000E+00  0.00000000000E+00  0.15744466397E+03  0.18243549630E+03  0.92162292168E+02 0.  0.
        -13    1    3    3    0    0 -0.43511135442E+02 -0.10039882640E+01  0.48751724506E+02  0.65352648873E+02  0.10570000000E+00 0. -1.
         13    1    3    3    0    0  0.43511135442E+02  0.10039882640E+01  0.10869293946E+03  0.11708284743E+03  0.10570000000E+00 0.  1.
<mgrwt>
<rscale>  0 0.92162292E+02</rscale>
<asrwt>0</asrwt>
<pdfrwt beam="2">  1        1 0.19223719E-02 0.92162292E+02</pdfrwt>
<pdfrwt beam="1">  1       -1 0.26144625E-01 0.92162292E+02</pdfrwt>
<totfact> 0.70542966E+04</totfact>
</mgrwt>
</event>
<event>
 5   1  0.1388354E+00  0.9094651E+02  0.7818608E-02  0.1300576E+00
          1   -1    0    0  501    0  0.00000000000E+00  0.00000000000E+00  0.12955576067E+03  0.12955576075E+03  0.46700000000E-02 0. -1.
         -1   -1    0    0    0  501 -0.00000000000E+00 -0.00000000000E+00 -0.15960825032E+02  0.15960825715E+02  0.46700000000E-02 0.  1.
         23    2    1    2    0    0  0.00000000000E+00  0.00000000000E+00  0.11359493563E+03  0.14551658646E+03  0.90946509195E+02 0.  0.
        -13    1    3    3    0    0 -0.28879067990E+02  0.82461190772E+01  0.11142854087E+03  0.11540506896E+03  0.10570000000E+00 0. -1.
         13    1    3    3    0    0  0.28879067990E+02 -0.82461190772E+01  0.21663947622E+01  0.30111517507E+02  0.10570000000E+00 0.  1.
<mgrwt>
<rscale>  0 0.90946509E+02</rscale>
<asrwt>0</asrwt>
<pdfrwt beam="1">  1        1 0.19931657E-01 0.90946509E+02</pdfrwt>
<pdfrwt beam="2">  1       -1 0.24555115E-02 0.90946509E+02</pdfrwt>
<totfact> 0.10995100E+05</totfact>
</mgrwt>
</event>
<event>
 5   1  0.1388354E+00  0.9238551E+02  0.7818608E-02  0.1297176E+00
         -1   -1    0    0    0  501 -0.00000000000E+00  0.00000000000E+00  0.11215871829E+02  0.11215872801E+02  0.46700000000E-02 0.  1.
          1   -1    0    0  501    0  0.00000000000E+00 -0.00000000000E+00 -0.19024560414E+03  0.19024560420E+03  0.46700000000E-02 0. -1.
         23    2    1    2    0    0  0.00000000000E+00  0.00000000000E+00 -0.17902973232E+03  0.20146147700E+03  0.92385505700E+02 0.  0.
        -13    1    3    3    0    0  0.30722169272E+02 -0.14881914678E+02 -0.15737640052E+03  0.16103622475E+03  0.10570000000E+00 0. -1.
         13    1    3    3    0    0 -0.30722169272E+02  0.14881914678E+02 -0.21653331795E+02  0.40425252251E+02  0.10570000000E+00 0.  1.
<mgrwt>
<rscale>  0 0.92385506E+02</rscale>
<asrwt>0</asrwt>
<pdfrwt beam="2">  1        1 0.29268552E-01 0.92385506E+02</pdfrwt>
<pdfrwt beam="1">  1       -1 0.17255190E-02 0.92385506E+02</pdfrwt>
<totfact> 0.11318742E+05</totfact>
</mgrwt>
</event>
<event>
 5   1  0.1388354E+00  0.9166221E+02  0.7818608E-02  0.1298876E+00
         -1   -1    0    0    0  501 -0.00000000000E+00  0.00000000000E+00  0.13273241793E+02  0.13273242614E+02  0.46700000000E-02 0.  1.
          1   -1    0    0  501    0  0.00000000000E+00 -0.00000000000E+00 -0.15824997078E+03  0.15824997085E+03  0.46700000000E-02 0. -1.
         23    2    1    2    0    0  0.00000000000E+00  0.00000000000E+00 -0.14497672899E+03  0.17152321346E+03  0.91662210364E+02 0.  0.
        -13    1    3    3    0    0 -0.27455147107E+02 -0.25625840495E+02 -0.23334197302E+02  0.44214983206E+02  0.10570000000E+00 0.  1.
         13    1    3    3    0    0  0.27455147107E+02  0.25625840495E+02 -0.12164253169E+03  0.12730823026E+03  0.10570000000E+00 0. -1.
<mgrwt>
<rscale>  0 0.91662210E+02</rscale>
<asrwt>0</asrwt>
<pdfrwt beam="2">  1        1 0.24346148E-01 0.91662210E+02</pdfrwt>
<pdfrwt beam="1">  1       -1 0.20420374E-02 0.91662210E+02</pdfrwt>
<totfact> 0.11163769E+05</totfact>
</mgrwt>
</event>
<event>
 5   1  0.1388354E+00  0.9220512E+02  0.7818608E-02  0.1297598E+00
          1   -1    0    0  501    0  0.00000000000E+00  0.00000000000E+00  0.10271175838E+03  0.10271175849E+03  0.46700000000E-02 0. -1.
         -1   -1    0    0    0  501 -0.00000000000E+00 -0.00000000000E+00 -0.20693307745E+02  0.20693308272E+02  0.46700000000E-02 0.  1.
         23    2    1    2    0    0  0.00000000000E+00  0.00000000000E+00  0.82018450635E+02  0.12340506676E+03  0.92205120556E+02 0.  0.
        -13    1    3    3    0    0 -0.33760075545E+02  0.27472645565E+02  0.20670060577E+02  0.48184556985E+02  0.10570000000E+00 0.  1.
         13    1    3    3    0    0  0.33760075545E+02 -0.27472645565E+02  0.61348390058E+02  0.75220509772E+02  0.10570000000E+00 0. -1.
<mgrwt>
<rscale>  0 0.92205121E+02</rscale>
<asrwt>0</asrwt>
<pdfrwt beam="1">  1        1 0.15801809E-01 0.92205121E+02</pdfrwt>
<pdfrwt beam="2">  1       -1 0.31835858E-02 0.92205121E+02</pdfrwt>
<totfact> 0.10175713E+05</totfact>
</mgrwt>
</event>
<event>
 5   1  0.1388354E+00  0.9333844E+02  0.7818608E-02  0.1294963E+00
          1   -1    0    0  501    0  0.00000000000E+00  0.00000000000E+00  0.32595323151E+02  0.32595323485E+02  0.46700000000E-02 0.  1.
         -1   -1    0    0    0  501 -0.00000000000E+00 -0.00000000000E+00 -0.66819897688E+02  0.66819897851E+02  0.46700000000E-02 0. -1.
         23    2    1    2    0    0  0.00000000000E+00  0.00000000000E+00 -0.34224574537E+02  0.99415221336E+02  0.93338441872E+02 0.  0.
        -13    1    3    3    0    0 -0.12200603870E+02  0.87872034013E+01  0.29944800846E+02  0.33507789373E+02  0.10570000000E+00 0.  1.
         13    1    3    3    0    0  0.12200603870E+02 -0.87872034013E+01 -0.64169375384E+02  0.65907431964E+02  0.10570000000E+00 0. -1.
<mgrwt>
<rscale>  0 0.93338442E+02</rscale>
<asrwt>0</asrwt>
<pdfrwt beam="1">  1        1 0.50146651E-02 0.93338442E+02</pdfrwt>
<pdfrwt beam="2">  1       -1 0.10279984E-01 0.93338442E+02</pdfrwt>
<totfact> 0.82134963E+04</totfact>
</mgrwt>
</event>
<event>
 5   1  0.1388354E+00  0.8679579E+02  0.7818608E-02  0.1310802E+00
         -1   -1    0    0    0  501 -0.00000000000E+00  0.00000000000E+00  0.23982449539E+02  0.23982449993E+02  0.46700000000E-02 0.  1.
          1   -1    0    0  501    0  0.00000000000E+00 -0.00000000000E+00 -0.78531475366E+02  0.78531475505E+02  0.46700000000E-02 0. -1.
         23    2    1    2    0    0  0.00000000000E+00  0.00000000000E+00 -0.54549025828E+02  0.10251392550E+03  0.86795787354E+02 0.  0.
        -13    1    3    3    0    0  0.13992589011E+02 -0.36921033505E+02 -0.60013616003E+01  0.39937235456E+02  0.10570000000E+00 0.  1.
         13    1    3    3    0    0 -0.13992589011E+02  0.36921033505E+02 -0.48547664227E+02  0.62576690043E+02  0.10570000000E+00 0. -1.
<mgrwt>
<rscale>  0 0.86795787E+02</rscale>
<asrwt>0</asrwt>
<pdfrwt beam="2">  1        1 0.12081765E-01 0.86795787E+02</pdfrwt>
<pdfrwt beam="1">  1       -1 0.36896077E-02 0.86795787E+02</pdfrwt>
<totfact> 0.11493219E+05</totfact>
</mgrwt>
</event>
<event>
 5   1  0.1388354E+00  0.9051766E+02  0.7818608E-02  0.1301603E+00
          1   -1    0    0  501    0  0.00000000000E+00  0.00000000000E+00  0.33337724184E+02  0.33337724511E+02  0.46700000000E-02 0. -1.
         -1   -1    0    0    0  501 -0.00000000000E+00 -0.00000000000E+00 -0.61442753477E+02  0.61442753655E+02  0.46700000000E-02 0.  1.
         23    2    1    2    0    0  0.00000000000E+00  0.00000000000E+00 -0.28105029294E+02  0.94780478166E+02  0.90517657779E+02 0.  0.
        -13    1    3    3    0    0  0.38890667914E+01 -0.44465884498E+02 -0.62160339273E+01  0.45066506132E+02  0.10570000000E+00 0. -1.
         13    1    3    3    0    0 -0.38890667914E+01  0.44465884498E+02 -0.21888995366E+02  0.49713972033E+02  0.10570000000E+00 0.  1.
<mgrwt>
<rscale>  0 0.90517658E+02</rscale>
<asrwt>0</asrwt>
<pdfrwt beam="1">  1        1 0.51288807E-02 0.90517658E+02</pdfrwt>
<pdfrwt beam="2">  1       -1 0.94527313E-02 0.90517658E+02</pdfrwt>
<totfact> 0.89992959E+04</totfact>
</mgrwt>
</event>
<event>
 5   1  0.1388354E+00  0.9265533E+02  0.7818608E-02  0.1296546E+00
         -1   -1    0    0    0  501 -0.00000000000E+00  0.00000000000E+00  0.32832061542E+02  0.32832061874E+02  0.46700000000E-02 0.  1.
          1   -1    0    0  501    0  0.00000000000E+00 -0.00000000000E+00 -0.65370625168E+02  0.65370625335E+02  0.46700000000E-02 0. -1.
         23    2    1    2    0    0  0.00000000000E+00  0.00000000000E+00 -0.32538563626E+02  0.98202687209E+02  0.92655327166E+02 0.  0.
        -13    1    3    3    0    0  0.18265922178E+02  0.11886175026E+02  0.27060079320E+02  0.34744555474E+02  0.10570000000E+00 0.  1.
         13    1    3    3    0    0 -0.18265922178E+02 -0.11886175026E+02 -0.59598642946E+02  0.63458131735E+02  0.10570000000E+00 0. -1.
<mgrwt>
<rscale>  0 0.92655327E+02</rscale>
<asrwt>0</asrwt>
<pdfrwt beam="2">  1        1 0.10057019E-01 0.92655327E+02</pdfrwt>
<pdfrwt beam="1">  1       -1 0.50510864E-02 0.92655327E+02</pdfrwt>
<totfact> 0.93379827E+04</totfact>
</mgrwt>
</event>
<event>
 5   1  0.1388354E+00  0.9344044E+02  0.7818608E-02  0.1294728E+00
          1   -1    0    0  501    0  0.00000000000E+00  0.00000000000E+00  0.56411661207E+02  0.56411661400E+02  0.46700000000E-02 0. -1.
         -1   -1    0    0    0  501 -0.00000000000E+00 -0.00000000000E+00 -0.38693757486E+02  0.38693757768E+02  0.46700000000E-02 0.  1.
         23    2    1    2    0    0  0.00000000000E+00  0.00000000000E+00  0.17717903721E+02  0.95105419168E+02  0.93440444364E+02 0.  0.
        -13    1    3    3    0    0 -0.22124691768E+02  0.36656939112E+02  0.27887935389E+02  0.51097762022E+02  0.10570000000E+00 0. -1.
         13    1    3    3    0    0  0.22124691768E+02 -0.36656939112E+02 -0.10170031669E+02  0.44007657146E+02  0.10570000000E+00 0.  1.
<mgrwt>
<rscale>  0 0.93440444E+02</rscale>
<asrwt>0</asrwt>
<pdfrwt beam="1">  1        1 0.86787171E-02 0.93440444E+02</pdfrwt>
<pdfrwt beam="2">  1       -1 0.59528858E-02 0.93440444E+02</pdfrwt>
<totfact> 0.89167682E+04</totfact>
</mgrwt>
</event>
<event>
 5   1  0.1388354E+00  0.7056135E+02  0.7818608E-02  0.1358194E+00
          1   -1    0    0  501    0  0.00000000000E+00  0.00000000000E+00  0.39911467770E+03  0.39911467773E+03  0.46700000000E-02 0. -1.
         -1   -1    0    0    0  501 -0.00000000000E+00 -0.00000000000E+00 -0.31187163292E+01  0.31187198257E+01  0.46700000000E-02 0.  1.
         23    2    1    2    0    0  0.00000000000E+00  0.00000000000E+00  0.39599596137E+03  0.40223339755E+03  0.70561354048E+02 0.  0.
        -13    1    3    3    0    0 -0.27870824019E+02  0.21579233227E+02  0.20658446004E+03  0.20957002754E+03  0.10570000000E+00 0. -1.
         13    1    3    3    0    0  0.27870824019E+02 -0.21579233227E+02  0.18941150133E+03  0.19266337002E+03  0.10570000000E+00 0.  1.
<mgrwt>
<rscale>  0 0.70561354E+02</rscale>
<asrwt>0</asrwt>
<pdfrwt beam="1">  1        1 0.61402277E-01 0.70561354E+02</pdfrwt>
<pdfrwt beam="2">  1       -1 0.47980264E-03 0.70561354E+02</pdfrwt>
<totfact> 0.26395684E+05</totfact>
</mgrwt>
</event>
<event>
 5   1  0.1388354E+00  0.9411699E+02  0.7818608E-02  0.1293177E+00
          1   -1    0    0  501    0  0.00000000000E+00  0.00000000000E+00  0.42426864141E+02  0.42426864398E+02  0.46700000000E-02 0. -1.
         -1   -1    0    0    0  501 -0.00000000000E+00 -0.00000000000E+00 -0.52195743524E+02  0.52195743733E+02  0.46700000000E-02 0.  1.
         23    2    1    2    0    0  0.00000000000E+00  0.00000000000E+00 -0.97688793826E+01  0.94622608132E+02  0.94116985530E+02 0.  0.
        -13    1    3    3    0    0  0.16975366266E+02 -0.85226657226E+01  0.38401380986E+02  0.42842457037E+02  0.10570000000E+00 0. -1.
         13    1    3    3    0    0 -0.16975366266E+02  0.85226657226E+01 -0.48170260368E+02  0.51780151094E+02  0.10570000000E+00 0.  1.
<mgrwt>
<rscale>  0 0.94116986E+02</rscale>
<asrwt>0</asrwt>
<pdfrwt beam="1">  1        1 0.65272099E-02 0.94116986E+02</pdfrwt>
<pdfrwt beam="2">  1       -1 0.80301145E-02 0.94116986E+02</pdfrwt>
<totfact> 0.83627179E+04</totfact>
</mgrwt>
</event>
<event>
 5   1  0.1388354E+00  0.9504639E+02  0.7818608E-02  0.1291072E+00
         -1   -1    0    0    0  501 -0.00000000000E+00  0.00000000000E+00  0.16582721375E+02  0.16582722033E+02  0.46700000000E-02 0.  1.
          1   -1    0    0  501    0  0.00000000000E+00 -0.00000000000E+00 -0.13619320898E+03  0.13619320906E+03  0.46700000000E-02 0. -1.
         23    2    1    2    0    0  0.00000000000E+00  0.00000000000E+00 -0.11961048760E+03  0.15277593109E+03  0.95046390652E+02 0.  0.
        -13    1    3    3    0    0  0.36774872520E+02  0.28441900293E+02 -0.43965387290E+02  0.63986712630E+02  0.10570000000E+00 0.  1.
         13    1    3    3    0    0 -0.36774872520E+02 -0.28441900293E+02 -0.75645100312E+02  0.88789218460E+02  0.10570000000E+00 0. -1.
<mgrwt>
<rscale>  0 0.95046391E+02</rscale>
<asrwt>0</asrwt>
<pdfrwt beam="2">  1        1 0.20952801E-01 0.95046391E+02</pdfrwt>
<pdfrwt beam="1">  1       -1 0.25511880E-02 0.95046391E+02</pdfrwt>
<totfact> 0.98432726E+04</totfact>
</mgrwt>
</event>
<event>
 5   1  0.1388354E+00  0.8741702E+02  0.7818608E-02  0.1309230E+00
          1   -1    0    0  501    0  0.00000000000E+00  0.00000000000E+00  0.14909701055E+03  0.14909701063E+03  0.46700000000E-02 0. -1.
         -1   -1    0    0    0  501 -0.00000000000E+00 -0.00000000000E+00 -0.12813360321E+02  0.12813361172E+02  0.46700000000E-02 0.  1.
         23    2    1    2    0    0  0.00000000000E+00  0.00000000000E+00  0.13628365023E+03  0.16191037180E+03  0.87417018797E+02 0.  0.
        -13    1    3    3    0    0 -0.36563114818E+02  0.31580240731E+01  0.24171507651E+02  0.43944367510E+02  0.10570000000E+00 0.  1.
         13    1    3    3    0    0  0.36563114818E+02 -0.31580240731E+01  0.11211214258E+03  0.11796600429E+03  0.10570000000E+00 0. -1.
<mgrwt>
<rscale>  0 0.87417019E+02</rscale>
<asrwt>0</asrwt>
<pdfrwt beam="1">  1        1 0.22938001E-01 0.87417019E+02</pdfrwt>
<pdfrwt beam="2">  1       -1 0.19712863E-02 0.87417019E+02</pdfrwt>
<totfact> 0.12544029E+05</totfact>
</mgrwt>
</event>
<event>
 5   1  0.1388354E+00  0.9092895E+02  0.7818608E-02  0.1300618E+00
         -1   -1    0    0    0  501 -0.00000000000E+00  0.00000000000E+00  0.24042189286E+02  0.24042189739E+02  0.46700000000E-02 0.  1.
          1   -1    0    0  501    0  0.00000000000E+00 -0.00000000000E+00 -0.85974633972E+02  0.85974634099E+02  0.46700000000E-02 0. -1.
         23    2    1    2    0    0  0.00000000000E+00  0.00000000000E+00 -0.61932444687E+02  0.11001682384E+03  0.90928949310E+02 0.  0.
        -13    1    3    3    0    0  0.66074650364E+01 -0.44933985932E+02 -0.28461482608E+02  0.53598403434E+02  0.10570000000E+00 0.  1.
         13    1    3    3    0    0 -0.66074650364E+01  0.44933985932E+02 -0.33470962078E+02  0.56418420404E+02  0.10570000000E+00 0. -1.
<mgrwt>
<rscale>  0 0.90928949E+02</rscale>
<asrwt>0</asrwt>
<pdfrwt beam="2">  1        1 0.13226867E-01 0.90928949E+02</pdfrwt>
<pdfrwt beam="1">  1       -1 0.36987984E-02 0.90928949E+02</pdfrwt>
<totfact> 0.10266791E+05</totfact>
</mgrwt>
</event>
<event>
 5   1  0.1388354E+00  0.8909979E+02  0.7818608E-02  0.1305046E+00
          1   -1    0    0  501    0  0.00000000000E+00  0.00000000000E+00  0.18085767815E+02  0.18085768418E+02  0.46700000000E-02 0. -1.
         -1   -1    0    0    0  501 -0.00000000000E+00 -0.00000000000E+00 -0.10973784747E+03  0.10973784757E+03  0.46700000000E-02 0.  1.
         23    2    1    2    0    0  0.00000000000E+00  0.00000000000E+00 -0.91652079658E+02  0.12782361599E+03  0.89099792924E+02 0.  0.
        -13    1    3    3    0    0  0.27357951214E+02  0.35143133492E+02 -0.44264501909E+02  0.62792154192E+02  0.10570000000E+00 0. -1.
         13    1    3    3    0    0 -0.27357951214E+02 -0.35143133492E+02 -0.47387577748E+02  0.65031461798E+02  0.10570000000E+00 0.  1.
<mgrwt>
<rscale>  0 0.89099793E+02</rscale>
<asrwt>0</asrwt>
<pdfrwt beam="1">  1        1 0.27824259E-02 0.89099793E+02</pdfrwt>
<pdfrwt beam="2">  1       -1 0.16882745E-01 0.89099793E+02</pdfrwt>
<totfact> 0.84835862E+04</totfact>
</mgrwt>
</event>
<event>
 5   1  0.1388354E+00  0.8916657E+02  0.7818608E-02  0.1304883E+00
          1   -1    0    0  501    0  0.00000000000E+00  0.00000000000E+00  0.61863174351E+02  0.61863174528E+02  0.46700000000E-02 0. -1.
         -1   -1    0    0    0  501 -0.00000000000E+00 -0.00000000000E+00 -0.32130090744E+02  0.32130091083E+02  0.46700000000E-02 0.  1.
         23    2    1    2    0    0  0.00000000000E+00  0.00000000000E+00  0.29733083607E+02  0.93993265611E+02  0.89166572881E+02 0.  0.
        -13    1    3    3    0    0  0.10075400005E+01 -0.43123726041E+02  0.26745406427E+02  0.50754298556E+02  0.10570000000E+00 0. -1.
         13    1    3    3    0    0 -0.10075400005E+01  0.43123726041E+02  0.29876771800E+01  0.43238967054E+02  0.10570000000E+00 0.  1.
<mgrwt>
<rscale>  0 0.89166573E+02</rscale>
<asrwt>0</asrwt>
<pdfrwt beam="1">  1        1 0.95174114E-02 0.89166573E+02</pdfrwt>
<pdfrwt beam="2">  1       -1 0.49430910E-02 0.89166573E+02</pdfrwt>
<totfact> 0.10297206E+05</totfact>
</mgrwt>
</event>
<event>
 5   1  0.1388354E+00  0.8679304E+02  0.7818608E-02  0.1310809E+00
         -1   -1    0    0    0  501 -0.00000000000E+00  0.00000000000E+00  0.32698448733E+02  0.32698449067E+02  0.46700000000E-02 0.  1.
          1   -1    0    0  501    0  0.00000000000E+00 -0.00000000000E+00 -0.57594723501E+02  0.57594723690E+02  0.46700000000E-02 0. -1.
         23    2    1    2    0    0  0.00000000000E+00  0.00000000000E+00 -0.24896274768E+02  0.90293172757E+02  0.86793044359E+02 0.  0.
        -13    1    3    3    0    0 -0.99063960536E+01  0.27610054931E+02 -0.45719019952E+02  0.54320270378E+02  0.10570000000E+00 0. -1.
         13    1    3    3    0    0  0.99063960536E+01 -0.27610054931E+02  0.20822745184E+02  0.35972902379E+02  0.10570000000E+00 0.  1.
<mgrwt>
<rscale>  0 0.86793044E+02</rscale>
<asrwt>0</asrwt>
<pdfrwt beam="2">  1        1 0.88607267E-02 0.86793044E+02</pdfrwt>
<pdfrwt beam="1">  1       -1 0.50305306E-02 0.86793044E+02</pdfrwt>
<totfact> 0.10976102E+05</totfact>
</mgrwt>
</event>
<event>
 5   1  0.1388354E+00  0.8275943E+02  0.7818608E-02  0.1321398E+00
          1   -1    0    0  501    0  0.00000000000E+00  0.00000000000E+00  0.10612716210E+02  0.10612717237E+02  0.46700000000E-02 0. -1.
         -1   -1    0    0    0  501 -0.00000000000E+00 -0.00000000000E+00 -0.16134235860E+03  0.16134235867E+03  0.46700000000E-02 0.  1.
         23    2    1    2    0    0  0.00000000000E+00  0.00000000000E+00 -0.15072964239E+03  0.17195507590E+03  0.82759428673E+02 0.  0.
        -13    1    3    3    0    0  0.38971215620E+02 -0.32486704797E+01 -0.10346930974E+03  0.11061292301E+03  0.10570000000E+00 0. -1.
         13    1    3    3    0    0 -0.38971215620E+02  0.32486704797E+01 -0.47260332651E+02  0.61342152893E+02  0.10570000000E+00 0.  1.
<mgrwt>
<rscale>  0 0.82759429E+02</rscale>
<asrwt>0</asrwt>
<pdfrwt beam="1">  1        1 0.16327258E-02 0.82759429E+02</pdfrwt>
<pdfrwt beam="2">  1       -1 0.24821900E-01 0.82759429E+02</pdfrwt>
<totfact> 0.94446245E+04</totfact>
</mgrwt>
</event>
<event>
 5   1  0.1388354E+00  0.9380056E+02  0.7818608E-02  0.1293901E+00
          1   -1    0    0  501    0  0.00000000000E+00  0.00000000000E+00  0.78076533025E+02  0.78076533165E+02  0.46700000000E-02 0. -1.
         -1   -1    0    0    0  501 -0.00000000000E+00 -0.00000000000E+00 -0.28172819576E+02  0.28172819963E+02  0.46700000000E-02 0.  1.
         23    2    1    2    0    0  0.00000000000E+00  0.00000000000E+00  0.49903713449E+02  0.10624935313E+03  0.93800556629E+02 0.  0.
        -13    1    3    3    0    0 -0.45974437657E+02  0.60896190588E+01  0.17031545503E+02  0.49404626229E+02  0.10570000000E+00 0. -1.
         13    1    3    3    0    0  0.45974437657E+02 -0.60896190588E+01  0.32872167947E+02  0.56844726898E+02  0.10570000000E+00 0.  1.
<mgrwt>
<rscale>  0 0.93800557E+02</rscale>
<asrwt>0</asrwt>
<pdfrwt beam="1">  1        1 0.12011774E-01 0.93800557E+02</pdfrwt>
<pdfrwt beam="2">  1       -1 0.43342800E-02 0.93800557E+02</pdfrwt>
<totfact> 0.92813307E+04</totfact>
</mgrwt>
</event>
<event>
 5   1  0.1388354E+00  0.1034231E+03  0.7818608E-02  0.1273258E+00
         -1   -1    0    0    0  501 -0.00000000000E+00  0.00000000000E+00  0.41563761756E+02  0.41563762018E+02  0.46700000000E-02 0.  1.
          1   -1    0    0  501    0  0.00000000000E+00 -0.00000000000E+00 -0.64336867897E+02  0.64336868066E+02  0.46700000000E-02 0. -1.
         23    2    1    2    0    0  0.00000000000E+00  0.00000000000E+00 -0.22773106141E+02  0.10590063008E+03  0.10342305879E+03 0.  0.
        -13    1    3    3    0    0  0.29882763738E+02 -0.82940730543E+01  0.30984677723E+02  0.43838711689E+02  0.10570000000E+00 0.  1.
         13    1    3    3    0    0 -0.29882763738E+02  0.82940730543E+01 -0.53757783864E+02  0.62061918396E+02  0.10570000000E+00 0. -1.
<mgrwt>
<rscale>  0 0.10342306E+03</rscale>
<asrwt>0</asrwt>
<pdfrwt beam="2">  1        1 0.98979797E-02 0.10342306E+03</pdfrwt>
<pdfrwt beam="1">  1       -1 0.63944249E-02 0.10342306E+03</pdfrwt>
<totfact> 0.68488018E+04</totfact>
</mgrwt>
</event>
<event>
 5   1  0.1388354E+00  0.5570943E+02  0.7818608E-02  0.1416773E+00
         -1   -1    0    0    0  501 -0.00000000000E+00  0.00000000000E+00  0.10237445801E+02  0.10237446866E+02  0.46700000000E-02 0. -1.
          1   -1    0    0  501    0  0.00000000000E+00 -0.00000000000E+00 -0.75788934334E+02  0.75788934478E+02  0.46700000000E-02 0.  1.
         23    2    1    2    0    0  0.00000000000E+00  0.00000000000E+00 -0.65551488533E+02  0.86026381343E+02  0.55709430423E+02 0.  0.
        -13    1    3    3    0    0 -0.57819810961E+01  0.24378430727E+02 -0.51570274710E+02  0.57334488716E+02  0.10570000000E+00 0.  1.
         13    1    3    3    0    0  0.57819810961E+01 -0.24378430727E+02 -0.13981213823E+02  0.28691892628E+02  0.10570000000E+00 0. -1.
<mgrwt>
<rscale>  0 0.55709430E+02</rscale>
<asrwt>0</asrwt>
<pdfrwt beam="2">  1        1 0.11659836E-01 0.55709430E+02</pdfrwt>
<pdfrwt beam="1">  1       -1 0.15749918E-02 0.55709430E+02</pdfrwt>
<totfact> 0.36998806E+05</totfact>
</mgrwt>
</event>
<event>
 5   1  0.1388354E+00  0.9124914E+02  0.7818608E-02  0.1299855E+00
         -1   -1    0    0    0  501 -0.00000000000E+00  0.00000000000E+00  0.41254671090E+02  0.41254671355E+02  0.46700000000E-02 0.  1.
          1   -1    0    0  501    0  0.00000000000E+00 -0.00000000000E+00 -0.50457354859E+02  0.50457355075E+02  0.46700000000E-02 0. -1.
         23    2    1    2    0    0  0.00000000000E+00  0.00000000000E+00 -0.92026837687E+01  0.91712026429E+02  0.91249144671E+02 0.  0.
        -13    1    3    3    0    0  0.85798674624E+01 -0.28599838065E+02  0.30070397775E+02  0.42376937806E+02  0.10570000000E+00 0.  1.
         13    1    3    3    0    0 -0.85798674624E+01  0.28599838065E+02 -0.39273081544E+02  0.49335088623E+02  0.10570000000E+00 0. -1.
<mgrwt>
<rscale>  0 0.91249145E+02</rscale>
<asrwt>0</asrwt>
<pdfrwt beam="2">  1        1 0.77626700E-02 0.91249145E+02</pdfrwt>
<pdfrwt beam="1">  1       -1 0.63468725E-02 0.91249145E+02</pdfrwt>
<totfact> 0.93684172E+04</totfact>
</mgrwt>
</event>
<event>
 5   1  0.1388354E+00  0.8901758E+02  0.7818608E-02  0.1305248E+00
          1   -1    0    0  501    0  0.00000000000E+00  0.00000000000E+00  0.23043707779E+03  0.23043707783E+03  0.46700000000E-02 0. -1.
         -1   -1    0    0    0  501 -0.00000000000E+00 -0.00000000000E+00 -0.85968470190E+01  0.85968482874E+01  0.46700000000E-02 0.  1.
         23    2    1    2    0    0  0.00000000000E+00  0.00000000000E+00  0.22184023077E+03  0.23903392612E+03  0.89017581690E+02 0.  0.
        -13    1    3    3    0    0 -0.32821793341E+02 -0.12131487876E+02  0.37059885130E+02  0.50969494549E+02  0.10570000000E+00 0.  1.
         13    1    3    3    0    0  0.32821793341E+02  0.12131487876E+02  0.18478034564E+03  0.18806443157E+03  0.10570000000E+00 0. -1.
<mgrwt>
<rscale>  0 0.89017582E+02</rscale>
<asrwt>0</asrwt>
<pdfrwt beam="1">  1        1 0.35451857E-01 0.89017582E+02</pdfrwt>
<pdfrwt beam="2">  1       -1 0.13225920E-02 0.89017582E+02</pdfrwt>
<totfact> 0.12976350E+05</totfact>
</mgrwt>
</event>
<event>
 5   1  0.1388354E+00  0.8967439E+02  0.7818608E-02  0.1303642E+00
         -1   -1    0    0    0  501 -0.00000000000E+00  0.00000000000E+00  0.18392420542E+02  0.18392421135E+02  0.46700000000E-02 0.  1.
          1   -1    0    0  501    0  0.00000000000E+00 -0.00000000000E+00 -0.10930447506E+03  0.10930447516E+03  0.46700000000E-02 0. -1.
         23    2    1    2    0    0  0.00000000000E+00  0.00000000000E+00 -0.90912054514E+02  0.12769689629E+03  0.89674386903E+02 0.  0.
        -13    1    3    3    0    0  0.22199811787E+02 -0.19522336876E+02 -0.93460239416E+02  0.98024388826E+02  0.10570000000E+00 0. -1.
         13    1    3    3    0    0 -0.22199811787E+02  0.19522336876E+02  0.25481849025E+01  0.29672507465E+02  0.10570000000E+00 0.  1.
<mgrwt>
<rscale>  0 0.89674387E+02</rscale>
<asrwt>0</asrwt>
<pdfrwt beam="2">  1        1 0.16816073E-01 0.89674387E+02</pdfrwt>
<pdfrwt beam="1">  1       -1 0.28296033E-02 0.89674387E+02</pdfrwt>
<totfact> 0.11091601E+05</totfact>
</mgrwt>
</event>
<event>
 5   1  0.1388354E+00  0.9025225E+02  0.7818608E-02  0.1302242E+00
         -1   -1    0    0    0  501 -0.00000000000E+00  0.00000000000E+00  0.76552584820E+01  0.76552599065E+01  0.46700000000E-02 0.  1.
          1   -1    0    0  501    0  0.00000000000E+00 -0.00000000000E+00 -0.26600889702E+03  0.26600889706E+03  0.46700000000E-02 0. -1.
         23    2    1    2    0    0  0.00000000000E+00  0.00000000000E+00 -0.25835363854E+03  0.27366415697E+03  0.90252247966E+02 0.  0.
        -13    1    3    3    0    0  0.33249923547E+02  0.25276971639E+02 -0.18098006701E+03  0.18573712213E+03  0.10570000000E+00 0.  1.
         13    1    3    3    0    0 -0.33249923547E+02 -0.25276971639E+02 -0.77373571528E+02  0.87927034834E+02  0.10570000000E+00 0. -1.
<mgrwt>
<rscale>  0 0.90252248E+02</rscale>
<asrwt>0</asrwt>
<pdfrwt beam="2">  1        1 0.40924439E-01 0.90252248E+02</pdfrwt>
<pdfrwt beam="1">  1       -1 0.11777324E-02 0.90252248E+02</pdfrwt>
<totfact> 0.12862645E+05</totfact>
</mgrwt>
</event>
<event>
 5   1  0.1388354E+00  0.9181904E+02  0.7818608E-02  0.1298505E+00
          1   -1    0    0  501    0  0.00000000000E+00  0.00000000000E+00  0.69036761117E+02  0.69036761275E+02  0.46700000000E-02 0. -1.
         -1   -1    0    0    0  501 -0.00000000000E+00 -0.00000000000E+00 -0.30529878722E+02  0.30529879079E+02  0.46700000000E-02 0.  1.
         23    2    1    2    0    0  0.00000000000E+00  0.00000000000E+00  0.38506882395E+02  0.99566640354E+02  0.91819038764E+02 0.  0.
        -13    1    3    3    0    0  0.12858802125E+02  0.82752712368E+01 -0.27687069993E+02  0.31629320629E+02  0.10570000000E+00 0.  1.
         13    1    3    3    0    0 -0.12858802125E+02 -0.82752712368E+01  0.66193952389E+02  0.67937319725E+02  0.10570000000E+00 0. -1.
<mgrwt>
<rscale>  0 0.91819039E+02</rscale>
<asrwt>0</asrwt>
<pdfrwt beam="1">  1        1 0.10621040E-01 0.91819039E+02</pdfrwt>
<pdfrwt beam="2">  1       -1 0.46969045E-02 0.91819039E+02</pdfrwt>
<totfact> 0.96565203E+04</totfact>
</mgrwt>
</event>
<event>
 5   1  0.1388354E+00  0.8988061E+02  0.7818608E-02  0.1303141E+00
         -1   -1    0    0    0  501 -0.00000000000E+00  0.00000000000E+00  0.17912333000E+02  0.17912333609E+02  0.46700000000E-02 0.  1.
          1   -1    0    0  501    0  0.00000000000E+00 -0.00000000000E+00 -0.11275085480E+03  0.11275085489E+03  0.46700000000E-02 0. -1.
         23    2    1    2    0    0  0.00000000000E+00  0.00000000000E+00 -0.94838521798E+02  0.13066318850E+03  0.89880607548E+02 0.  0.
        -13    1    3    3    0    0  0.96974529022E+01  0.27855979371E+02 -0.96709971427E+02  0.10110799140E+03  0.10570000000E+00 0. -1.
         13    1    3    3    0    0 -0.96974529022E+01 -0.27855979371E+02  0.18714496293E+01  0.29555197102E+02  0.10570000000E+00 0.  1.
<mgrwt>
<rscale>  0 0.89880608E+02</rscale>
<asrwt>0</asrwt>
<pdfrwt beam="2">  1        1 0.17346285E-01 0.89880608E+02</pdfrwt>
<pdfrwt beam="1">  1       -1 0.27557437E-02 0.89880608E+02</pdfrwt>
<totfact> 0.11080838E+05</totfact>
</mgrwt>
</event>
<event>
 5   1  0.1388354E+00  0.9065307E+02  0.7818608E-02  0.1301278E+00
          1   -1    0    0  501    0  0.00000000000E+00  0.00000000000E+00  0.19834655833E+03  0.19834655839E+03  0.46700000000E-02 0. -1.
         -1   -1    0    0    0  501 -0.00000000000E+00 -0.00000000000E+00 -0.10358105635E+02  0.10358106687E+02  0.46700000000E-02 0.  1.
         23    2    1    2    0    0  0.00000000000E+00  0.00000000000E+00  0.18798845270E+03  0.20870466507E+03  0.90653068763E+02 0.  0.
        -13    1    3    3    0    0 -0.36713750285E+02 -0.21244363480E+02  0.57211664785E+02  0.71220841048E+02  0.10570000000E+00 0.  1.
         13    1    3    3    0    0  0.36713750285E+02  0.21244363480E+02  0.13077678791E+03  0.13748382403E+03  0.10570000000E+00 0. -1.
<mgrwt>
<rscale>  0 0.90653069E+02</rscale>
<asrwt>0</asrwt>
<pdfrwt beam="1">  1        1 0.30514855E-01 0.90653069E+02</pdfrwt>
<pdfrwt beam="2">  1       -1 0.15935548E-02 0.90653069E+02</pdfrwt>
<totfact> 0.12005532E+05</totfact>
</mgrwt>
</event>
<event>
 5   1  0.1388354E+00  0.9007727E+02  0.7818608E-02  0.1302665E+00
         -1   -1    0    0    0  501 -0.00000000000E+00  0.00000000000E+00  0.10930904344E+02  0.10930905341E+02  0.46700000000E-02 0.  1.
          1   -1    0    0  501    0  0.00000000000E+00 -0.00000000000E+00 -0.18557278540E+03  0.18557278546E+03  0.46700000000E-02 0. -1.
         23    2    1    2    0    0  0.00000000000E+00  0.00000000000E+00 -0.17464188106E+03  0.19650369080E+03  0.90077266161E+02 0.  0.
        -13    1    3    3    0    0  0.40855242941E+02  0.18129673492E+02 -0.75247288397E+02  0.87521434634E+02  0.10570000000E+00 0.  1.
         13    1    3    3    0    0 -0.40855242941E+02 -0.18129673492E+02 -0.99394592658E+02  0.10898225617E+03  0.10570000000E+00 0. -1.
<mgrwt>
<rscale>  0 0.90077266E+02</rscale>
<asrwt>0</asrwt>
<pdfrwt beam="2">  1        1 0.28549657E-01 0.90077266E+02</pdfrwt>
<pdfrwt beam="1">  1       -1 0.16816778E-02 0.90077266E+02</pdfrwt>
<totfact> 0.12056687E+05</totfact>
</mgrwt>
</event>
<event>
 5   1  0.1388354E+00  0.9248843E+02  0.7818608E-02  0.1296935E+00
          1   -1    0    0  501    0  0.00000000000E+00  0.00000000000E+00  0.24066323406E+02  0.24066323859E+02  0.46700000000E-02 0. -1.
         -1   -1    0    0    0  501 -0.00000000000E+00 -0.00000000000E+00 -0.88859749571E+02  0.88859749694E+02  0.46700000000E-02 0.  1.
         23    2    1    2    0    0  0.00000000000E+00  0.00000000000E+00 -0.64793426165E+02  0.11292607355E+03  0.92488431785E+02 0.  0.
        -13    1    3    3    0    0  0.34432643922E+02 -0.29505817568E+02 -0.43474402566E+02  0.62819066284E+02  0.10570000000E+00 0.  1.
         13    1    3    3    0    0 -0.34432643922E+02  0.29505817568E+02 -0.21319023599E+02  0.50107007270E+02  0.10570000000E+00 0. -1.
<mgrwt>
<rscale>  0 0.92488432E+02</rscale>
<asrwt>0</asrwt>
<pdfrwt beam="1">  1        1 0.37025114E-02 0.92488432E+02</pdfrwt>
<pdfrwt beam="2">  1       -1 0.13670731E-01 0.92488432E+02</pdfrwt>
<totfact> 0.80132722E+04</totfact>
</mgrwt>
</event>
<event>
 4   1  0.1388354E+00  0.4705562E+02  0.7818608E-02  0.1461902E+00
          1   -1    0    0  501    0  0.00000000000E+00  0.00000000000E+00  0.10323224688E+02  0.10323225744E+02  0.46700000000E-02 0.  1.
         -1   -1    0    0    0  501 -0.00000000000E+00 -0.00000000000E+00 -0.53622567901E+02  0.53622568105E+02  0.46700000000E-02 0. -1.
        -13    1    1    2    0    0  0.22999224546E+02 -0.48634108180E+01 -0.20339445592E+02  0.31085709160E+02  0.10570000000E+00 0. -1.
         13    1    1    2    0    0 -0.22999224546E+02  0.48634108180E+01 -0.22959897621E+02  0.32860084689E+02  0.10570000000E+00 0.  1.
<mgrwt>
<rscale>  0 0.47055621E+02</rscale>
<asrwt>0</asrwt>
<pdfrwt beam="1">  1        1 0.15881885E-02 0.47055621E+02</pdfrwt>
<pdfrwt beam="2">  1       -1 0.82496258E-02 0.47055621E+02</pdfrwt>
<totfact> 0.47056640E+05</totfact>
</mgrwt>
</event>
<event>
 5   1  0.1388354E+00  0.9062838E+02  0.7818608E-02  0.1301337E+00
         -1   -1    0    0    0  501 -0.00000000000E+00  0.00000000000E+00  0.19580385565E+03  0.19580385570E+03  0.46700000000E-02 0.  1.
          1   -1    0    0  501    0  0.00000000000E+00 -0.00000000000E+00 -0.10486900325E+02  0.10486901365E+02  0.46700000000E-02 0. -1.
         23    2    1    2    0    0  0.00000000000E+00  0.00000000000E+00  0.18531695532E+03  0.20629075707E+03  0.90628375919E+02 0.  0.
        -13    1    3    3    0    0  0.39634091137E+02  0.96786587683E+01  0.13754269859E+03  0.14346617275E+03  0.10570000000E+00 0.  1.
         13    1    3    3    0    0 -0.39634091137E+02 -0.96786587683E+01  0.47774256730E+02  0.62824584316E+02  0.10570000000E+00 0. -1.
<mgrwt>
<rscale>  0 0.90628376E+02</rscale>
<asrwt>0</asrwt>
<pdfrwt beam="2">  1        1 0.16133694E-02 0.90628376E+02</pdfrwt>
<pdfrwt beam="1">  1       -1 0.30123669E-01 0.90628376E+02</pdfrwt>
<totfact> 0.70949419E+04</totfact>
</mgrwt>
</event>
<event>
 5   1  0.1388354E+00  0.9042530E+02  0.7818608E-02  0.1301825E+00
          1   -1    0    0  501    0  0.00000000000E+00  0.00000000000E+00  0.12800493494E+02  0.12800494346E+02  0.46700000000E-02 0. -1.
         -1   -1    0    0    0  501 -0.00000000000E+00 -0.00000000000E+00 -0.15969570479E+03  0.15969570486E+03  0.46700000000E-02 0.  1.
         23    2    1    2    0    0  0.00000000000E+00  0.00000000000E+00 -0.14689521130E+03  0.17249619921E+03  0.90425304192E+02 0.  0.
        -13    1    3    3    0    0  0.19056462502E+02  0.40977860171E+02 -0.70860736315E+02  0.84045159949E+02  0.10570000000E+00 0.  1.
         13    1    3    3    0    0 -0.19056462502E+02 -0.40977860171E+02 -0.76034474984E+02  0.88451039258E+02  0.10570000000E+00 0. -1.
<mgrwt>
<rscale>  0 0.90425304E+02</rscale>
<asrwt>0</asrwt>
<pdfrwt beam="1">  1        1 0.19693069E-02 0.90425304E+02</pdfrwt>
<pdfrwt beam="2">  1       -1 0.24568569E-01 0.90425304E+02</pdfrwt>
<totfact> 0.75277453E+04</totfact>
</mgrwt>
</event>
<event>
 5   1  0.1388354E+00  0.9025416E+02  0.7818608E-02  0.1302237E+00
         -1   -1    0    0    0  501 -0.00000000000E+00  0.00000000000E+00  0.26599999718E+02  0.26600000128E+02  0.46700000000E-02 0.  1.
          1   -1    0    0  501    0  0.00000000000E+00 -0.00000000000E+00 -0.76558400459E+02  0.76558400602E+02  0.46700000000E-02 0. -1.
         23    2    1    2    0    0  0.00000000000E+00  0.00000000000E+00 -0.49958400741E+02  0.10315840073E+03  0.90254162433E+02 0.  0.
        -13    1    3    3    0    0  0.33239367491E+02 -0.17246614237E+02  0.38034172539E+01  0.37640117018E+02  0.10570000000E+00 0.  1.
         13    1    3    3    0    0 -0.33239367491E+02  0.17246614237E+02 -0.53761817995E+02  0.65518283711E+02  0.10570000000E+00 0. -1.
<mgrwt>
<rscale>  0 0.90254162E+02</rscale>
<asrwt>0</asrwt>
<pdfrwt beam="2">  1        1 0.11778215E-01 0.90254162E+02</pdfrwt>
<pdfrwt beam="1">  1       -1 0.40923077E-02 0.90254162E+02</pdfrwt>
<totfact> 0.10288309E+05</totfact>
</mgrwt>
</event>
<event>
 5   1  0.1388354E+00  0.9433844E+02  0.7818608E-02  0.1292673E+00
         -1   -1    0    0    0  501 -0.00000000000E+00  0.00000000000E+00  0.94953594097E+02  0.94953594212E+02  0.46700000000E-02 0.  1.
          1   -1    0    0  501    0  0.00000000000E+00 -0.00000000000E+00 -0.23431816882E+02  0.23431817347E+02  0.46700000000E-02 0. -1.
         23    2    1    2    0    0  0.00000000000E+00  0.00000000000E+00  0.71521777215E+02  0.11838541156E+03  0.94338438900E+02 0.  0.
        -13    1    3    3    0    0  0.23248941737E+02  0.35656596621E+02  0.10257731356E+02  0.43785139026E+02  0.10570000000E+00 0. -1.
         13    1    3    3    0    0 -0.23248941737E+02 -0.35656596621E+02  0.61264045859E+02  0.74600272533E+02  0.10570000000E+00 0.  1.
<mgrwt>
<rscale>  0 0.94338439E+02</rscale>
<asrwt>0</asrwt>
<pdfrwt beam="2">  1        1 0.36048949E-02 0.94338439E+02</pdfrwt>
<pdfrwt beam="1">  1       -1 0.14608245E-01 0.94338439E+02</pdfrwt>
<totfact> 0.75243915E+04</totfact>
</mgrwt>
</event>
<event>
 5   1  0.1388354E+00  0.9360699E+02  0.7818608E-02  0.1294345E+00
          1   -1    0    0  501    0  0.00000000000E+00  0.00000000000E+00  0.45092578535E+02  0.45092578777E+02  0.46700000000E-02 0. -1.
         -1   -1    0    0    0  501 -0.00000000000E+00 -0.00000000000E+00 -0.48579322852E+02  0.48579323077E+02  0.46700000000E-02 0.  1.
         23    2    1    2    0    0  0.00000000000E+00  0.00000000000E+00 -0.34867443170E+01  0.93671901854E+02  0.93606985909E+02 0.  0.
        -13    1    3    3    0    0  0.14744707965E+02 -0.39779020509E+01 -0.46015726892E+02  0.48483898478E+02  0.10570000000E+00 0.  1.
         13    1    3    3    0    0 -0.14744707965E+02  0.39779020509E+01  0.42528982575E+02  0.45188003376E+02  0.10570000000E+00 0. -1.
<mgrwt>
<rscale>  0 0.93606986E+02</rscale>
<asrwt>0</asrwt>
<pdfrwt beam="1">  1        1 0.69373198E-02 0.93606986E+02</pdfrwt>
<pdfrwt beam="2">  1       -1 0.74737420E-02 0.93606986E+02</pdfrwt>
<totfact> 0.85726636E+04</totfact>
</mgrwt>
</event>
<event>
 5   1  0.1388354E+00  0.8848275E+02  0.7818608E-02  0.1306568E+00
          1   -1    0    0  501    0  0.00000000000E+00  0.00000000000E+00  0.14562256560E+03  0.14562256567E+03  0.46700000000E-02 0. -1.
         -1   -1    0    0    0  501 -0.00000000000E+00 -0.00000000000E+00 -0.13440904757E+02  0.13440905568E+02  0.46700000000E-02 0.  1.
         23    2    1    2    0    0  0.00000000000E+00  0.00000000000E+00  0.13218166084E+03  0.15906347124E+03  0.88482746456E+02 0.  0.
        -13    1    3    3    0    0 -0.14695704513E+01 -0.44212497584E+02  0.64977789574E+02  0.78606799263E+02  0.10570000000E+00 0. -1.
         13    1    3    3    0    0  0.14695704513E+01  0.44212497584E+02  0.67203871266E+02  0.80456671977E+02  0.10570000000E+00 0.  1.
<mgrwt>
<rscale>  0 0.88482746E+02</rscale>
<asrwt>0</asrwt>
<pdfrwt beam="1">  1        1 0.22403470E-01 0.88482746E+02</pdfrwt>
<pdfrwt beam="2">  1       -1 0.20678318E-02 0.88482746E+02</pdfrwt>
<totfact> 0.12090708E+05</totfact>
</mgrwt>
</event>
<event>
 5   1  0.1388354E+00  0.9639429E+02  0.7818608E-02  0.1288066E+00
          1   -1    0    0  501    0  0.00000000000E+00  0.00000000000E+00  0.83252544112E+02  0.83252544243E+02  0.46700000000E-02 0. -1.
         -1   -1    0    0    0  501 -0.00000000000E+00 -0.00000000000E+00 -0.27902630133E+02  0.27902630524E+02  0.46700000000E-02 0.  1.
         23    2    1    2    0    0  0.00000000000E+00  0.00000000000E+00  0.55349913979E+02  0.11115517477E+03  0.96394293918E+02 0.  0.
        -13    1    3    3    0    0 -0.45103307006E+02  0.16738903541E+02  0.24322022297E+02  0.53907987680E+02  0.10570000000E+00 0. -1.
         13    1    3    3    0    0  0.45103307006E+02 -0.16738903541E+02  0.31027891682E+02  0.57247187086E+02  0.10570000000E+00 0.  1.
<mgrwt>
<rscale>  0 0.96394294E+02</rscale>
<asrwt>0</asrwt>
<pdfrwt beam="1">  1        1 0.12808084E-01 0.96394294E+02</pdfrwt>
<pdfrwt beam="2">  1       -1 0.42927124E-02 0.96394294E+02</pdfrwt>
<totfact> 0.86977760E+04</totfact>
</mgrwt>
</event>
<event>
 5   1  0.1388354E+00  0.8290351E+02  0.7818608E-02  0.1321008E+00
         -1   -1    0    0    0  501 -0.00000000000E+00  0.00000000000E+00  0.14075099338E+02  0.14075100113E+02  0.46700000000E-02 0.  1.
          1   -1    0    0  501    0  0.00000000000E+00 -0.00000000000E+00 -0.12207714109E+03  0.12207714118E+03  0.46700000000E-02 0. -1.
         23    2    1    2    0    0  0.00000000000E+00  0.00000000000E+00 -0.10800204175E+03  0.13615224129E+03  0.82903508889E+02 0.  0.
        -13    1    3    3    0    0 -0.25985734448E+02  0.29780337207E+02 -0.33481505554E+02  0.51799124178E+02  0.10570000000E+00 0.  1.
         13    1    3    3    0    0  0.25985734448E+02 -0.29780337207E+02 -0.74520536198E+02  0.84353117113E+02  0.10570000000E+00 0. -1.
<mgrwt>
<rscale>  0 0.82903509E+02</rscale>
<asrwt>0</asrwt>
<pdfrwt beam="2">  1        1 0.18781098E-01 0.82903509E+02</pdfrwt>
<pdfrwt beam="1">  1       -1 0.21654000E-02 0.82903509E+02</pdfrwt>
<totfact> 0.13961958E+05</totfact>
</mgrwt>
</event>
<event>
 5   1  0.1388354E+00  0.8368418E+02  0.7818608E-02  0.1318910E+00
         -1   -1    0    0    0  501 -0.00000000000E+00  0.00000000000E+00  0.24646121011E+02  0.24646121453E+02  0.46700000000E-02 0.  1.
          1   -1    0    0  501    0  0.00000000000E+00 -0.00000000000E+00 -0.71035951419E+02  0.71035951572E+02  0.46700000000E-02 0. -1.
         23    2    1    2    0    0  0.00000000000E+00  0.00000000000E+00 -0.46389830408E+02  0.95682073026E+02  0.83684184487E+02 0.  0.
        -13    1    3    3    0    0  0.20918667593E+02 -0.22533792891E+02 -0.55643032622E+02  0.63572955946E+02  0.10570000000E+00 0. -1.
         13    1    3    3    0    0 -0.20918667593E+02  0.22533792891E+02  0.92532022138E+01  0.32109117079E+02  0.10570000000E+00 0.  1.
<mgrwt>
<rscale>  0 0.83684184E+02</rscale>
<asrwt>0</asrwt>
<pdfrwt beam="2">  1        1 0.10928608E-01 0.83684184E+02</pdfrwt>
<pdfrwt beam="1">  1       -1 0.37917110E-02 0.83684184E+02</pdfrwt>
<totfact> 0.12505642E+05</totfact>
</mgrwt>
</event>
<event>
 5   1  0.1388354E+00  0.9465916E+02  0.7818608E-02  0.1291946E+00
         -1   -1    0    0    0  501 -0.00000000000E+00  0.00000000000E+00  0.13205712527E+02  0.13205713353E+02  0.46700000000E-02 0.  1.
          1   -1    0    0  501    0  0.00000000000E+00 -0.00000000000E+00 -0.16963030692E+03  0.16963030698E+03  0.46700000000E-02 0. -1.
         23    2    1    2    0    0  0.00000000000E+00  0.00000000000E+00 -0.15642459439E+03  0.18283602034E+03  0.94659160157E+02 0.  0.
        -13    1    3    3    0    0  0.10534285817E+02 -0.44963824892E+02 -0.98225790268E+02  0.10854047067E+03  0.10570000000E+00 0. -1.
         13    1    3    3    0    0 -0.10534285817E+02  0.44963824892E+02 -0.58198804124E+02  0.74295549668E+02  0.10570000000E+00 0.  1.
<mgrwt>
<rscale>  0 0.94659160E+02</rscale>
<asrwt>0</asrwt>
<pdfrwt beam="2">  1        1 0.26096969E-01 0.94659160E+02</pdfrwt>
<pdfrwt beam="1">  1       -1 0.20316483E-02 0.94659160E+02</pdfrwt>
<totfact> 0.10369317E+05</totfact>
</mgrwt>
</event>
<event>
 5   1  0.1388354E+00  0.9038930E+02  0.7818608E-02  0.1301912E+00
         -1   -1    0    0    0  501 -0.00000000000E+00  0.00000000000E+00  0.18652015984E+03  0.18652015990E+03  0.46700000000E-02 0.  1.
          1   -1    0    0  501    0  0.00000000000E+00 -0.00000000000E+00 -0.10950860814E+02  0.10950861810E+02  0.46700000000E-02 0. -1.
         23    2    1    2    0    0  0.00000000000E+00  0.00000000000E+00  0.17556929902E+03  0.19747102170E+03  0.90389300550E+02 0.  0.
        -13    1    3    3    0    0 -0.28005849237E+02  0.87455267270E+01  0.12683582942E+02  0.31963984075E+02  0.10570000000E+00 0. -1.
         13    1    3    3    0    0  0.28005849237E+02 -0.87455267270E+01  0.16288571608E+03  0.16550703763E+03  0.10570000000E+00 0.  1.
<mgrwt>
<rscale>  0 0.90389301E+02</rscale>
<asrwt>0</asrwt>
<pdfrwt beam="2">  1        1 0.16847481E-02 0.90389301E+02</pdfrwt>
<pdfrwt beam="1">  1       -1 0.28695405E-01 0.90389301E+02</pdfrwt>
<totfact> 0.72404818E+04</totfact>
</mgrwt>
</event>
<event>
 5   1  0.1388354E+00  0.9212948E+02  0.7818608E-02  0.1297775E+00
         -1   -1    0    0    0  501 -0.00000000000E+00  0.00000000000E+00  0.19589056711E+02  0.19589057267E+02  0.46700000000E-02 0.  1.
          1   -1    0    0  501    0  0.00000000000E+00 -0.00000000000E+00 -0.10832374580E+03  0.10832374590E+03  0.46700000000E-02 0. -1.
         23    2    1    2    0    0  0.00000000000E+00  0.00000000000E+00 -0.88734689092E+02  0.12791280317E+03  0.92129475016E+02 0.  0.
        -13    1    3    3    0    0 -0.90446776292E+00 -0.29861860590E+02  0.43139412169E+01  0.30185593271E+02  0.10570000000E+00 0.  1.
         13    1    3    3    0    0  0.90446776292E+00  0.29861860590E+02 -0.93048630309E+02  0.97727209899E+02  0.10570000000E+00 0. -1.
<mgrwt>
<rscale>  0 0.92129475E+02</rscale>
<asrwt>0</asrwt>
<pdfrwt beam="2">  1        1 0.16665191E-01 0.92129475E+02</pdfrwt>
<pdfrwt beam="1">  1       -1 0.30137012E-02 0.92129475E+02</pdfrwt>
<totfact> 0.10290777E+05</totfact>
</mgrwt>
</event>
<event>
 5   1  0.1388354E+00  0.9224443E+02  0.7818608E-02  0.1297506E+00
         -1   -1    0    0    0  501 -0.00000000000E+00  0.00000000000E+00  0.78781934075E+02  0.78781934214E+02  0.46700000000E-02 0.  1.
          1   -1    0    0  501    0  0.00000000000E+00 -0.00000000000E+00 -0.27001862025E+02  0.27001862429E+02  0.46700000000E-02 0. -1.
         23    2    1    2    0    0  0.00000000000E+00  0.00000000000E+00  0.51780072050E+02  0.10578379664E+03  0.92244434904E+02 0.  0.
        -13    1    3    3    0    0 -0.21006576971E+02 -0.22826326979E+02 -0.13250696058E+02  0.33732915645E+02  0.10570000000E+00 0. -1.
         13    1    3    3    0    0  0.21006576971E+02  0.22826326979E+02  0.65030768108E+02  0.72050880998E+02  0.10570000000E+00 0.  1.
<mgrwt>
<rscale>  0 0.92244435E+02</rscale>
<asrwt>0</asrwt>
<pdfrwt beam="2">  1        1 0.41541327E-02 0.92244435E+02</pdfrwt>
<pdfrwt beam="1">  1       -1 0.12120297E-01 0.92244435E+02</pdfrwt>
<totfact> 0.82376455E+04</totfact>
</mgrwt>
</event>
<event>
 5   1  0.1388354E+00  0.9098926E+02  0.7818608E-02  0.1300474E+00
         -1   -1    0    0    0  501 -0.00000000000E+00  0.00000000000E+00  0.52874283649E+01  0.52874304273E+01  0.46700000000E-02 0.  1.
          1   -1    0    0  501    0  0.00000000000E+00 -0.00000000000E+00 -0.39144944942E+03  0.39144944945E+03  0.46700000000E-02 0. -1.
         23    2    1    2    0    0  0.00000000000E+00  0.00000000000E+00 -0.38616202106E+03  0.39673687988E+03  0.90989259518E+02 0.  0.
        -13    1    3    3    0    0  0.14134200401E+01  0.44068733543E+02 -0.14419567702E+03  0.15078612495E+03  0.10570000000E+00 0.  1.
         13    1    3    3    0    0 -0.14134200401E+01 -0.44068733543E+02 -0.24196634404E+03  0.24595075493E+03  0.10570000000E+00 0. -1.
<mgrwt>
<rscale>  0 0.90989260E+02</rscale>
<asrwt>0</asrwt>
<pdfrwt beam="2">  1        1 0.60222970E-01 0.90989260E+02</pdfrwt>
<pdfrwt beam="1">  1       -1 0.81345099E-03 0.90989260E+02</pdfrwt>
<totfact> 0.13514781E+05</totfact>
</mgrwt>
</event>
<event>
 5   1  0.1388354E+00  0.9173257E+02  0.7818608E-02  0.1298709E+00
         -1   -1    0    0    0  501 -0.00000000000E+00  0.00000000000E+00  0.20967212554E+02  0.20967213074E+02  0.46700000000E-02 0.  1.
          1   -1    0    0  501    0  0.00000000000E+00 -0.00000000000E+00 -0.10033361015E+03  0.10033361026E+03  0.46700000000E-02 0. -1.
         23    2    1    2    0    0  0.00000000000E+00  0.00000000000E+00 -0.79366397595E+02  0.12130082333E+03  0.91732571500E+02 0.  0.
        -13    1    3    3    0    0  0.38483302805E+02  0.22979328629E+02 -0.26815697992E+02  0.52231283445E+02  0.10570000000E+00 0.  1.
         13    1    3    3    0    0 -0.38483302805E+02 -0.22979328629E+02 -0.52550699603E+02  0.69069539887E+02  0.10570000000E+00 0. -1.
<mgrwt>
<rscale>  0 0.91732571E+02</rscale>
<asrwt>0</asrwt>
<pdfrwt beam="2">  1        1 0.15435940E-01 0.91732571E+02</pdfrwt>
<pdfrwt beam="1">  1       -1 0.32257251E-02 0.91732571E+02</pdfrwt>
<totfact> 0.10279053E+05</totfact>
</mgrwt>
</event>
<event>
 5   1  0.1388354E+00  0.9409213E+02  0.7818608E-02  0.1293234E+00
          1   -1    0    0  501    0  0.00000000000E+00  0.00000000000E+00  0.36212908931E+02  0.36212909232E+02  0.46700000000E-02 0. -1.
         -1   -1    0    0    0  501 -0.00000000000E+00 -0.00000000000E+00 -0.61119976669E+02  0.61119976847E+02  0.46700000000E-02 0.  1.
         23    2    1    2    0    0  0.00000000000E+00  0.00000000000E+00 -0.24907067738E+02  0.97332886079E+02  0.94092128731E+02 0.  0.
        -13    1    3    3    0    0  0.96919604429E+01  0.31923129613E+02  0.21859727734E+02  0.39885826688E+02  0.10570000000E+00 0.  1.
         13    1    3    3    0    0 -0.96919604429E+01 -0.31923129613E+02 -0.46766795472E+02  0.57447059391E+02  0.10570000000E+00 0. -1.
<mgrwt>
<rscale>  0 0.94092129E+02</rscale>
<asrwt>0</asrwt>
<pdfrwt beam="1">  1        1 0.55712168E-02 0.94092129E+02</pdfrwt>
<pdfrwt beam="2">  1       -1 0.94030733E-02 0.94092129E+02</pdfrwt>
<totfact> 0.81631779E+04</totfact>
</mgrwt>
</event>
<event>
 5   1  0.1388354E+00  0.8979696E+02  0.7818608E-02  0.1303344E+00
          1   -1    0    0  501    0  0.00000000000E+00  0.00000000000E+00  0.11825422780E+03  0.11825422790E+03  0.46700000000E-02 0. -1.
         -1   -1    0    0    0  501 -0.00000000000E+00 -0.00000000000E+00 -0.17046946994E+02  0.17046947634E+02  0.46700000000E-02 0.  1.
         23    2    1    2    0    0  0.00000000000E+00  0.00000000000E+00  0.10120728081E+03  0.13530117553E+03  0.89796962148E+02 0.  0.
        -13    1    3    3    0    0  0.38592757897E+01  0.43080731568E+02  0.32458833094E+02  0.54078003480E+02  0.10570000000E+00 0.  1.
         13    1    3    3    0    0 -0.38592757897E+01 -0.43080731568E+02  0.68748447715E+02  0.81223172050E+02  0.10570000000E+00 0. -1.
<mgrwt>
<rscale>  0 0.89796962E+02</rscale>
<asrwt>0</asrwt>
<pdfrwt beam="1">  1        1 0.18192958E-01 0.89796962E+02</pdfrwt>
<pdfrwt beam="2">  1       -1 0.26226074E-02 0.89796962E+02</pdfrwt>
<totfact> 0.11199717E+05</totfact>
</mgrwt>
</event>
<event>
 5   1  0.1388354E+00  0.9002386E+02  0.7818608E-02  0.1302794E+00
         -1   -1    0    0    0  501 -0.00000000000E+00  0.00000000000E+00  0.10558210555E+02  0.10558211588E+02  0.46700000000E-02 0.  1.
          1   -1    0    0  501    0  0.00000000000E+00 -0.00000000000E+00 -0.19189557805E+03  0.19189557811E+03  0.46700000000E-02 0. -1.
         23    2    1    2    0    0  0.00000000000E+00  0.00000000000E+00 -0.18133736750E+03  0.20245378970E+03  0.90023864126E+02 0.  0.
        -13    1    3    3    0    0 -0.28957547477E+02 -0.24076844674E+02 -0.14611324041E+03  0.15088844953E+03  0.10570000000E+00 0. -1.
         13    1    3    3    0    0  0.28957547477E+02  0.24076844674E+02 -0.35224127091E+02  0.51565340173E+02  0.10570000000E+00 0.  1.
<mgrwt>
<rscale>  0 0.90023864E+02</rscale>
<asrwt>0</asrwt>
<pdfrwt beam="2">  1        1 0.29522394E-01 0.90023864E+02</pdfrwt>
<pdfrwt beam="1">  1       -1 0.16243403E-02 0.90023864E+02</pdfrwt>
<totfact> 0.12153788E+05</totfact>
</mgrwt>
</event>
<event>
 5   1  0.1388354E+00  0.9206437E+02  0.7818608E-02  0.1297928E+00
          1   -1    0    0  501    0  0.00000000000E+00  0.00000000000E+00  0.62912948075E+01  0.62912965407E+01  0.46700000000E-02 0. -1.
         -1   -1    0    0    0  501 -0.00000000000E+00 -0.00000000000E+00 -0.33680856282E+03  0.33680856285E+03  0.46700000000E-02 0.  1.
         23    2    1    2    0    0  0.00000000000E+00  0.00000000000E+00 -0.33051726801E+03  0.34309985940E+03  0.92064374549E+02 0.  0.
        -13    1    3    3    0    0  0.23020394465E+02  0.36914631813E+02 -0.10919350977E+03  0.11754089650E+03  0.10570000000E+00 0.  1.
         13    1    3    3    0    0 -0.23020394465E+02 -0.36914631813E+02 -0.22132375825E+03  0.22555896289E+03  0.10570000000E+00 0. -1.
<mgrwt>
<rscale>  0 0.92064375E+02</rscale>
<asrwt>0</asrwt>
<pdfrwt beam="1">  1        1 0.96789191E-03 0.92064375E+02</pdfrwt>
<pdfrwt beam="2">  1       -1 0.51816688E-01 0.92064375E+02</pdfrwt>
<totfact> 0.56309673E+04</totfact>
</mgrwt>
</event>
<event>
 5   1  0.1388354E+00  0.9460675E+02  0.7818608E-02  0.1292064E+00
         -1   -1    0    0    0  501 -0.00000000000E+00  0.00000000000E+00  0.21574928449E+02  0.21574928954E+02  0.46700000000E-02 0.  1.
          1   -1    0    0  501    0  0.00000000000E+00 -0.00000000000E+00 -0.10371340700E+03  0.10371340711E+03  0.46700000000E-02 0. -1.
         23    2    1    2    0    0  0.00000000000E+00  0.00000000000E+00 -0.82138478553E+02  0.12528833606E+03  0.94606751841E+02 0.  0.
        -13    1    3    3    0    0  0.16608648562E+02 -0.42769705818E+02 -0.56313339246E+02  0.72638132495E+02  0.10570000000E+00 0.  1.
         13    1    3    3    0    0 -0.16608648562E+02  0.42769705818E+02 -0.25825139308E+02  0.52650203566E+02  0.10570000000E+00 0. -1.
<mgrwt>
<rscale>  0 0.94606752E+02</rscale>
<asrwt>0</asrwt>
<pdfrwt beam="2">  1        1 0.15955909E-01 0.94606752E+02</pdfrwt>
<pdfrwt beam="1">  1       -1 0.33192199E-02 0.94606752E+02</pdfrwt>
<totfact> 0.95004690E+04</totfact>
</mgrwt>
</event>
<event>
 5   1  0.1388354E+00  0.9137134E+02  0.7818608E-02  0.1299564E+00
          1   -1    0    0  501    0  0.00000000000E+00  0.00000000000E+00  0.40191790549E+02  0.40191790820E+02  0.46700000000E-02 0. -1.
         -1   -1    0    0    0  501 -0.00000000000E+00 -0.00000000000E+00 -0.51930514515E+02  0.51930514725E+02  0.46700000000E-02 0.  1.
         23    2    1    2    0    0  0.00000000000E+00  0.00000000000E+00 -0.11738723966E+02  0.92122305545E+02  0.91371338715E+02 0.  0.
        -13    1    3    3    0    0  0.26671734190E+02 -0.28218107427E+02 -0.30140567952E+02  0.49153921516E+02  0.10570000000E+00 0.  1.
         13    1    3    3    0    0 -0.26671734190E+02  0.28218107427E+02  0.18401843986E+02  0.42968384029E+02  0.10570000000E+00 0. -1.
<mgrwt>
<rscale>  0 0.91371339E+02</rscale>
<asrwt>0</asrwt>
<pdfrwt beam="1">  1        1 0.61833524E-02 0.91371339E+02</pdfrwt>
<pdfrwt beam="2">  1       -1 0.79893100E-02 0.91371339E+02</pdfrwt>
<totfact> 0.90184628E+04</totfact>
</mgrwt>
</event>
<event>
 5   1  0.1388354E+00  0.9099371E+02  0.7818608E-02  0.1300463E+00
         -1   -1    0    0    0  501 -0.00000000000E+00  0.00000000000E+00  0.18709042790E+03  0.18709042796E+03  0.46700000000E-02 0.  1.
          1   -1    0    0  501    0  0.00000000000E+00 -0.00000000000E+00 -0.11063975292E+02  0.11063976278E+02  0.46700000000E-02 0. -1.
         23    2    1    2    0    0  0.00000000000E+00  0.00000000000E+00  0.17602645261E+03  0.19815440424E+03  0.90993713523E+02 0.  0.
        -13    1    3    3    0    0 -0.15353241608E+02 -0.41349333409E+02  0.11230801763E+03  0.12065898805E+03  0.10570000000E+00 0. -1.
         13    1    3    3    0    0  0.15353241608E+02  0.41349333409E+02  0.63718434981E+02  0.77495416188E+02  0.10570000000E+00 0.  1.
<mgrwt>
<rscale>  0 0.90993714E+02</rscale>
<asrwt>0</asrwt>
<pdfrwt beam="2">  1        1 0.17021502E-02 0.90993714E+02</pdfrwt>
<pdfrwt beam="1">  1       -1 0.28783141E-01 0.90993714E+02</pdfrwt>
<totfact> 0.71101831E+04</totfact>
</mgrwt>
</event>
<event>
 5   1  0.1388354E+00  0.9206959E+02  0.7818608E-02  0.1297916E+00
          1   -1    0    0  501    0  0.00000000000E+00  0.00000000000E+00  0.19537091559E+02  0.19537092117E+02  0.46700000000E-02 0. -1.
         -1   -1    0    0    0  501 -0.00000000000E+00 -0.00000000000E+00 -0.10847071065E+03  0.10847071075E+03  0.46700000000E-02 0.  1.
         23    2    1    2    0    0  0.00000000000E+00  0.00000000000E+00 -0.88933619093E+02  0.12800780287E+03  0.92069587762E+02 0.  0.
        -13    1    3    3    0    0 -0.65923769048E+01  0.45112813911E+02 -0.35611585908E+02  0.57851721112E+02  0.10570000000E+00 0.  1.
         13    1    3    3    0    0  0.65923769048E+01 -0.45112813911E+02 -0.53322033185E+02  0.70156081758E+02  0.10570000000E+00 0. -1.
<mgrwt>
<rscale>  0 0.92069588E+02</rscale>
<asrwt>0</asrwt>
<pdfrwt beam="1">  1        1 0.30057065E-02 0.92069588E+02</pdfrwt>
<pdfrwt beam="2">  1       -1 0.16687801E-01 0.92069588E+02</pdfrwt>
<totfact> 0.78133623E+04</totfact>
</mgrwt>
</event>
<event>
 5   1  0.1388354E+00  0.1036527E+03  0.7818608E-02  0.1272797E+00
          1   -1    0    0  501    0  0.00000000000E+00  0.00000000000E+00  0.35672240329E+02  0.35672240634E+02  0.46700000000E-02 0. -1.
         -1   -1    0    0    0  501 -0.00000000000E+00 -0.00000000000E+00 -0.75295819643E+02  0.75295819788E+02  0.46700000000E-02 0.  1.
         23    2    1    2    0    0  0.00000000000E+00  0.00000000000E+00 -0.39623579315E+02  0.11096806042E+03  0.10365270086E+03 0.  0.
        -13    1    3    3    0    0  0.26174840578E+02  0.43794478901E+02 -0.29558190035E+02  0.58964196188E+02  0.10570000000E+00 0.  1.
         13    1    3    3    0    0 -0.26174840578E+02 -0.43794478901E+02 -0.10065389280E+02  0.52003864235E+02  0.10570000000E+00 0. -1.
<mgrwt>
<rscale>  0 0.10365270E+03</rscale>
<asrwt>0</asrwt>
<pdfrwt beam="1">  1        1 0.54880370E-02 0.10365270E+03</pdfrwt>
<pdfrwt beam="2">  1       -1 0.11583972E-01 0.10365270E+03</pdfrwt>
<totfact> 0.61591902E+04</totfact>
</mgrwt>
</event>
<event>
 5   1  0.1388354E+00  0.8998490E+02  0.7818608E-02  0.1302888E+00
         -1   -1    0    0    0  501 -0.00000000000E+00  0.00000000000E+00  0.57669440234E+01  0.57669459142E+01  0.46700000000E-02 0.  1.
          1   -1    0    0  501    0  0.00000000000E+00 -0.00000000000E+00 -0.35102127873E+03  0.35102127876E+03  0.46700000000E-02 0. -1.
         23    2    1    2    0    0  0.00000000000E+00  0.00000000000E+00 -0.34525433471E+03  0.35678822467E+03  0.89984896695E+02 0.  0.
        -13    1    3    3    0    0 -0.15383930493E+01  0.42242651421E+02 -0.23373172388E+03  0.23752334237E+03  0.10570000000E+00 0. -1.
         13    1    3    3    0    0  0.15383930493E+01 -0.42242651421E+02 -0.11152261083E+03  0.11926488230E+03  0.10570000000E+00 0.  1.
<mgrwt>
<rscale>  0 0.89984897E+02</rscale>
<asrwt>0</asrwt>
<pdfrwt beam="2">  1        1 0.54003257E-01 0.89984897E+02</pdfrwt>
<pdfrwt beam="1">  1       -1 0.88722258E-03 0.89984897E+02</pdfrwt>
<totfact> 0.13659283E+05</totfact>
</mgrwt>
</event>
<event>
 5   1  0.1388354E+00  0.7197631E+02  0.7818608E-02  0.1353499E+00
         -1   -1    0    0    0  501 -0.00000000000E+00  0.00000000000E+00  0.84246967473E+01  0.84246980416E+01  0.46700000000E-02 0.  1.
          1   -1    0    0  501    0  0.00000000000E+00 -0.00000000000E+00 -0.15373220365E+03  0.15373220372E+03  0.46700000000E-02 0. -1.
         23    2    1    2    0    0  0.00000000000E+00  0.00000000000E+00 -0.14530750690E+03  0.16215690176E+03  0.71976310178E+02 0.  0.
        -13    1    3    3    0    0  0.24429474920E+01  0.32447536212E+02 -0.38019870547E+02  0.50043304523E+02  0.10570000000E+00 0.  1.
         13    1    3    3    0    0 -0.24429474920E+01 -0.32447536212E+02 -0.10728763635E+03  0.11211359724E+03  0.10570000000E+00 0. -1.
<mgrwt>
<rscale>  0 0.71976310E+02</rscale>
<asrwt>0</asrwt>
<pdfrwt beam="2">  1        1 0.23651106E-01 0.71976310E+02</pdfrwt>
<pdfrwt beam="1">  1       -1 0.12961074E-02 0.71976310E+02</pdfrwt>
<totfact> 0.21119500E+05</totfact>
</mgrwt>
</event>
<event>
 5   1  0.1388354E+00  0.8980034E+02  0.7818608E-02  0.1303336E+00
         -1   -1    0    0    0  501 -0.00000000000E+00  0.00000000000E+00  0.36378611383E+02  0.36378611682E+02  0.46700000000E-02 0.  1.
          1   -1    0    0  501    0  0.00000000000E+00 -0.00000000000E+00 -0.55417870461E+02  0.55417870657E+02  0.46700000000E-02 0. -1.
         23    2    1    2    0    0  0.00000000000E+00  0.00000000000E+00 -0.19039259078E+02  0.91796482340E+02  0.89800338439E+02 0.  0.
        -13    1    3    3    0    0  0.15198160730E+00 -0.22256704417E+02  0.30342440489E+02  0.37630557493E+02  0.10570000000E+00 0.  1.
         13    1    3    3    0    0 -0.15198160730E+00  0.22256704417E+02 -0.49381699567E+02  0.54165924847E+02  0.10570000000E+00 0. -1.
<mgrwt>
<rscale>  0 0.89800338E+02</rscale>
<asrwt>0</asrwt>
<pdfrwt beam="2">  1        1 0.85258263E-02 0.89800338E+02</pdfrwt>
<pdfrwt beam="1">  1       -1 0.55967095E-02 0.89800338E+02</pdfrwt>
<totfact> 0.99332557E+04</totfact>
</mgrwt>
</event>
<event>
 5   1  0.1388354E+00  0.9035731E+02  0.7818608E-02  0.1301989E+00
          1   -1    0    0  501    0  0.00000000000E+00  0.00000000000E+00  0.36238139616E+02  0.36238139917E+02  0.46700000000E-02 0.  1.
         -1   -1    0    0    0  501 -0.00000000000E+00 -0.00000000000E+00 -0.56324937861E+02  0.56324938054E+02  0.46700000000E-02 0. -1.
         23    2    1    2    0    0  0.00000000000E+00  0.00000000000E+00 -0.20086798245E+02  0.92563077971E+02  0.90357312597E+02 0.  0.
        -13    1    3    3    0    0  0.11604316388E+02  0.42906501274E+02 -0.17544088617E+01  0.44482773445E+02  0.10570000000E+00 0. -1.
         13    1    3    3    0    0 -0.11604316388E+02 -0.42906501274E+02 -0.18332389383E+02  0.48080304527E+02  0.10570000000E+00 0.  1.
<mgrwt>
<rscale>  0 0.90357313E+02</rscale>
<asrwt>0</asrwt>
<pdfrwt beam="1">  1        1 0.55750984E-02 0.90357313E+02</pdfrwt>
<pdfrwt beam="2">  1       -1 0.86653751E-02 0.90357313E+02</pdfrwt>
<totfact> 0.91619112E+04</totfact>
</mgrwt>
</event>
<event>
 5   1  0.1388354E+00  0.9147432E+02  0.7818608E-02  0.1299320E+00
          1   -1    0    0  501    0  0.00000000000E+00  0.00000000000E+00  0.37813154213E+02  0.37813154501E+02  0.46700000000E-02 0. -1.
         -1   -1    0    0    0  501 -0.00000000000E+00 -0.00000000000E+00 -0.55321689090E+02  0.55321689287E+02  0.46700000000E-02 0.  1.
         23    2    1    2    0    0  0.00000000000E+00  0.00000000000E+00 -0.17508534877E+02  0.93134843788E+02  0.91474315160E+02 0.  0.
        -13    1    3    3    0    0  0.14008498167E+02  0.18569408519E+02  0.31340997200E+02  0.39029863331E+02  0.10570000000E+00 0. -1.
         13    1    3    3    0    0 -0.14008498167E+02 -0.18569408519E+02 -0.48849532077E+02  0.54104980457E+02  0.10570000000E+00 0.  1.
<mgrwt>
<rscale>  0 0.91474315E+02</rscale>
<asrwt>0</asrwt>
<pdfrwt beam="1">  1        1 0.58174083E-02 0.91474315E+02</pdfrwt>
<pdfrwt beam="2">  1       -1 0.85110292E-02 0.91474315E+02</pdfrwt>
<totfact> 0.89062617E+04</totfact>
</mgrwt>
</event>
<event>
 5   1  0.1388354E+00  0.9327490E+02  0.7818608E-02  0.1295109E+00
          1   -1    0    0  501    0  0.00000000000E+00  0.00000000000E+00  0.94745053914E+02  0.94745054029E+02  0.46700000000E-02 0. -1.
         -1   -1    0    0    0  501 -0.00000000000E+00 -0.00000000000E+00 -0.22956888692E+02  0.22956889167E+02  0.46700000000E-02 0.  1.
         23    2    1    2    0    0  0.00000000000E+00  0.00000000000E+00  0.71788165222E+02  0.11770194320E+03  0.93274898908E+02 0.  0.
        -13    1    3    3    0    0  0.23095812405E+02  0.31432682616E+02  0.36330448554E+01  0.39174484993E+02  0.10570000000E+00 0.  1.
         13    1    3    3    0    0 -0.23095812405E+02 -0.31432682616E+02  0.68155120367E+02  0.78527458203E+02  0.10570000000E+00 0. -1.
<mgrwt>
<rscale>  0 0.93274899E+02</rscale>
<asrwt>0</asrwt>
<pdfrwt beam="1">  1        1 0.14576162E-01 0.93274899E+02</pdfrwt>
<pdfrwt beam="2">  1       -1 0.35318291E-02 0.93274899E+02</pdfrwt>
<totfact> 0.97275140E+04</totfact>
</mgrwt>
</event>
<event>
 5   1  0.1388354E+00  0.9177112E+02  0.7818608E-02  0.1298618E+00
          1   -1    0    0  501    0  0.00000000000E+00  0.00000000000E+00  0.15839354226E+03  0.15839354233E+03  0.46700000000E-02 0. -1.
         -1   -1    0    0    0  501 -0.00000000000E+00 -0.00000000000E+00 -0.13292742271E+02  0.13292743092E+02  0.46700000000E-02 0.  1.
         23    2    1    2    0    0  0.00000000000E+00  0.00000000000E+00  0.14510079999E+03  0.17168628542E+03  0.91771119882E+02 0.  0.
        -13    1    3    3    0    0 -0.39299443032E+02  0.25206234464E+01  0.28490008709E+02  0.48605468148E+02  0.10570000000E+00 0.  1.
         13    1    3    3    0    0  0.39299443032E+02 -0.25206234464E+01  0.11661079128E+03  0.12308081728E+03  0.10570000000E+00 0. -1.
<mgrwt>
<rscale>  0 0.91771120E+02</rscale>
<asrwt>0</asrwt>
<pdfrwt beam="1">  1        1 0.24368235E-01 0.91771120E+02</pdfrwt>
<pdfrwt beam="2">  1       -1 0.20450375E-02 0.91771120E+02</pdfrwt>
<totfact> 0.11129931E+05</totfact>
</mgrwt>
</event>
<event>
 5   1  0.1388354E+00  0.9219716E+02  0.7818608E-02  0.1297617E+00
         -1   -1    0    0    0  501 -0.00000000000E+00  0.00000000000E+00  0.89265141401E+02  0.89265141523E+02  0.46700000000E-02 0.  1.
          1   -1    0    0  501    0  0.00000000000E+00 -0.00000000000E+00 -0.23806371154E+02  0.23806371612E+02  0.46700000000E-02 0. -1.
         23    2    1    2    0    0  0.00000000000E+00  0.00000000000E+00  0.65458770247E+02  0.11307151314E+03  0.92197160914E+02 0.  0.
        -13    1    3    3    0    0 -0.20366161576E+02  0.18393672782E+02 -0.12696815492E+02  0.30237857594E+02  0.10570000000E+00 0. -1.
         13    1    3    3    0    0  0.20366161576E+02 -0.18393672782E+02  0.78155585739E+02  0.82833655542E+02  0.10570000000E+00 0.  1.
<mgrwt>
<rscale>  0 0.92197161E+02</rscale>
<asrwt>0</asrwt>
<pdfrwt beam="2">  1        1 0.36625188E-02 0.92197161E+02</pdfrwt>
<pdfrwt beam="1">  1       -1 0.13733098E-01 0.92197161E+02</pdfrwt>
<totfact> 0.80719951E+04</totfact>
</mgrwt>
</event>
<event>
 5   1  0.1388354E+00  0.9219164E+02  0.7818608E-02  0.1297629E+00
         -1   -1    0    0    0  501 -0.00000000000E+00  0.00000000000E+00  0.21346159852E+03  0.21346159857E+03  0.46700000000E-02 0.  1.
          1   -1    0    0  501    0  0.00000000000E+00 -0.00000000000E+00 -0.99541306609E+01  0.99541317563E+01  0.46700000000E-02 0. -1.
         23    2    1    2    0    0  0.00000000000E+00  0.00000000000E+00  0.20350746786E+03  0.22341573033E+03  0.92191643240E+02 0.  0.
        -13    1    3    3    0    0  0.17751048011E+02  0.27716494128E+02  0.17996222049E+03  0.18294730315E+03  0.10570000000E+00 0.  1.
         13    1    3    3    0    0 -0.17751048011E+02 -0.27716494128E+02  0.23545247365E+02  0.40468427177E+02  0.10570000000E+00 0. -1.
<mgrwt>
<rscale>  0 0.92191643E+02</rscale>
<asrwt>0</asrwt>
<pdfrwt beam="2">  1        1 0.15314049E-02 0.92191643E+02</pdfrwt>
<pdfrwt beam="1">  1       -1 0.32840245E-01 0.92191643E+02</pdfrwt>
<totfact> 0.66172296E+04</totfact>
</mgrwt>
</event>
<event>
 5   1  0.1388354E+00  0.9014519E+02  0.7818608E-02  0.1302500E+00
         -1   -1    0    0    0  501 -0.00000000000E+00  0.00000000000E+00  0.34883979019E+02  0.34883979332E+02  0.46700000000E-02 0.  1.
          1   -1    0    0  501    0  0.00000000000E+00 -0.00000000000E+00 -0.58237011761E+02  0.58237011948E+02  0.46700000000E-02 0. -1.
         23    2    1    2    0    0  0.00000000000E+00  0.00000000000E+00 -0.23353032742E+02  0.93120991280E+02  0.90145187774E+02 0.  0.
        -13    1    3    3    0    0 -0.17404644099E+02 -0.32653657247E+02  0.14909118506E+02  0.39893307145E+02  0.10570000000E+00 0.  1.
         13    1    3    3    0    0  0.17404644099E+02  0.32653657247E+02 -0.38262151248E+02  0.53227684135E+02  0.10570000000E+00 0. -1.
<mgrwt>
<rscale>  0 0.90145188E+02</rscale>
<asrwt>0</asrwt>
<pdfrwt beam="2">  1        1 0.89595403E-02 0.90145188E+02</pdfrwt>
<pdfrwt beam="1">  1       -1 0.53667660E-02 0.90145188E+02</pdfrwt>
<totfact> 0.99013023E+04</totfact>
</mgrwt>
</event>
<event>
 5   1  0.1388354E+00  0.9343947E+02  0.7818608E-02  0.1294730E+00
          1   -1    0    0  501    0  0.00000000000E+00  0.00000000000E+00  0.13879568969E+03  0.13879568977E+03  0.46700000000E-02 0. -1.
         -1   -1    0    0    0  501 -0.00000000000E+00 -0.00000000000E+00 -0.15726236069E+02  0.15726236762E+02  0.46700000000E-02 0.  1.
         23    2    1    2    0    0  0.00000000000E+00  0.00000000000E+00  0.12306945362E+03  0.15452192653E+03  0.93439474335E+02 0.  0.
        -13    1    3    3    0    0 -0.34648542948E+02  0.25428721165E+02  0.31240589421E+02  0.53133106331E+02  0.10570000000E+00 0.  1.
         13    1    3    3    0    0  0.34648542948E+02 -0.25428721165E+02  0.91828864198E+02  0.10138882020E+03  0.10570000000E+00 0. -1.
<mgrwt>
<rscale>  0 0.93439474E+02</rscale>
<asrwt>0</asrwt>
<pdfrwt beam="1">  1        1 0.21353183E-01 0.93439474E+02</pdfrwt>
<pdfrwt beam="2">  1       -1 0.24194210E-02 0.93439474E+02</pdfrwt>
<totfact> 0.10345465E+05</totfact>
</mgrwt>
</event>
<event>
 5   1  0.1388354E+00  0.9019366E+02  0.7818608E-02  0.1302383E+00
          1   -1    0    0  501    0  0.00000000000E+00  0.00000000000E+00  0.27589310772E+03  0.27589310776E+03  0.46700000000E-02 0. -1.
         -1   -1    0    0    0  501 -0.00000000000E+00 -0.00000000000E+00 -0.73714201924E+01  0.73714216717E+01  0.46700000000E-02 0.  1.
         23    2    1    2    0    0  0.00000000000E+00  0.00000000000E+00  0.26852168753E+03  0.28326452943E+03  0.90193663643E+02 0.  0.
        -13    1    3    3    0    0 -0.21151131925E+02 -0.31068578696E+02  0.21253025615E+03  0.21582805174E+03  0.10570000000E+00 0. -1.
         13    1    3    3    0    0  0.21151131925E+02  0.31068578696E+02  0.55991431377E+02  0.67436477696E+02  0.10570000000E+00 0.  1.
<mgrwt>
<rscale>  0 0.90193664E+02</rscale>
<asrwt>0</asrwt>
<pdfrwt beam="1">  1        1 0.42445086E-01 0.90193664E+02</pdfrwt>
<pdfrwt beam="2">  1       -1 0.11340650E-02 0.90193664E+02</pdfrwt>
<totfact> 0.12976655E+05</totfact>
</mgrwt>
</event>
<event>
 5   1  0.1388354E+00  0.9008774E+02  0.7818608E-02  0.1302639E+00
          1   -1    0    0  501    0  0.00000000000E+00  0.00000000000E+00  0.16357609097E+03  0.16357609104E+03  0.46700000000E-02 0. -1.
         -1   -1    0    0    0  501 -0.00000000000E+00 -0.00000000000E+00 -0.12403708069E+02  0.12403708948E+02  0.46700000000E-02 0.  1.
         23    2    1    2    0    0  0.00000000000E+00  0.00000000000E+00  0.15117238290E+03  0.17597979998E+03  0.90087738625E+02 0.  0.
        -13    1    3    3    0    0  0.25056275152E+02  0.72599028413E+01  0.38548317802E+01  0.26370324501E+02  0.10570000000E+00 0.  1.
         13    1    3    3    0    0 -0.25056275152E+02 -0.72599028413E+01  0.14731755112E+03  0.14960947548E+03  0.10570000000E+00 0. -1.
<mgrwt>
<rscale>  0 0.90087739E+02</rscale>
<asrwt>0</asrwt>
<pdfrwt beam="1">  1        1 0.25165552E-01 0.90087739E+02</pdfrwt>
<pdfrwt beam="2">  1       -1 0.19082629E-02 0.90087739E+02</pdfrwt>
<totfact> 0.11769096E+05</totfact>
</mgrwt>
</event>
<event>
 5   1  0.1388354E+00  0.9484854E+02  0.7818608E-02  0.1291518E+00
          1   -1    0    0  501    0  0.00000000000E+00  0.00000000000E+00  0.11004397119E+03  0.11004397129E+03  0.46700000000E-02 0. -1.
         -1   -1    0    0    0  501 -0.00000000000E+00 -0.00000000000E+00 -0.20437844254E+02  0.20437844788E+02  0.46700000000E-02 0.  1.
         23    2    1    2    0    0  0.00000000000E+00  0.00000000000E+00  0.89606126933E+02  0.13048181607E+03  0.94848544228E+02 0.  0.
        -13    1    3    3    0    0 -0.34927082391E+01 -0.45434308540E+02  0.26730977811E+02  0.52830216265E+02  0.10570000000E+00 0.  1.
         13    1    3    3    0    0  0.34927082391E+01  0.45434308540E+02  0.62875149122E+02  0.77651599810E+02  0.10570000000E+00 0. -1.
<mgrwt>
<rscale>  0 0.94848544E+02</rscale>
<asrwt>0</asrwt>
<pdfrwt beam="1">  1        1 0.16929842E-01 0.94848544E+02</pdfrwt>
<pdfrwt beam="2">  1       -1 0.31442838E-02 0.94848544E+02</pdfrwt>
<totfact> 0.95309458E+04</totfact>
</mgrwt>
</event>
<event>
 5   1  0.1388354E+00  0.9197900E+02  0.7818608E-02  0.1298129E+00
          1   -1    0    0  501    0  0.00000000000E+00  0.00000000000E+00  0.13680242737E+03  0.13680242745E+03  0.46700000000E-02 0. -1.
         -1   -1    0    0    0  501 -0.00000000000E+00 -0.00000000000E+00 -0.15460499884E+02  0.15460500589E+02  0.46700000000E-02 0.  1.
         23    2    1    2    0    0  0.00000000000E+00  0.00000000000E+00  0.12134192749E+03  0.15226292804E+03  0.91978996998E+02 0.  0.
        -13    1    3    3    0    0  0.35418740952E+02  0.21672215662E+02  0.27943606962E+02  0.50050259589E+02  0.10570000000E+00 0.  1.
         13    1    3    3    0    0 -0.35418740952E+02 -0.21672215662E+02  0.93398320524E+02  0.10221266845E+03  0.10570000000E+00 0. -1.
<mgrwt>
<rscale>  0 0.91978997E+02</rscale>
<asrwt>0</asrwt>
<pdfrwt beam="1">  1        1 0.21046528E-01 0.91978997E+02</pdfrwt>
<pdfrwt beam="2">  1       -1 0.23785385E-02 0.91978997E+02</pdfrwt>
<totfact> 0.10768495E+05</totfact>
</mgrwt>
</event>
<event>
 5   1  0.1388354E+00  0.9028891E+02  0.7818608E-02  0.1302154E+00
         -1   -1    0    0    0  501 -0.00000000000E+00  0.00000000000E+00  0.16221784209E+02  0.16221784881E+02  0.46700000000E-02 0.  1.
          1   -1    0    0  501    0  0.00000000000E+00 -0.00000000000E+00 -0.12563488436E+03  0.12563488445E+03  0.46700000000E-02 0. -1.
         23    2    1    2    0    0  0.00000000000E+00  0.00000000000E+00 -0.10941310015E+03  0.14185666933E+03  0.90288914868E+02 0.  0.
        -13    1    3    3    0    0 -0.27044523007E+02 -0.45351121591E+01  0.16367297385E+01  0.27471139832E+02  0.10570000000E+00 0.  1.
         13    1    3    3    0    0  0.27044523007E+02  0.45351121591E+01 -0.11104982989E+03  0.11438552949E+03  0.10570000000E+00 0. -1.
<mgrwt>
<rscale>  0 0.90288915E+02</rscale>
<asrwt>0</asrwt>
<pdfrwt beam="2">  1        1 0.19328443E-01 0.90288915E+02</pdfrwt>
<pdfrwt beam="1">  1       -1 0.24956592E-02 0.90288915E+02</pdfrwt>
<totfact> 0.11152238E+05</totfact>
</mgrwt>
</event>
<event>
 5   1  0.1388354E+00  0.8912703E+02  0.7818608E-02  0.1304980E+00
         -1   -1    0    0    0  501 -0.00000000000E+00  0.00000000000E+00  0.16318923199E+02  0.16318923867E+02  0.46700000000E-02 0.  1.
          1   -1    0    0  501    0  0.00000000000E+00 -0.00000000000E+00 -0.12169349304E+03  0.12169349313E+03  0.46700000000E-02 0. -1.
         23    2    1    2    0    0  0.00000000000E+00  0.00000000000E+00 -0.10537456984E+03  0.13801241700E+03  0.89127028875E+02 0.  0.
        -13    1    3    3    0    0  0.25030553870E+02 -0.16021001324E+02 -0.10410779067E+03  0.10826654313E+03  0.10570000000E+00 0. -1.
         13    1    3    3    0    0 -0.25030553870E+02  0.16021001324E+02 -0.12667791760E+01  0.29745873872E+02  0.10570000000E+00 0.  1.
<mgrwt>
<rscale>  0 0.89127029E+02</rscale>
<asrwt>0</asrwt>
<pdfrwt beam="2">  1        1 0.18722075E-01 0.89127029E+02</pdfrwt>
<pdfrwt beam="1">  1       -1 0.25106037E-02 0.89127029E+02</pdfrwt>
<totfact> 0.11485410E+05</totfact>
</mgrwt>
</event>
<event>
 5   1  0.1388354E+00  0.9151949E+02  0.7818608E-02  0.1299213E+00
         -1   -1    0    0    0  501 -0.00000000000E+00  0.00000000000E+00  0.22377800222E+03  0.22377800227E+03  0.46700000000E-02 0.  1.
          1   -1    0    0  501    0  0.00000000000E+00 -0.00000000000E+00 -0.93572835665E+01  0.93572847318E+01  0.46700000000E-02 0. -1.
         23    2    1    2    0    0  0.00000000000E+00  0.00000000000E+00  0.21442071865E+03  0.23313528700E+03  0.91519492223E+02 0.  0.
        -13    1    3    3    0    0  0.23385215269E+02 -0.25090572945E+02  0.18437288810E+03  0.18753607169E+03  0.10570000000E+00 0.  1.
         13    1    3    3    0    0 -0.23385215269E+02  0.25090572945E+02  0.30047830550E+02  0.45599215313E+02  0.10570000000E+00 0. -1.
<mgrwt>
<rscale>  0 0.91519492E+02</rscale>
<asrwt>0</asrwt>
<pdfrwt beam="2">  1        1 0.14395823E-02 0.91519492E+02</pdfrwt>
<pdfrwt beam="1">  1       -1 0.34427382E-01 0.91519492E+02</pdfrwt>
<totfact> 0.66482752E+04</totfact>
</mgrwt>
</event>
<event>
 5   1  0.1388354E+00  0.9226999E+02  0.7818608E-02  0.1297446E+00
         -1   -1    0    0    0  501 -0.00000000000E+00  0.00000000000E+00  0.49020785152E+02  0.49020785374E+02  0.46700000000E-02 0. -1.
          1   -1    0    0  501    0  0.00000000000E+00 -0.00000000000E+00 -0.43419084519E+02  0.43419084770E+02  0.46700000000E-02 0.  1.
         23    2    1    2    0    0  0.00000000000E+00  0.00000000000E+00  0.56017006333E+01  0.92439870144E+02  0.92269987224E+02 0.  0.
        -13    1    3    3    0    0 -0.22299423466E+02 -0.84994417238E+01 -0.36755026231E+02  0.43822915492E+02  0.10570000000E+00 0.  1.
         13    1    3    3    0    0  0.22299423466E+02  0.84994417238E+01  0.42356726864E+02  0.48616954652E+02  0.10570000000E+00 0. -1.
<mgrwt>
<rscale>  0 0.92269987E+02</rscale>
<asrwt>0</asrwt>
<pdfrwt beam="2">  1        1 0.66798592E-02 0.92269987E+02</pdfrwt>
<pdfrwt beam="1">  1       -1 0.75416593E-02 0.92269987E+02</pdfrwt>
<totfact> 0.88763237E+04</totfact>
</mgrwt>
</event>
<event>
 5   1  0.1388354E+00  0.9006165E+02  0.7818608E-02  0.1302702E+00
          1   -1    0    0  501    0  0.00000000000E+00  0.00000000000E+00  0.25139567747E+03  0.25139567751E+03  0.46700000000E-02 0. -1.
         -1   -1    0    0    0  501 -0.00000000000E+00 -0.00000000000E+00 -0.80660692112E+01  0.80660705631E+01  0.46700000000E-02 0.  1.
         23    2    1    2    0    0  0.00000000000E+00  0.00000000000E+00  0.24332960826E+03  0.25946174807E+03  0.90061648105E+02 0.  0.
        -13    1    3    3    0    0 -0.23716349707E+02  0.37569281356E+02  0.14280540959E+03  0.14955705374E+03  0.10570000000E+00 0. -1.
         13    1    3    3    0    0  0.23716349707E+02 -0.37569281356E+02  0.10052419867E+03  0.10990469433E+03  0.10570000000E+00 0.  1.
<mgrwt>
<rscale>  0 0.90061648E+02</rscale>
<asrwt>0</asrwt>
<pdfrwt beam="1">  1        1 0.38676262E-01 0.90061648E+02</pdfrwt>
<pdfrwt beam="2">  1       -1 0.12409337E-02 0.90061648E+02</pdfrwt>
<totfact> 0.12793672E+05</totfact>
</mgrwt>
</event>
<event>
 5   1  0.1388354E+00  0.9190784E+02  0.7818608E-02  0.1298296E+00
          1   -1    0    0  501    0  0.00000000000E+00  0.00000000000E+00  0.52976420527E+02  0.52976420732E+02  0.46700000000E-02 0. -1.
         -1   -1    0    0    0  501 -0.00000000000E+00 -0.00000000000E+00 -0.39862316746E+02  0.39862317020E+02  0.46700000000E-02 0.  1.
         23    2    1    2    0    0  0.00000000000E+00  0.00000000000E+00  0.13114103780E+02  0.92838737752E+02  0.91907842481E+02 0.  0.
        -13    1    3    3    0    0 -0.17694810347E+02 -0.18421718870E+02 -0.32030463355E+02  0.40968619633E+02  0.10570000000E+00 0.  1.
         13    1    3    3    0    0  0.17694810347E+02  0.18421718870E+02  0.45144567136E+02  0.51870118119E+02  0.10570000000E+00 0. -1.
<mgrwt>
<rscale>  0 0.91907842E+02</rscale>
<asrwt>0</asrwt>
<pdfrwt beam="1">  1        1 0.81502185E-02 0.91907842E+02</pdfrwt>
<pdfrwt beam="2">  1       -1 0.61326642E-02 0.91907842E+02</pdfrwt>
<totfact> 0.92495545E+04</totfact>
</mgrwt>
</event>
<event>
 5   1  0.1388354E+00  0.9157130E+02  0.7818608E-02  0.1299091E+00
         -1   -1    0    0    0  501 -0.00000000000E+00  0.00000000000E+00  0.87117958792E+01  0.87117971309E+01  0.46700000000E-02 0.  1.
          1   -1    0    0  501    0  0.00000000000E+00 -0.00000000000E+00 -0.24063070956E+03  0.24063070960E+03  0.46700000000E-02 0. -1.
         23    2    1    2    0    0  0.00000000000E+00  0.00000000000E+00 -0.23191891368E+03  0.24934250673E+03  0.91571300868E+02 0.  0.
        -13    1    3    3    0    0  0.24485343617E+01 -0.45377434530E+02 -0.13117081577E+03  0.13881967068E+03  0.10570000000E+00 0.  1.
         13    1    3    3    0    0 -0.24485343617E+01  0.45377434530E+02 -0.10074809790E+03  0.11052283605E+03  0.10570000000E+00 0. -1.
<mgrwt>
<rscale>  0 0.91571301E+02</rscale>
<asrwt>0</asrwt>
<pdfrwt beam="2">  1        1 0.37020104E-01 0.91571301E+02</pdfrwt>
<pdfrwt beam="1">  1       -1 0.13402766E-02 0.91571301E+02</pdfrwt>
<totfact> 0.12134293E+05</totfact>
</mgrwt>
</event>
<event>
 5   1  0.1388354E+00  0.9587046E+02  0.7818608E-02  0.1289228E+00
          1   -1    0    0  501    0  0.00000000000E+00  0.00000000000E+00  0.26108188371E+02  0.26108188789E+02  0.46700000000E-02 0. -1.
         -1   -1    0    0    0  501 -0.00000000000E+00 -0.00000000000E+00 -0.88010181879E+02  0.88010182003E+02  0.46700000000E-02 0.  1.
         23    2    1    2    0    0  0.00000000000E+00  0.00000000000E+00 -0.61901993508E+02  0.11411837079E+03  0.95870463397E+02 0.  0.
        -13    1    3    3    0    0 -0.42001049195E+02 -0.19006485599E+02 -0.46582132900E+02  0.65538087448E+02  0.10570000000E+00 0. -1.
         13    1    3    3    0    0  0.42001049195E+02  0.19006485599E+02 -0.15319860608E+02  0.48580283345E+02  0.10570000000E+00 0.  1.
<mgrwt>
<rscale>  0 0.95870463E+02</rscale>
<asrwt>0</asrwt>
<pdfrwt beam="1">  1        1 0.40166445E-02 0.95870463E+02</pdfrwt>
<pdfrwt beam="2">  1       -1 0.13540028E-01 0.95870463E+02</pdfrwt>
<totfact> 0.73189862E+04</totfact>
</mgrwt>
</event>
<event>
 5   1  0.1388354E+00  0.9184686E+02  0.7818608E-02  0.1298440E+00
         -1   -1    0    0    0  501 -0.00000000000E+00  0.00000000000E+00  0.56665426210E+02  0.56665426403E+02  0.46700000000E-02 0.  1.
          1   -1    0    0  501    0  0.00000000000E+00 -0.00000000000E+00 -0.37217781813E+02  0.37217782106E+02  0.46700000000E-02 0. -1.
         23    2    1    2    0    0  0.00000000000E+00  0.00000000000E+00  0.19447644397E+02  0.93883208508E+02  0.91846861499E+02 0.  0.
        -13    1    3    3    0    0  0.35564208801E+02 -0.10488395196E+02  0.37419395920E+02  0.52678664988E+02  0.10570000000E+00 0.  1.
         13    1    3    3    0    0 -0.35564208801E+02  0.10488395196E+02 -0.17971751522E+02  0.41204543520E+02  0.10570000000E+00 0. -1.
<mgrwt>
<rscale>  0 0.91846861E+02</rscale>
<asrwt>0</asrwt>
<pdfrwt beam="2">  1        1 0.57258126E-02 0.91846861E+02</pdfrwt>
<pdfrwt beam="1">  1       -1 0.87177579E-02 0.91846861E+02</pdfrwt>
<totfact> 0.87825501E+04</totfact>
</mgrwt>
</event>
<event>
 5   1  0.1388354E+00  0.9173982E+02  0.7818608E-02  0.1298692E+00
         -1   -1    0    0    0  501 -0.00000000000E+00  0.00000000000E+00  0.13647059885E+03  0.13647059893E+03  0.46700000000E-02 0.  1.
          1   -1    0    0  501    0  0.00000000000E+00 -0.00000000000E+00 -0.15417594571E+02  0.15417595279E+02  0.46700000000E-02 0. -1.
         23    2    1    2    0    0  0.00000000000E+00  0.00000000000E+00  0.12105300428E+03  0.15188819421E+03  0.91739815213E+02 0.  0.
        -13    1    3    3    0    0  0.36228748552E+01 -0.45121537186E+02  0.72800476668E+02  0.85726302357E+02  0.10570000000E+00 0. -1.
         13    1    3    3    0    0 -0.36228748552E+01  0.45121537186E+02  0.48252527615E+02  0.66161891856E+02  0.10570000000E+00 0.  1.
<mgrwt>
<rscale>  0 0.91739815E+02</rscale>
<asrwt>0</asrwt>
<pdfrwt beam="2">  1        1 0.23719376E-02 0.91739815E+02</pdfrwt>
<pdfrwt beam="1">  1       -1 0.20995477E-01 0.91739815E+02</pdfrwt>
<totfact> 0.75202366E+04</totfact>
</mgrwt>
</event>
<event>
 5   1  0.1388354E+00  0.8930178E+02  0.7818608E-02  0.1304551E+00
          1   -1    0    0  501    0  0.00000000000E+00  0.00000000000E+00  0.51533204236E+02  0.51533204448E+02  0.46700000000E-02 0. -1.
         -1   -1    0    0    0  501 -0.00000000000E+00 -0.00000000000E+00 -0.38687713706E+02  0.38687713988E+02  0.46700000000E-02 0.  1.
         23    2    1    2    0    0  0.00000000000E+00  0.00000000000E+00  0.12845490530E+02  0.90220918436E+02  0.89301777678E+02 0.  0.
        -13    1    3    3    0    0 -0.21888790554E+02 -0.37080644568E+00  0.45739016521E+02  0.50708238523E+02  0.10570000000E+00 0. -1.
         13    1    3    3    0    0  0.21888790554E+02  0.37080644568E+00 -0.32893525990E+02  0.39512679913E+02  0.10570000000E+00 0.  1.
<mgrwt>
<rscale>  0 0.89301778E+02</rscale>
<asrwt>0</asrwt>
<pdfrwt beam="1">  1        1 0.79281853E-02 0.89301778E+02</pdfrwt>
<pdfrwt beam="2">  1       -1 0.59519560E-02 0.89301778E+02</pdfrwt>
<totfact> 0.99800346E+04</totfact>
</mgrwt>
</event>
<event>
 5   1  0.1388354E+00  0.9146825E+02  0.7818608E-02  0.1299335E+00
         -1   -1    0    0    0  501 -0.00000000000E+00  0.00000000000E+00  0.14343243997E+02  0.14343244757E+02  0.46700000000E-02 0.  1.
          1   -1    0    0  501    0  0.00000000000E+00 -0.00000000000E+00 -0.14582544220E+03  0.14582544228E+03  0.46700000000E-02 0. -1.
         23    2    1    2    0    0  0.00000000000E+00  0.00000000000E+00 -0.13148219821E+03  0.16016868704E+03  0.91468245099E+02 0.  0.
        -13    1    3    3    0    0  0.45048193516E+01  0.32169517062E+02 -0.93673722692E+01  0.33807248647E+02  0.10570000000E+00 0.  1.
         13    1    3    3    0    0 -0.45048193516E+01 -0.32169517062E+02 -0.12211482594E+03  0.12636143839E+03  0.10570000000E+00 0. -1.
<mgrwt>
<rscale>  0 0.91468245E+02</rscale>
<asrwt>0</asrwt>
<pdfrwt beam="2">  1        1 0.22434683E-01 0.91468245E+02</pdfrwt>
<pdfrwt beam="1">  1       -1 0.22066531E-02 0.91468245E+02</pdfrwt>
<totfact> 0.11059631E+05</totfact>
</mgrwt>
</event>
<event>
 5   1  0.1388354E+00  0.9628635E+02  0.7818608E-02  0.1288305E+00
         -1   -1    0    0    0  501 -0.00000000000E+00  0.00000000000E+00  0.97648739535E+01  0.97648750702E+01  0.46700000000E-02 0.  1.
          1   -1    0    0  501    0  0.00000000000E+00 -0.00000000000E+00 -0.23735743105E+03  0.23735743110E+03  0.46700000000E-02 0. -1.
         23    2    1    2    0    0  0.00000000000E+00  0.00000000000E+00 -0.22759255710E+03  0.24712230617E+03  0.96286355000E+02 0.  0.
        -13    1    3    3    0    0 -0.25282283927E+02  0.37999086161E+02 -0.74483031605E+02  0.87354780059E+02  0.10570000000E+00 0.  1.
         13    1    3    3    0    0  0.25282283927E+02 -0.37999086161E+02 -0.15310952549E+03  0.15976752611E+03  0.10570000000E+00 0. -1.
<mgrwt>
<rscale>  0 0.96286355E+02</rscale>
<asrwt>0</asrwt>
<pdfrwt beam="2">  1        1 0.36516523E-01 0.96286355E+02</pdfrwt>
<pdfrwt beam="1">  1       -1 0.15022886E-02 0.96286355E+02</pdfrwt>
<totfact> 0.10576162E+05</totfact>
</mgrwt>
</event>
<event>
 5   1  0.1388354E+00  0.9131307E+02  0.7818608E-02  0.1299703E+00
          1   -1    0    0  501    0  0.00000000000E+00  0.00000000000E+00  0.31969831739E+03  0.31969831742E+03  0.46700000000E-02 0. -1.
         -1   -1    0    0    0  501 -0.00000000000E+00 -0.00000000000E+00 -0.65202681121E+01  0.65202697845E+01  0.46700000000E-02 0.  1.
         23    2    1    2    0    0  0.00000000000E+00  0.00000000000E+00  0.31317804928E+03  0.32621858721E+03  0.91313066375E+02 0.  0.
        -13    1    3    3    0    0  0.16610054333E+02  0.36147445395E+02  0.23663091031E+03  0.23995151719E+03  0.10570000000E+00 0. -1.
         13    1    3    3    0    0 -0.16610054333E+02 -0.36147445395E+02  0.76547138967E+02  0.86267070021E+02  0.10570000000E+00 0.  1.
<mgrwt>
<rscale>  0 0.91313066E+02</rscale>
<asrwt>0</asrwt>
<pdfrwt beam="1">  1        1 0.49184352E-01 0.91313066E+02</pdfrwt>
<pdfrwt beam="2">  1       -1 0.10031184E-02 0.91313066E+02</pdfrwt>
<totfact> 0.12915382E+05</totfact>
</mgrwt>
</event>
<event>
 5   1  0.1388354E+00  0.9032222E+02  0.7818608E-02  0.1302073E+00
         -1   -1    0    0    0  501 -0.00000000000E+00  0.00000000000E+00  0.13488711400E+02  0.13488712208E+02  0.46700000000E-02 0.  1.
          1   -1    0    0  501    0  0.00000000000E+00 -0.00000000000E+00 -0.15120241427E+03  0.15120241434E+03  0.46700000000E-02 0. -1.
         23    2    1    2    0    0  0.00000000000E+00  0.00000000000E+00 -0.13771370287E+03  0.16469112655E+03  0.90322218785E+02 0.  0.
        -13    1    3    3    0    0  0.26179371903E+02 -0.58474607529E+01 -0.26113534070E+01  0.26951486964E+02  0.10570000000E+00 0.  1.
         13    1    3    3    0    0 -0.26179371903E+02  0.58474607529E+01 -0.13510234946E+03  0.13773963959E+03  0.10570000000E+00 0. -1.
<mgrwt>
<rscale>  0 0.90322219E+02</rscale>
<asrwt>0</asrwt>
<pdfrwt beam="2">  1        1 0.23261909E-01 0.90322219E+02</pdfrwt>
<pdfrwt beam="1">  1       -1 0.20751865E-02 0.90322219E+02</pdfrwt>
<totfact> 0.11518333E+05</totfact>
</mgrwt>
</event>
<event>
 5   1  0.1388354E+00  0.9086764E+02  0.7818608E-02  0.1300764E+00
          1   -1    0    0  501    0  0.00000000000E+00  0.00000000000E+00  0.22821771048E+03  0.22821771052E+03  0.46700000000E-02 0. -1.
         -1   -1    0    0    0  501 -0.00000000000E+00 -0.00000000000E+00 -0.90450111238E+01  0.90450123293E+01  0.46700000000E-02 0.  1.
         23    2    1    2    0    0  0.00000000000E+00  0.00000000000E+00  0.21917269935E+03  0.23726272285E+03  0.90867637332E+02 0.  0.
        -13    1    3    3    0    0  0.36661926040E+02  0.26591458965E+02  0.10016537871E+03  0.10992868950E+03  0.10570000000E+00 0.  1.
         13    1    3    3    0    0 -0.36661926040E+02 -0.26591458965E+02  0.11900732064E+03  0.12733403335E+03  0.10570000000E+00 0. -1.
<mgrwt>
<rscale>  0 0.90867637E+02</rscale>
<asrwt>0</asrwt>
<pdfrwt beam="1">  1        1 0.35110411E-01 0.90867637E+02</pdfrwt>
<pdfrwt beam="2">  1       -1 0.13915405E-02 0.90867637E+02</pdfrwt>
<totfact> 0.12259923E+05</totfact>
</mgrwt>
</event>
<event>
 5   1  0.1388354E+00  0.9164678E+02  0.7818608E-02  0.1298912E+00
          1   -1    0    0  501    0  0.00000000000E+00  0.00000000000E+00  0.17420608689E+02  0.17420609315E+02  0.46700000000E-02 0. -1.
         -1   -1    0    0    0  501 -0.00000000000E+00 -0.00000000000E+00 -0.12053442189E+03  0.12053442198E+03  0.46700000000E-02 0.  1.
         23    2    1    2    0    0  0.00000000000E+00  0.00000000000E+00 -0.10311381320E+03  0.13795503130E+03  0.91646779467E+02 0.  0.
        -13    1    3    3    0    0  0.17925204954E+02 -0.36966880277E+02 -0.82107580844E+02  0.91812467643E+02  0.10570000000E+00 0.  1.
         13    1    3    3    0    0 -0.17925204954E+02  0.36966880277E+02 -0.21006232357E+02  0.46142563653E+02  0.10570000000E+00 0. -1.
<mgrwt>
<rscale>  0 0.91646779E+02</rscale>
<asrwt>0</asrwt>
<pdfrwt beam="1">  1        1 0.26800938E-02 0.91646779E+02</pdfrwt>
<pdfrwt beam="2">  1       -1 0.18543757E-01 0.91646779E+02</pdfrwt>
<totfact> 0.77422224E+04</totfact>
</mgrwt>
</event>
<event>
 5   1  0.1388354E+00  0.9178301E+02  0.7818608E-02  0.1298590E+00
          1   -1    0    0  501    0  0.00000000000E+00  0.00000000000E+00  0.14284265218E+03  0.14284265226E+03  0.46700000000E-02 0. -1.
         -1   -1    0    0    0  501 -0.00000000000E+00 -0.00000000000E+00 -0.14743706828E+02  0.14743707568E+02  0.46700000000E-02 0.  1.
         23    2    1    2    0    0  0.00000000000E+00  0.00000000000E+00  0.12809894535E+03  0.15758635982E+03  0.91783010423E+02 0.  0.
        -13    1    3    3    0    0  0.37248046374E+02 -0.24150456638E+02  0.44073975853E+02  0.62555479652E+02  0.10570000000E+00 0.  1.
         13    1    3    3    0    0 -0.37248046374E+02  0.24150456638E+02  0.84024969499E+02  0.95030880172E+02  0.10570000000E+00 0. -1.
<mgrwt>
<rscale>  0 0.91783010E+02</rscale>
<asrwt>0</asrwt>
<pdfrwt beam="1">  1        1 0.21975794E-01 0.91783010E+02</pdfrwt>
<pdfrwt beam="2">  1       -1 0.22682626E-02 0.91783010E+02</pdfrwt>
<totfact> 0.10916099E+05</totfact>
</mgrwt>
</event>
<event>
 5   1  0.1388354E+00  0.8699873E+02  0.7818608E-02  0.1310287E+00
         -1   -1    0    0    0  501 -0.00000000000E+00  0.00000000000E+00  0.76800781862E+01  0.76800796060E+01  0.46700000000E-02 0.  1.
          1   -1    0    0  501    0  0.00000000000E+00 -0.00000000000E+00 -0.24637700980E+03  0.24637700984E+03  0.46700000000E-02 0. -1.
         23    2    1    2    0    0  0.00000000000E+00  0.00000000000E+00 -0.23869693161E+03  0.25405708945E+03  0.86998732967E+02 0.  0.
        -13    1    3    3    0    0 -0.29922622539E+02  0.20346515621E+02 -0.48847844530E+02  0.60790353883E+02  0.10570000000E+00 0.  1.
         13    1    3    3    0    0  0.29922622539E+02 -0.20346515621E+02 -0.18984908708E+03  0.19326673556E+03  0.10570000000E+00 0. -1.
<mgrwt>
<rscale>  0 0.86998733E+02</rscale>
<asrwt>0</asrwt>
<pdfrwt beam="2">  1        1 0.37904149E-01 0.86998733E+02</pdfrwt>
<pdfrwt beam="1">  1       -1 0.11815508E-02 0.86998733E+02</pdfrwt>
<totfact> 0.13973256E+05</totfact>
</mgrwt>
</event>
<event>
 5   1  0.1388354E+00  0.9016837E+02  0.7818608E-02  0.1302444E+00
         -1   -1    0    0    0  501 -0.00000000000E+00  0.00000000000E+00  0.14512512562E+03  0.14512512569E+03  0.46700000000E-02 0.  1.
          1   -1    0    0  501    0  0.00000000000E+00 -0.00000000000E+00 -0.14005731073E+02  0.14005731851E+02  0.46700000000E-02 0. -1.
         23    2    1    2    0    0  0.00000000000E+00  0.00000000000E+00  0.13111939454E+03  0.15913085754E+03  0.90168365831E+02 0.  0.
        -13    1    3    3    0    0 -0.25697818490E+02  0.31638065054E+02  0.99562927953E+02  0.10758314380E+03  0.10570000000E+00 0.  1.
         13    1    3    3    0    0  0.25697818490E+02 -0.31638065054E+02  0.31556466590E+02  0.51547713739E+02  0.10570000000E+00 0. -1.
<mgrwt>
<rscale>  0 0.90168366E+02</rscale>
<asrwt>0</asrwt>
<pdfrwt beam="2">  1        1 0.21547280E-02 0.90168366E+02</pdfrwt>
<pdfrwt beam="1">  1       -1 0.22326942E-01 0.90168366E+02</pdfrwt>
<totfact> 0.77567175E+04</totfact>
</mgrwt>
</event>
<event>
 5   1  0.1388354E+00  0.9962445E+02  0.7818608E-02  0.1281088E+00
          1   -1    0    0  501    0  0.00000000000E+00  0.00000000000E+00  0.32538420299E+03  0.32538420302E+03  0.46700000000E-02 0. -1.
         -1   -1    0    0    0  501 -0.00000000000E+00 -0.00000000000E+00 -0.76256238347E+01  0.76256252647E+01  0.46700000000E-02 0.  1.
         23    2    1    2    0    0  0.00000000000E+00  0.00000000000E+00  0.31775857915E+03  0.33300982828E+03  0.99624450360E+02 0.  0.
        -13    1    3    3    0    0 -0.60482621788E+01 -0.48820854997E+02  0.13273188017E+03  0.14155500890E+03  0.10570000000E+00 0. -1.
         13    1    3    3    0    0  0.60482621788E+01  0.48820854997E+02  0.18502669898E+03  0.19145481938E+03  0.10570000000E+00 0.  1.
<mgrwt>
<rscale>  0 0.99624450E+02</rscale>
<asrwt>0</asrwt>
<pdfrwt beam="1">  1        1 0.50059103E-01 0.99624450E+02</pdfrwt>
<pdfrwt beam="2">  1       -1 0.11731731E-02 0.99624450E+02</pdfrwt>
<totfact> 0.10264134E+05</totfact>
</mgrwt>
</event>
<event>
 5   1  0.1388354E+00  0.9081624E+02  0.7818608E-02  0.1300887E+00
          1   -1    0    0  501    0  0.00000000000E+00  0.00000000000E+00  0.52274885747E+02  0.52274885956E+02  0.46700000000E-02 0. -1.
         -1   -1    0    0    0  501 -0.00000000000E+00 -0.00000000000E+00 -0.39443364978E+02  0.39443365255E+02  0.46700000000E-02 0.  1.
         23    2    1    2    0    0  0.00000000000E+00  0.00000000000E+00  0.12831520769E+02  0.91718251211E+02  0.90816241278E+02 0.  0.
        -13    1    3    3    0    0  0.25834928478E+02 -0.23758832019E+02 -0.22679415384E+02  0.41788666921E+02  0.10570000000E+00 0.  1.
         13    1    3    3    0    0 -0.25834928478E+02  0.23758832019E+02  0.35510936153E+02  0.49929584290E+02  0.10570000000E+00 0. -1.
<mgrwt>
<rscale>  0 0.90816241E+02</rscale>
<asrwt>0</asrwt>
<pdfrwt beam="1">  1        1 0.80422901E-02 0.90816241E+02</pdfrwt>
<pdfrwt beam="2">  1       -1 0.60682100E-02 0.90816241E+02</pdfrwt>
<totfact> 0.95440892E+04</totfact>
</mgrwt>
</event>
<event>
 5   1  0.1388354E+00  0.9137066E+02  0.7818608E-02  0.1299566E+00
          1   -1    0    0  501    0  0.00000000000E+00  0.00000000000E+00  0.33769529952E+03  0.33769529955E+03  0.46700000000E-02 0. -1.
         -1   -1    0    0    0  501 -0.00000000000E+00 -0.00000000000E+00 -0.61805689058E+01  0.61805706701E+01  0.46700000000E-02 0.  1.
         23    2    1    2    0    0  0.00000000000E+00  0.00000000000E+00  0.33151473061E+03  0.34387587022E+03  0.91370659990E+02 0.  0.
        -13    1    3    3    0    0 -0.38203797902E+02  0.15535169352E+02  0.91790283148E+02  0.10062971188E+03  0.10570000000E+00 0.  1.
         13    1    3    3    0    0  0.38203797902E+02 -0.15535169352E+02  0.23972444746E+03  0.24324615834E+03  0.10570000000E+00 0. -1.
<mgrwt>
<rscale>  0 0.91370660E+02</rscale>
<asrwt>0</asrwt>
<pdfrwt beam="1">  1        1 0.51953134E-01 0.91370660E+02</pdfrwt>
<pdfrwt beam="2">  1       -1 0.95085670E-03 0.91370660E+02</pdfrwt>
<totfact> 0.13024616E+05</totfact>
</mgrwt>
</event>
<event>
 5   1  0.1388354E+00  0.9280639E+02  0.7818608E-02  0.1296194E+00
          1   -1    0    0  501    0  0.00000000000E+00  0.00000000000E+00  0.57657133743E+02  0.57657133932E+02  0.46700000000E-02 0. -1.
         -1   -1    0    0    0  501 -0.00000000000E+00 -0.00000000000E+00 -0.37345883145E+02  0.37345883437E+02  0.46700000000E-02 0.  1.
         23    2    1    2    0    0  0.00000000000E+00  0.00000000000E+00  0.20311250598E+02  0.95003017370E+02  0.92806392067E+02 0.  0.
        -13    1    3    3    0    0 -0.25968499243E+02 -0.38361730775E+02  0.73973953386E+01  0.46911810573E+02  0.10570000000E+00 0.  1.
         13    1    3    3    0    0  0.25968499243E+02  0.38361730775E+02  0.12913855259E+02  0.48091206796E+02  0.10570000000E+00 0. -1.
<mgrwt>
<rscale>  0 0.92806392E+02</rscale>
<asrwt>0</asrwt>
<pdfrwt beam="1">  1        1 0.88703283E-02 0.92806392E+02</pdfrwt>
<pdfrwt beam="2">  1       -1 0.57455205E-02 0.92806392E+02</pdfrwt>
<totfact> 0.91182523E+04</totfact>
</mgrwt>
</event>
<event>
 5   1  0.1388354E+00  0.9268224E+02  0.7818608E-02  0.1296483E+00
         -1   -1    0    0    0  501 -0.00000000000E+00  0.00000000000E+00  0.43302934230E+02  0.43302934482E+02  0.46700000000E-02 0.  1.
          1   -1    0    0  501    0  0.00000000000E+00 -0.00000000000E+00 -0.49592470974E+02  0.49592471194E+02  0.46700000000E-02 0. -1.
         23    2    1    2    0    0  0.00000000000E+00  0.00000000000E+00 -0.62895367443E+01  0.92895405676E+02  0.92682242761E+02 0.  0.
        -13    1    3    3    0    0  0.22522066440E+02  0.22794991678E+02  0.30408084349E+02  0.44175987692E+02  0.10570000000E+00 0.  1.
         13    1    3    3    0    0 -0.22522066440E+02 -0.22794991678E+02 -0.36697621093E+02  0.48719417984E+02  0.10570000000E+00 0. -1.
<mgrwt>
<rscale>  0 0.92682243E+02</rscale>
<asrwt>0</asrwt>
<pdfrwt beam="2">  1        1 0.76296110E-02 0.92682243E+02</pdfrwt>
<pdfrwt beam="1">  1       -1 0.66619899E-02 0.92682243E+02</pdfrwt>
<totfact> 0.89447898E+04</totfact>
</mgrwt>
</event>
<event>
 5   1  0.1388354E+00  0.9020929E+02  0.7818608E-02  0.1302346E+00
          1   -1    0    0  501    0  0.00000000000E+00  0.00000000000E+00  0.96758292229E+02  0.96758292342E+02  0.46700000000E-02 0. -1.
         -1   -1    0    0    0  501 -0.00000000000E+00 -0.00000000000E+00 -0.21025885468E+02  0.21025885987E+02  0.46700000000E-02 0.  1.
         23    2    1    2    0    0  0.00000000000E+00  0.00000000000E+00  0.75732406761E+02  0.11778417833E+03  0.90209285723E+02 0.  0.
        -13    1    3    3    0    0 -0.25554051176E+02  0.14653075580E+02 -0.67317028572E+01  0.30216703184E+02  0.10570000000E+00 0.  1.
         13    1    3    3    0    0  0.25554051176E+02 -0.14653075580E+02  0.82464109618E+02  0.87567475144E+02  0.10570000000E+00 0. -1.
<mgrwt>
<rscale>  0 0.90209286E+02</rscale>
<asrwt>0</asrwt>
<pdfrwt beam="1">  1        1 0.14885891E-01 0.90209286E+02</pdfrwt>
<pdfrwt beam="2">  1       -1 0.32347517E-02 0.90209286E+02</pdfrwt>
<totfact> 0.10694757E+05</totfact>
</mgrwt>
</event>
<event>
 5   1  0.1388354E+00  0.9095151E+02  0.7818608E-02  0.1300564E+00
          1   -1    0    0  501    0  0.00000000000E+00  0.00000000000E+00  0.22407850674E+02  0.22407851161E+02  0.46700000000E-02 0. -1.
         -1   -1    0    0    0  501 -0.00000000000E+00 -0.00000000000E+00 -0.92291057774E+02  0.92291057892E+02  0.46700000000E-02 0.  1.
         23    2    1    2    0    0  0.00000000000E+00  0.00000000000E+00 -0.69883207100E+02  0.11469890905E+03  0.90951509627E+02 0.  0.
        -13    1    3    3    0    0 -0.37479346081E+02  0.86032020860E+01 -0.65555860660E+02  0.76001963844E+02  0.10570000000E+00 0.  1.
         13    1    3    3    0    0  0.37479346081E+02 -0.86032020860E+01 -0.43273464399E+01  0.38696945209E+02  0.10570000000E+00 0. -1.
<mgrwt>
<rscale>  0 0.90951510E+02</rscale>
<asrwt>0</asrwt>
<pdfrwt beam="1">  1        1 0.34473617E-02 0.90951510E+02</pdfrwt>
<pdfrwt beam="2">  1       -1 0.14198624E-01 0.90951510E+02</pdfrwt>
<totfact> 0.83098032E+04</totfact>
</mgrwt>
</event>
<event>
 5   1  0.1388354E+00  0.9446298E+02  0.7818608E-02  0.1292390E+00
         -1   -1    0    0    0  501 -0.00000000000E+00  0.00000000000E+00  0.50722969881E+02  0.50722970096E+02  0.46700000000E-02 0.  1.
          1   -1    0    0  501    0  0.00000000000E+00 -0.00000000000E+00 -0.43980339853E+02  0.43980340101E+02  0.46700000000E-02 0. -1.
         23    2    1    2    0    0  0.00000000000E+00  0.00000000000E+00  0.67426300283E+01  0.94703310197E+02  0.94462976359E+02 0.  0.
        -13    1    3    3    0    0  0.30434647325E+02 -0.18120527306E+02  0.34694702081E+02  0.49581799006E+02  0.10570000000E+00 0.  1.
         13    1    3    3    0    0 -0.30434647325E+02  0.18120527306E+02 -0.27952072053E+02  0.45121511192E+02  0.10570000000E+00 0. -1.
<mgrwt>
<rscale>  0 0.94462976E+02</rscale>
<asrwt>0</asrwt>
<pdfrwt beam="2">  1        1 0.67662062E-02 0.94462976E+02</pdfrwt>
<pdfrwt beam="1">  1       -1 0.78035339E-02 0.94462976E+02</pdfrwt>
<totfact> 0.83226646E+04</totfact>
</mgrwt>
</event>
<event>
 5   1  0.1388354E+00  0.9394154E+02  0.7818608E-02  0.1293578E+00
          1   -1    0    0  501    0  0.00000000000E+00  0.00000000000E+00  0.14973014809E+02  0.14973015537E+02  0.46700000000E-02 0. -1.
         -1   -1    0    0    0  501 -0.00000000000E+00 -0.00000000000E+00 -0.14734863175E+03  0.14734863182E+03  0.46700000000E-02 0.  1.
         23    2    1    2    0    0  0.00000000000E+00  0.00000000000E+00 -0.13237561694E+03  0.16232164736E+03  0.93941541617E+02 0.  0.
        -13    1    3    3    0    0 -0.58746251388E+00  0.37804703854E+02 -0.11434329783E+03  0.12043231160E+03  0.10570000000E+00 0.  1.
         13    1    3    3    0    0  0.58746251388E+00 -0.37804703854E+02 -0.18032319111E+02  0.41889335763E+02  0.10570000000E+00 0. -1.
<mgrwt>
<rscale>  0 0.93941542E+02</rscale>
<asrwt>0</asrwt>
<pdfrwt beam="1">  1        1 0.23035409E-02 0.93941542E+02</pdfrwt>
<pdfrwt beam="2">  1       -1 0.22669019E-01 0.93941542E+02</pdfrwt>
<totfact> 0.69490073E+04</totfact>
</mgrwt>
</event>
<event>
 5   1  0.1388354E+00  0.7669452E+02  0.7818608E-02  0.1338703E+00
          1   -1    0    0  501    0  0.00000000000E+00  0.00000000000E+00  0.50401758523E+02  0.50401758739E+02  0.46700000000E-02 0. -1.
         -1   -1    0    0    0  501 -0.00000000000E+00 -0.00000000000E+00 -0.29175811220E+02  0.29175811594E+02  0.46700000000E-02 0.  1.
         23    2    1    2    0    0  0.00000000000E+00  0.00000000000E+00  0.21225947303E+02  0.79577570333E+02  0.76694516500E+02 0.  0.
        -13    1    3    3    0    0 -0.27222167071E+02  0.17242895732E+02  0.32182330363E+02  0.45542039846E+02  0.10570000000E+00 0. -1.
         13    1    3    3    0    0  0.27222167071E+02 -0.17242895732E+02 -0.10956383060E+02  0.34035530487E+02  0.10570000000E+00 0.  1.
<mgrwt>
<rscale>  0 0.76694517E+02</rscale>
<asrwt>0</asrwt>
<pdfrwt beam="1">  1        1 0.77541166E-02 0.76694517E+02</pdfrwt>
<pdfrwt beam="2">  1       -1 0.44885864E-02 0.76694517E+02</pdfrwt>
<totfact> 0.15120237E+05</totfact>
</mgrwt>
</event>
<event>
 5   1  0.1388354E+00  0.9117634E+02  0.7818608E-02  0.1300028E+00
          1   -1    0    0  501    0  0.00000000000E+00  0.00000000000E+00  0.13327466114E+03  0.13327466122E+03  0.46700000000E-02 0. -1.
         -1   -1    0    0    0  501 -0.00000000000E+00 -0.00000000000E+00 -0.15593969626E+02  0.15593970326E+02  0.46700000000E-02 0.  1.
         23    2    1    2    0    0  0.00000000000E+00  0.00000000000E+00  0.11768069151E+03  0.14886863154E+03  0.91176336313E+02 0.  0.
        -13    1    3    3    0    0 -0.10811953412E+02 -0.38892248081E+02  0.93428736568E+02  0.10177644760E+03  0.10570000000E+00 0.  1.
         13    1    3    3    0    0  0.10811953412E+02  0.38892248081E+02  0.24251954942E+02  0.47092183942E+02  0.10570000000E+00 0. -1.
<mgrwt>
<rscale>  0 0.91176336E+02</rscale>
<asrwt>0</asrwt>
<pdfrwt beam="1">  1        1 0.20503794E-01 0.91176336E+02</pdfrwt>
<pdfrwt beam="2">  1       -1 0.23990724E-02 0.91176336E+02</pdfrwt>
<totfact> 0.10975481E+05</totfact>
</mgrwt>
</event>
<event>
 5   1  0.1388354E+00  0.9144581E+02  0.7818608E-02  0.1299388E+00
         -1   -1    0    0    0  501 -0.00000000000E+00  0.00000000000E+00  0.25139741291E+02  0.25139741725E+02  0.46700000000E-02 0.  1.
          1   -1    0    0  501    0  0.00000000000E+00 -0.00000000000E+00 -0.83158531182E+02  0.83158531313E+02  0.46700000000E-02 0. -1.
         23    2    1    2    0    0  0.00000000000E+00  0.00000000000E+00 -0.58018789891E+02  0.10829827304E+03  0.91445808885E+02 0.  0.
        -13    1    3    3    0    0 -0.42706960951E+02  0.85737142503E+01 -0.12549066338E+02  0.45330820952E+02  0.10570000000E+00 0. -1.
         13    1    3    3    0    0  0.42706960951E+02 -0.85737142503E+01 -0.45469723553E+02  0.62967452086E+02  0.10570000000E+00 0.  1.
<mgrwt>
<rscale>  0 0.91445809E+02</rscale>
<asrwt>0</asrwt>
<pdfrwt beam="2">  1        1 0.12793620E-01 0.91445809E+02</pdfrwt>
<pdfrwt beam="1">  1       -1 0.38676526E-02 0.91445809E+02</pdfrwt>
<totfact> 0.10054809E+05</totfact>
</mgrwt>
</event>
<event>
 5   1  0.1388354E+00  0.9113992E+02  0.7818608E-02  0.1300114E+00
         -1   -1    0    0    0  501 -0.00000000000E+00  0.00000000000E+00  0.39743038963E+02  0.39743039237E+02  0.46700000000E-02 0.  1.
          1   -1    0    0  501    0  0.00000000000E+00 -0.00000000000E+00 -0.52251193802E+02  0.52251194010E+02  0.46700000000E-02 0. -1.
         23    2    1    2    0    0  0.00000000000E+00  0.00000000000E+00 -0.12508154839E+02  0.91994233247E+02  0.91139919976E+02 0.  0.
        -13    1    3    3    0    0  0.33494323236E+02  0.45509869172E+01  0.24594285417E+02  0.41802765682E+02  0.10570000000E+00 0.  1.
         13    1    3    3    0    0 -0.33494323236E+02 -0.45509869172E+01 -0.37102440256E+02  0.50191467566E+02  0.10570000000E+00 0. -1.
<mgrwt>
<rscale>  0 0.91139920E+02</rscale>
<asrwt>0</asrwt>
<pdfrwt beam="2">  1        1 0.80386453E-02 0.91139920E+02</pdfrwt>
<pdfrwt beam="1">  1       -1 0.61143137E-02 0.91139920E+02</pdfrwt>
<totfact> 0.94492620E+04</totfact>
</mgrwt>
</event>
<event>
 5   1  0.1388354E+00  0.9173132E+02  0.7818608E-02  0.1298712E+00
         -1   -1    0    0    0  501 -0.00000000000E+00  0.00000000000E+00  0.14133999063E+03  0.14133999070E+03  0.46700000000E-02 0.  1.
          1   -1    0    0  501    0  0.00000000000E+00 -0.00000000000E+00 -0.14883676242E+02  0.14883676974E+02  0.46700000000E-02 0. -1.
         23    2    1    2    0    0  0.00000000000E+00  0.00000000000E+00  0.12645631439E+03  0.15622366768E+03  0.91731319052E+02 0.  0.
        -13    1    3    3    0    0  0.15208504678E+02  0.18052837931E+02  0.13020062268E+03  0.13232315327E+03  0.10570000000E+00 0.  1.
         13    1    3    3    0    0 -0.15208504678E+02 -0.18052837931E+02 -0.37443082961E+01  0.23900514409E+02  0.10570000000E+00 0. -1.
<mgrwt>
<rscale>  0 0.91731319E+02</rscale>
<asrwt>0</asrwt>
<pdfrwt beam="2">  1        1 0.22897963E-02 0.91731319E+02</pdfrwt>
<pdfrwt beam="1">  1       -1 0.21744615E-01 0.91731319E+02</pdfrwt>
<totfact> 0.74633587E+04</totfact>
</mgrwt>
</event>
<event>
 5   1  0.1388354E+00  0.9329641E+02  0.7818608E-02  0.1295060E+00
         -1   -1    0    0    0  501 -0.00000000000E+00  0.00000000000E+00  0.15863061634E+02  0.15863062322E+02  0.46700000000E-02 0.  1.
          1   -1    0    0  501    0  0.00000000000E+00 -0.00000000000E+00 -0.13717749164E+03  0.13717749172E+03  0.46700000000E-02 0. -1.
         23    2    1    2    0    0  0.00000000000E+00  0.00000000000E+00 -0.12131443000E+03  0.15304055404E+03  0.93296410722E+02 0.  0.
        -13    1    3    3    0    0 -0.42646035718E+01 -0.44737919822E+02 -0.40144362548E+02  0.60259848411E+02  0.10570000000E+00 0.  1.
         13    1    3    3    0    0  0.42646035718E+01  0.44737919822E+02 -0.81170067457E+02  0.92780705630E+02  0.10570000000E+00 0. -1.
<mgrwt>
<rscale>  0 0.93296411E+02</rscale>
<asrwt>0</asrwt>
<pdfrwt beam="2">  1        1 0.21104229E-01 0.93296411E+02</pdfrwt>
<pdfrwt beam="1">  1       -1 0.24404712E-02 0.93296411E+02</pdfrwt>
<totfact> 0.10366411E+05</totfact>
</mgrwt>
</event>
<event>
 5   1  0.1388354E+00  0.9236549E+02  0.7818608E-02  0.1297222E+00
         -1   -1    0    0    0  501 -0.00000000000E+00  0.00000000000E+00  0.10300981053E+03  0.10300981063E+03  0.46700000000E-02 0.  1.
          1   -1    0    0  501    0  0.00000000000E+00 -0.00000000000E+00 -0.20705268889E+02  0.20705269416E+02  0.46700000000E-02 0. -1.
         23    2    1    2    0    0  0.00000000000E+00  0.00000000000E+00  0.82304541637E+02  0.12371508005E+03  0.92365488453E+02 0.  0.
        -13    1    3    3    0    0 -0.15229305670E+02 -0.39873455616E+02  0.64773387205E+02  0.77572076654E+02  0.10570000000E+00 0.  1.
         13    1    3    3    0    0  0.15229305670E+02  0.39873455616E+02  0.17531154432E+02  0.46143003394E+02  0.10570000000E+00 0. -1.
<mgrwt>
<rscale>  0 0.92365488E+02</rscale>
<asrwt>0</asrwt>
<pdfrwt beam="2">  1        1 0.31854260E-02 0.92365488E+02</pdfrwt>
<pdfrwt beam="1">  1       -1 0.15847664E-01 0.92365488E+02</pdfrwt>
<totfact> 0.78260340E+04</totfact>
</mgrwt>
</event>
<event>
 5   1  0.1388354E+00  0.8388339E+02  0.7818608E-02  0.1318379E+00
         -1   -1    0    0    0  501 -0.00000000000E+00  0.00000000000E+00  0.25888122957E+03  0.25888122961E+03  0.46700000000E-02 0.  1.
          1   -1    0    0  501    0  0.00000000000E+00 -0.00000000000E+00 -0.67950288442E+01  0.67950304490E+01  0.46700000000E-02 0. -1.
         23    2    1    2    0    0  0.00000000000E+00  0.00000000000E+00  0.25208620072E+03  0.26567626006E+03  0.83883386696E+02 0.  0.
        -13    1    3    3    0    0 -0.41226013391E+02 -0.45129842245E+01  0.10622758835E+03  0.11403623505E+03  0.10570000000E+00 0. -1.
         13    1    3    3    0    0  0.41226013391E+02  0.45129842245E+01  0.14585861238E+03  0.15164002501E+03  0.10570000000E+00 0.  1.
<mgrwt>
<rscale>  0 0.83883387E+02</rscale>
<asrwt>0</asrwt>
<pdfrwt beam="2">  1        1 0.10453893E-02 0.83883387E+02</pdfrwt>
<pdfrwt beam="1">  1       -1 0.39827878E-01 0.83883387E+02</pdfrwt>
<totfact> 0.79504972E+04</totfact>
</mgrwt>
</event>
<event>
 5   1  0.1388354E+00  0.9075238E+02  0.7818608E-02  0.1301040E+00
          1   -1    0    0  501    0  0.00000000000E+00  0.00000000000E+00  0.83077625736E+02  0.83077625868E+02  0.46700000000E-02 0. -1.
         -1   -1    0    0    0  501 -0.00000000000E+00 -0.00000000000E+00 -0.24784030861E+02  0.24784031301E+02  0.46700000000E-02 0.  1.
         23    2    1    2    0    0  0.00000000000E+00  0.00000000000E+00  0.58293594876E+02  0.10786165717E+03  0.90752376738E+02 0.  0.
        -13    1    3    3    0    0 -0.27898062588E+02 -0.17757047404E+02  0.66074864896E+02  0.73888521248E+02  0.10570000000E+00 0. -1.
         13    1    3    3    0    0  0.27898062588E+02  0.17757047404E+02 -0.77812700202E+01  0.33973135921E+02  0.10570000000E+00 0.  1.
<mgrwt>
<rscale>  0 0.90752377E+02</rscale>
<asrwt>0</asrwt>
<pdfrwt beam="1">  1        1 0.12781173E-01 0.90752377E+02</pdfrwt>
<pdfrwt beam="2">  1       -1 0.38129279E-02 0.90752377E+02</pdfrwt>
<totfact> 0.10265252E+05</totfact>
</mgrwt>
</event>
<event>
 5   1  0.1388354E+00  0.9073477E+02  0.7818608E-02  0.1301082E+00
         -1   -1    0    0    0  501 -0.00000000000E+00  0.00000000000E+00  0.42724974834E+02  0.42724975089E+02  0.46700000000E-02 0.  1.
          1   -1    0    0  501    0  0.00000000000E+00 -0.00000000000E+00 -0.48173217016E+02  0.48173217242E+02  0.46700000000E-02 0. -1.
         23    2    1    2    0    0  0.00000000000E+00  0.00000000000E+00 -0.54482421818E+01  0.90898192332E+02  0.90734767462E+02 0.  0.
        -13    1    3    3    0    0  0.96615884095E+01 -0.23198225566E+02 -0.40563627995E+02  0.47717114840E+02  0.10570000000E+00 0. -1.
         13    1    3    3    0    0 -0.96615884095E+01  0.23198225566E+02  0.35115385813E+02  0.43181077492E+02  0.10570000000E+00 0.  1.
<mgrwt>
<rscale>  0 0.90734767E+02</rscale>
<asrwt>0</asrwt>
<pdfrwt beam="2">  1        1 0.74112642E-02 0.90734767E+02</pdfrwt>
<pdfrwt beam="1">  1       -1 0.65730731E-02 0.90734767E+02</pdfrwt>
<totfact> 0.94518106E+04</totfact>
</mgrwt>
</event>
<event>
 5   1  0.1388354E+00  0.9309193E+02  0.7818608E-02  0.1295532E+00
         -1   -1    0    0    0  501 -0.00000000000E+00  0.00000000000E+00  0.44528583377E+02  0.44528583622E+02  0.46700000000E-02 0.  1.
          1   -1    0    0  501    0  0.00000000000E+00 -0.00000000000E+00 -0.48654743089E+02  0.48654743313E+02  0.46700000000E-02 0. -1.
         23    2    1    2    0    0  0.00000000000E+00  0.00000000000E+00 -0.41261597116E+01  0.93183326935E+02  0.93091928891E+02 0.  0.
        -13    1    3    3    0    0 -0.27794796710E+02  0.23395945750E+02 -0.31187946007E+02  0.47881313164E+02  0.10570000000E+00 0. -1.
         13    1    3    3    0    0  0.27794796710E+02 -0.23395945750E+02  0.27061786296E+02  0.45302013771E+02  0.10570000000E+00 0.  1.
<mgrwt>
<rscale>  0 0.93091929E+02</rscale>
<asrwt>0</asrwt>
<pdfrwt beam="2">  1        1 0.74853451E-02 0.93091929E+02</pdfrwt>
<pdfrwt beam="1">  1       -1 0.68505513E-02 0.93091929E+02</pdfrwt>
<totfact> 0.88090112E+04</totfact>
</mgrwt>
</event>
<event>
 5   1  0.1388354E+00  0.9208227E+02  0.7818608E-02  0.1297886E+00
          1   -1    0    0  501    0  0.00000000000E+00  0.00000000000E+00  0.42337283939E+02  0.42337284197E+02  0.46700000000E-02 0. -1.
         -1   -1    0    0    0  501 -0.00000000000E+00 -0.00000000000E+00 -0.50069012425E+02  0.50069012643E+02  0.46700000000E-02 0.  1.
         23    2    1    2    0    0  0.00000000000E+00  0.00000000000E+00 -0.77317284858E+01  0.92406296839E+02  0.92082267946E+02 0.  0.
        -13    1    3    3    0    0  0.28652522666E+02  0.19869738813E+02 -0.34038279713E+02  0.48727704994E+02  0.10570000000E+00 0.  1.
         13    1    3    3    0    0 -0.28652522666E+02 -0.19869738813E+02  0.26306551227E+02  0.43678591846E+02  0.10570000000E+00 0. -1.
<mgrwt>
<rscale>  0 0.92082268E+02</rscale>
<asrwt>0</asrwt>
<pdfrwt beam="1">  1        1 0.65134284E-02 0.92082268E+02</pdfrwt>
<pdfrwt beam="2">  1       -1 0.77029250E-02 0.92082268E+02</pdfrwt>
<totfact> 0.88932332E+04</totfact>
</mgrwt>
</event>
<event>
 5   1  0.1388354E+00  0.9243663E+02  0.7818608E-02  0.1297056E+00
          1   -1    0    0  501    0  0.00000000000E+00  0.00000000000E+00  0.12484706856E+02  0.12484707729E+02  0.46700000000E-02 0. -1.
         -1   -1    0    0    0  501 -0.00000000000E+00 -0.00000000000E+00 -0.17109994621E+03  0.17109994627E+03  0.46700000000E-02 0.  1.
         23    2    1    2    0    0  0.00000000000E+00  0.00000000000E+00 -0.15861523935E+03  0.18358465400E+03  0.92436632511E+02 0.  0.
        -13    1    3    3    0    0  0.36501242029E+02 -0.13566875368E+02 -0.29866272153E+02  0.49075514890E+02  0.10570000000E+00 0. -1.
         13    1    3    3    0    0 -0.36501242029E+02  0.13566875368E+02 -0.12874896720E+03  0.13450913911E+03  0.10570000000E+00 0.  1.
<mgrwt>
<rscale>  0 0.92436633E+02</rscale>
<asrwt>0</asrwt>
<pdfrwt beam="1">  1        1 0.19207243E-02 0.92436633E+02</pdfrwt>
<pdfrwt beam="2">  1       -1 0.26323067E-01 0.92436633E+02</pdfrwt>
<totfact> 0.69877558E+04</totfact>
</mgrwt>
</event>
<event>
 5   1  0.1388354E+00  0.9283873E+02  0.7818608E-02  0.1296119E+00
          1   -1    0    0  501    0  0.00000000000E+00  0.00000000000E+00  0.41101601502E+02  0.41101601767E+02  0.46700000000E-02 0. -1.
         -1   -1    0    0    0  501 -0.00000000000E+00 -0.00000000000E+00 -0.52425139872E+02  0.52425140080E+02  0.46700000000E-02 0.  1.
         23    2    1    2    0    0  0.00000000000E+00  0.00000000000E+00 -0.11323538370E+02  0.93526741847E+02  0.92838725322E+02 0.  0.
        -13    1    3    3    0    0 -0.78295254584E+00  0.17040606515E+02  0.37829347070E+02  0.41497782559E+02  0.10570000000E+00 0. -1.
         13    1    3    3    0    0  0.78295254584E+00 -0.17040606515E+02 -0.49152885440E+02  0.52028959288E+02  0.10570000000E+00 0.  1.
<mgrwt>
<rscale>  0 0.92838725E+02</rscale>
<asrwt>0</asrwt>
<pdfrwt beam="1">  1        1 0.63233234E-02 0.92838725E+02</pdfrwt>
<pdfrwt beam="2">  1       -1 0.80654062E-02 0.92838725E+02</pdfrwt>
<totfact> 0.86504637E+04</totfact>
</mgrwt>
</event>
<event>
 5   1  0.1388354E+00  0.8730741E+02  0.7818608E-02  0.1309506E+00
         -1   -1    0    0    0  501 -0.00000000000E+00  0.00000000000E+00  0.10255877520E+02  0.10255878583E+02  0.46700000000E-02 0.  1.
          1   -1    0    0  501    0  0.00000000000E+00 -0.00000000000E+00 -0.18581014186E+03  0.18581014192E+03  0.46700000000E-02 0. -1.
         23    2    1    2    0    0  0.00000000000E+00  0.00000000000E+00 -0.17555426434E+03  0.19606602050E+03  0.87307414731E+02 0.  0.
        -13    1    3    3    0    0 -0.10016491941E+02  0.30502432339E+02 -0.15420220335E+03  0.15750891778E+03  0.10570000000E+00 0. -1.
         13    1    3    3    0    0  0.10016491941E+02 -0.30502432339E+02 -0.21352060992E+02  0.38557102724E+02  0.10570000000E+00 0.  1.
<mgrwt>
<rscale>  0 0.87307415E+02</rscale>
<asrwt>0</asrwt>
<pdfrwt beam="2">  1        1 0.28586173E-01 0.87307415E+02</pdfrwt>
<pdfrwt beam="1">  1       -1 0.15778275E-02 0.87307415E+02</pdfrwt>
<totfact> 0.13110623E+05</totfact>
</mgrwt>
</event>
<event>
 5   1  0.1388354E+00  0.9457026E+02  0.7818608E-02  0.1292147E+00
         -1   -1    0    0    0  501 -0.00000000000E+00  0.00000000000E+00  0.27474299426E+03  0.27474299430E+03  0.46700000000E-02 0.  1.
          1   -1    0    0  501    0  0.00000000000E+00 -0.00000000000E+00 -0.81380896967E+01  0.81380910366E+01  0.46700000000E-02 0. -1.
         23    2    1    2    0    0  0.00000000000E+00  0.00000000000E+00  0.26660490456E+03  0.28288108533E+03  0.94570255914E+02 0.  0.
        -13    1    3    3    0    0  0.29057173009E+01 -0.43331212514E+02  0.77354916456E+02  0.88712070449E+02  0.10570000000E+00 0. -1.
         13    1    3    3    0    0 -0.29057173009E+01  0.43331212514E+02  0.18924998810E+03  0.19416901488E+03  0.10570000000E+00 0.  1.
<mgrwt>
<rscale>  0 0.94570256E+02</rscale>
<asrwt>0</asrwt>
<pdfrwt beam="2">  1        1 0.12520140E-02 0.94570256E+02</pdfrwt>
<pdfrwt beam="1">  1       -1 0.42268149E-01 0.94570256E+02</pdfrwt>
<totfact> 0.56929084E+04</totfact>
</mgrwt>
</event>
<event>
 5   1  0.1388354E+00  0.9053396E+02  0.7818608E-02  0.1301564E+00
         -1   -1    0    0    0  501 -0.00000000000E+00  0.00000000000E+00  0.16443146689E+02  0.16443147352E+02  0.46700000000E-02 0.  1.
          1   -1    0    0  501    0  0.00000000000E+00 -0.00000000000E+00 -0.12461722991E+03  0.12461723000E+03  0.46700000000E-02 0. -1.
         23    2    1    2    0    0  0.00000000000E+00  0.00000000000E+00 -0.10817408322E+03  0.14106037735E+03  0.90533959249E+02 0.  0.
        -13    1    3    3    0    0 -0.37602375035E+02  0.14125947557E+02 -0.21567749208E+02  0.45592323707E+02  0.10570000000E+00 0.  1.
         13    1    3    3    0    0  0.37602375035E+02 -0.14125947557E+02 -0.86606334012E+02  0.95468053642E+02  0.10570000000E+00 0. -1.
<mgrwt>
<rscale>  0 0.90533959E+02</rscale>
<asrwt>0</asrwt>
<pdfrwt beam="2">  1        1 0.19171881E-01 0.90533959E+02</pdfrwt>
<pdfrwt beam="1">  1       -1 0.25297150E-02 0.90533959E+02</pdfrwt>
<totfact> 0.11055004E+05</totfact>
</mgrwt>
</event>
<event>
 5   1  0.1388354E+00  0.9032990E+02  0.7818608E-02  0.1302055E+00
          1   -1    0    0  501    0  0.00000000000E+00  0.00000000000E+00  0.96394346884E+01  0.96394358196E+01  0.46700000000E-02 0. -1.
         -1   -1    0    0    0  501 -0.00000000000E+00 -0.00000000000E+00 -0.21161742577E+03  0.21161742582E+03  0.46700000000E-02 0.  1.
         23    2    1    2    0    0  0.00000000000E+00  0.00000000000E+00 -0.20197799108E+03  0.22125686164E+03  0.90329895061E+02 0.  0.
        -13    1    3    3    0    0 -0.16827320566E+02  0.36613247556E+02 -0.51019837051E+02  0.65013256796E+02  0.10570000000E+00 0. -1.
         13    1    3    3    0    0  0.16827320566E+02 -0.36613247556E+02 -0.15095815403E+03  0.15624360484E+03  0.10570000000E+00 0.  1.
<mgrwt>
<rscale>  0 0.90329895E+02</rscale>
<asrwt>0</asrwt>
<pdfrwt beam="1">  1        1 0.14829902E-02 0.90329895E+02</pdfrwt>
<pdfrwt beam="2">  1       -1 0.32556524E-01 0.90329895E+02</pdfrwt>
<totfact> 0.69969604E+04</totfact>
</mgrwt>
</event>
<event>
 5   1  0.1388354E+00  0.8897831E+02  0.7818608E-02  0.1305345E+00
         -1   -1    0    0    0  501 -0.00000000000E+00  0.00000000000E+00  0.35118448243E+03  0.35118448246E+03  0.46700000000E-02 0.  1.
          1   -1    0    0  501    0  0.00000000000E+00 -0.00000000000E+00 -0.56360248467E+01  0.56360267815E+01  0.46700000000E-02 0. -1.
         23    2    1    2    0    0  0.00000000000E+00  0.00000000000E+00  0.34554845758E+03  0.35682050924E+03  0.88978307906E+02 0.  0.
        -13    1    3    3    0    0 -0.35899658781E+01  0.42729660104E+02  0.12522981068E+03  0.13236777691E+03  0.10570000000E+00 0. -1.
         13    1    3    3    0    0  0.35899658781E+01 -0.42729660104E+02  0.22031864690E+03  0.22445273233E+03  0.10570000000E+00 0.  1.
<mgrwt>
<rscale>  0 0.88978308E+02</rscale>
<asrwt>0</asrwt>
<pdfrwt beam="2">  1        1 0.86708093E-03 0.88978308E+02</pdfrwt>
<pdfrwt beam="1">  1       -1 0.54028380E-01 0.88978308E+02</pdfrwt>
<totfact> 0.60437046E+04</totfact>
</mgrwt>
</event>
<event>
 5   1  0.1388354E+00  0.1129686E+03  0.7818608E-02  0.1255169E+00
         -1   -1    0    0    0  501 -0.00000000000E+00  0.00000000000E+00  0.49091105801E+02  0.49091106023E+02  0.46700000000E-02 0.  1.
          1   -1    0    0  501    0  0.00000000000E+00 -0.00000000000E+00 -0.64990879562E+02  0.64990879730E+02  0.46700000000E-02 0. -1.
         23    2    1    2    0    0  0.00000000000E+00  0.00000000000E+00 -0.15899773761E+02  0.11408198575E+03  0.11296856495E+03 0.  0.
        -13    1    3    3    0    0 -0.16145072771E+02 -0.47515250294E+02  0.18230532829E+02  0.53392189364E+02  0.10570000000E+00 0.  1.
         13    1    3    3    0    0  0.16145072771E+02  0.47515250294E+02 -0.34130306590E+02  0.60689796389E+02  0.10570000000E+00 0. -1.
<mgrwt>
<rscale>  0 0.11296856E+03</rscale>
<asrwt>0</asrwt>
<pdfrwt beam="2">  1        1 0.99985968E-02 0.11296856E+03</pdfrwt>
<pdfrwt beam="1">  1       -1 0.75524779E-02 0.11296856E+03</pdfrwt>
<totfact> 0.53392141E+04</totfact>
</mgrwt>
</event>
<event>
 5   1  0.1388354E+00  0.7467565E+02  0.7818608E-02  0.1344878E+00
          1   -1    0    0  501    0  0.00000000000E+00  0.00000000000E+00  0.29596729121E+02  0.29596729489E+02  0.46700000000E-02 0. -1.
         -1   -1    0    0    0  501 -0.00000000000E+00 -0.00000000000E+00 -0.47103627079E+02  0.47103627311E+02  0.46700000000E-02 0.  1.
         23    2    1    2    0    0  0.00000000000E+00  0.00000000000E+00 -0.17506897959E+02  0.76700356800E+02  0.74675653710E+02 0.  0.
        -13    1    3    3    0    0  0.24047896787E+02  0.10531433238E+02 -0.36023059698E+02  0.44574481808E+02  0.10570000000E+00 0.  1.
         13    1    3    3    0    0 -0.24047896787E+02 -0.10531433238E+02  0.18516161739E+02  0.32125874992E+02  0.10570000000E+00 0. -1.
<mgrwt>
<rscale>  0 0.74675654E+02</rscale>
<asrwt>0</asrwt>
<pdfrwt beam="1">  1        1 0.45533430E-02 0.74675654E+02</pdfrwt>
<pdfrwt beam="2">  1       -1 0.72467119E-02 0.74675654E+02</pdfrwt>
<totfact> 0.15185046E+05</totfact>
</mgrwt>
</event>
<event>
 5   1  0.1388354E+00  0.9368653E+02  0.7818608E-02  0.1294162E+00
         -1   -1    0    0    0  501 -0.00000000000E+00  0.00000000000E+00  0.20212404073E+02  0.20212404613E+02  0.46700000000E-02 0.  1.
          1   -1    0    0  501    0  0.00000000000E+00 -0.00000000000E+00 -0.10856162391E+03  0.10856162401E+03  0.46700000000E-02 0. -1.
         23    2    1    2    0    0  0.00000000000E+00  0.00000000000E+00 -0.88349219834E+02  0.12877402862E+03  0.93686529457E+02 0.  0.
        -13    1    3    3    0    0  0.81298987702E+01  0.34464121685E+02 -0.20234433664E+01  0.35467963475E+02  0.10570000000E+00 0.  1.
         13    1    3    3    0    0 -0.81298987702E+01 -0.34464121685E+02 -0.86325776468E+02  0.93306065145E+02  0.10570000000E+00 0. -1.
<mgrwt>
<rscale>  0 0.93686529E+02</rscale>
<asrwt>0</asrwt>
<pdfrwt beam="2">  1        1 0.16701788E-01 0.93686529E+02</pdfrwt>
<pdfrwt beam="1">  1       -1 0.31096007E-02 0.93686529E+02</pdfrwt>
<totfact> 0.98344596E+04</totfact>
</mgrwt>
</event>
<event>
 5   1  0.1388354E+00  0.8858449E+02  0.7818608E-02  0.1306316E+00
          1   -1    0    0  501    0  0.00000000000E+00  0.00000000000E+00  0.28165553044E+02  0.28165553431E+02  0.46700000000E-02 0. -1.
         -1   -1    0    0    0  501 -0.00000000000E+00 -0.00000000000E+00 -0.69652559165E+02  0.69652559322E+02  0.46700000000E-02 0.  1.
         23    2    1    2    0    0  0.00000000000E+00  0.00000000000E+00 -0.41487006121E+02  0.97818112753E+02  0.88584487952E+02 0.  0.
        -13    1    3    3    0    0 -0.12811544958E+02  0.32701459614E+02 -0.50542934439E+02  0.61547709456E+02  0.10570000000E+00 0.  1.
         13    1    3    3    0    0  0.12811544958E+02 -0.32701459614E+02  0.90559283182E+01  0.36270403297E+02  0.10570000000E+00 0. -1.
<mgrwt>
<rscale>  0 0.88584488E+02</rscale>
<asrwt>0</asrwt>
<pdfrwt beam="1">  1        1 0.43331621E-02 0.88584488E+02</pdfrwt>
<pdfrwt beam="2">  1       -1 0.10715778E-01 0.88584488E+02</pdfrwt>
<totfact> 0.93208693E+04</totfact>
</mgrwt>
</event>
<event>
 5   1  0.1388354E+00  0.9321714E+02  0.7818608E-02  0.1295243E+00
         -1   -1    0    0    0  501 -0.00000000000E+00  0.00000000000E+00  0.27116693658E+02  0.27116694060E+02  0.46700000000E-02 0.  1.
          1   -1    0    0  501    0  0.00000000000E+00 -0.00000000000E+00 -0.80111499891E+02  0.80111500027E+02  0.46700000000E-02 0. -1.
         23    2    1    2    0    0  0.00000000000E+00  0.00000000000E+00 -0.52994806233E+02  0.10722819409E+03  0.93217144987E+02 0.  0.
        -13    1    3    3    0    0  0.15888598567E+02 -0.40641124862E+02 -0.45335715070E+02  0.62924453338E+02  0.10570000000E+00 0.  1.
         13    1    3    3    0    0 -0.15888598567E+02  0.40641124862E+02 -0.76590911631E+01  0.44303740750E+02  0.10570000000E+00 0. -1.
<mgrwt>
<rscale>  0 0.93217145E+02</rscale>
<asrwt>0</asrwt>
<pdfrwt beam="2">  1        1 0.12324846E-01 0.93217145E+02</pdfrwt>
<pdfrwt beam="1">  1       -1 0.41717991E-02 0.93217145E+02</pdfrwt>
<totfact> 0.94813718E+04</totfact>
</mgrwt>
</event>
<event>
 5   1  0.1388354E+00  0.8124979E+02  0.7818608E-02  0.1325542E+00
          1   -1    0    0  501    0  0.00000000000E+00  0.00000000000E+00  0.30703492521E+03  0.30703492525E+03  0.46700000000E-02 0. -1.
         -1   -1    0    0    0  501 -0.00000000000E+00 -0.00000000000E+00 -0.53752251634E+01  0.53752271920E+01  0.46700000000E-02 0.  1.
         23    2    1    2    0    0  0.00000000000E+00  0.00000000000E+00  0.30165970005E+03  0.31241015244E+03  0.81249792085E+02 0.  0.
        -13    1    3    3    0    0 -0.33486983995E+02 -0.20506164413E+02  0.11078026734E+03  0.11753365339E+03  0.10570000000E+00 0.  1.
         13    1    3    3    0    0  0.33486983995E+02  0.20506164413E+02  0.19087943271E+03  0.19487649905E+03  0.10570000000E+00 0. -1.
<mgrwt>
<rscale>  0 0.81249792E+02</rscale>
<asrwt>0</asrwt>
<pdfrwt beam="1">  1        1 0.47236165E-01 0.81249792E+02</pdfrwt>
<pdfrwt beam="2">  1       -1 0.82695749E-03 0.81249792E+02</pdfrwt>
<totfact> 0.17459977E+05</totfact>
</mgrwt>
</event>
<event>
 5   1  0.1388354E+00  0.9152980E+02  0.7818608E-02  0.1299189E+00
         -1   -1    0    0    0  501 -0.00000000000E+00  0.00000000000E+00  0.75510617071E+02  0.75510617215E+02  0.46700000000E-02 0.  1.
          1   -1    0    0  501    0  0.00000000000E+00 -0.00000000000E+00 -0.27736842601E+02  0.27736842994E+02  0.46700000000E-02 0. -1.
         23    2    1    2    0    0  0.00000000000E+00  0.00000000000E+00  0.47773774470E+02  0.10324746021E+03  0.91529801226E+02 0.  0.
        -13    1    3    3    0    0 -0.46220258413E+01  0.15968560525E+02  0.71984175843E+02  0.73878892739E+02  0.10570000000E+00 0.  1.
         13    1    3    3    0    0  0.46220258413E+01 -0.15968560525E+02 -0.24210401372E+02  0.29368567470E+02  0.10570000000E+00 0. -1.
<mgrwt>
<rscale>  0 0.91529801E+02</rscale>
<asrwt>0</asrwt>
<pdfrwt beam="2">  1        1 0.42672067E-02 0.91529801E+02</pdfrwt>
<pdfrwt beam="1">  1       -1 0.11617018E-01 0.91529801E+02</pdfrwt>
<totfact> 0.84632115E+04</totfact>
</mgrwt>
</event>
<event>
 5   1  0.1388354E+00  0.9161338E+02  0.7818608E-02  0.1298991E+00
          1   -1    0    0  501    0  0.00000000000E+00  0.00000000000E+00  0.14213761005E+03  0.14213761013E+03  0.46700000000E-02 0. -1.
         -1   -1    0    0    0  501 -0.00000000000E+00 -0.00000000000E+00 -0.14762123263E+02  0.14762124002E+02  0.46700000000E-02 0.  1.
         23    2    1    2    0    0  0.00000000000E+00  0.00000000000E+00  0.12737548679E+03  0.15689973413E+03  0.91613382949E+02 0.  0.
        -13    1    3    3    0    0  0.35799583952E+02  0.90125360916E+01  0.11013144336E+03  0.11615413039E+03  0.10570000000E+00 0. -1.
         13    1    3    3    0    0 -0.35799583952E+02 -0.90125360916E+01  0.17244043432E+02  0.40745603742E+02  0.10570000000E+00 0.  1.
<mgrwt>
<rscale>  0 0.91613383E+02</rscale>
<asrwt>0</asrwt>
<pdfrwt beam="1">  1        1 0.21867325E-01 0.91613383E+02</pdfrwt>
<pdfrwt beam="2">  1       -1 0.22710959E-02 0.91613383E+02</pdfrwt>
<totfact> 0.10960977E+05</totfact>
</mgrwt>
</event>
<event>
 5   1  0.1388354E+00  0.8929492E+02  0.7818608E-02  0.1304568E+00
          1   -1    0    0  501    0  0.00000000000E+00  0.00000000000E+00  0.53721553466E+02  0.53721553669E+02  0.46700000000E-02 0. -1.
         -1   -1    0    0    0  501 -0.00000000000E+00 -0.00000000000E+00 -0.37106066804E+02  0.37106067098E+02  0.46700000000E-02 0.  1.
         23    2    1    2    0    0  0.00000000000E+00  0.00000000000E+00  0.16615486663E+02  0.90827620767E+02  0.89294917532E+02 0.  0.
        -13    1    3    3    0    0 -0.33290359174E+02 -0.23252256613E+02  0.27186189169E+02  0.48867325541E+02  0.10570000000E+00 0. -1.
         13    1    3    3    0    0  0.33290359174E+02  0.23252256613E+02 -0.10570702506E+02  0.41960295226E+02  0.10570000000E+00 0.  1.
<mgrwt>
<rscale>  0 0.89294918E+02</rscale>
<asrwt>0</asrwt>
<pdfrwt beam="1">  1        1 0.82648544E-02 0.89294918E+02</pdfrwt>
<pdfrwt beam="2">  1       -1 0.57086257E-02 0.89294918E+02</pdfrwt>
<totfact> 0.10043629E+05</totfact>
</mgrwt>
</event>
<event>
 5   1  0.1388354E+00  0.8979471E+02  0.7818608E-02  0.1303350E+00
          1   -1    0    0  501    0  0.00000000000E+00  0.00000000000E+00  0.21027888379E+02  0.21027888898E+02  0.46700000000E-02 0. -1.
         -1   -1    0    0    0  501 -0.00000000000E+00 -0.00000000000E+00 -0.95861852322E+02  0.95861852436E+02  0.46700000000E-02 0.  1.
         23    2    1    2    0    0  0.00000000000E+00  0.00000000000E+00 -0.74833963943E+02  0.11688974133E+03  0.89794707359E+02 0.  0.
        -13    1    3    3    0    0 -0.22057833900E+02 -0.32779157705E+02 -0.96577640226E+01  0.40673145866E+02  0.10570000000E+00 0. -1.
         13    1    3    3    0    0  0.22057833900E+02  0.32779157705E+02 -0.65176199920E+02  0.76216595468E+02  0.10570000000E+00 0.  1.
<mgrwt>
<rscale>  0 0.89794707E+02</rscale>
<asrwt>0</asrwt>
<pdfrwt beam="1">  1        1 0.32350599E-02 0.89794707E+02</pdfrwt>
<pdfrwt beam="2">  1       -1 0.14747977E-01 0.89794707E+02</pdfrwt>
<totfact> 0.85289311E+04</totfact>
</mgrwt>
</event>
<event>
 5   1  0.1388354E+00  0.9150972E+02  0.7818608E-02  0.1299236E+00
          1   -1    0    0  501    0  0.00000000000E+00  0.00000000000E+00  0.56826259141E+02  0.56826259333E+02  0.46700000000E-02 0. -1.
         -1   -1    0    0    0  501 -0.00000000000E+00 -0.00000000000E+00 -0.36840492664E+02  0.36840492959E+02  0.46700000000E-02 0.  1.
         23    2    1    2    0    0  0.00000000000E+00  0.00000000000E+00  0.19985766478E+02  0.93666752293E+02  0.91509724201E+02 0.  0.
        -13    1    3    3    0    0 -0.32898256531E+02 -0.54808495321E+01 -0.22068954158E+02  0.39992310567E+02  0.10570000000E+00 0.  1.
         13    1    3    3    0    0  0.32898256531E+02  0.54808495321E+01  0.42054720635E+02  0.53674441726E+02  0.10570000000E+00 0. -1.
<mgrwt>
<rscale>  0 0.91509724E+02</rscale>
<asrwt>0</asrwt>
<pdfrwt beam="1">  1        1 0.87425014E-02 0.91509724E+02</pdfrwt>
<pdfrwt beam="2">  1       -1 0.56677682E-02 0.91509724E+02</pdfrwt>
<totfact> 0.94619146E+04</totfact>
</mgrwt>
</event>
<event>
 5   1  0.1388354E+00  0.9304180E+02  0.7818608E-02  0.1295648E+00
          1   -1    0    0  501    0  0.00000000000E+00  0.00000000000E+00  0.28464667660E+03  0.28464667664E+03  0.46700000000E-02 0. -1.
         -1   -1    0    0    0  501 -0.00000000000E+00 -0.00000000000E+00 -0.76030889100E+01  0.76030903442E+01  0.46700000000E-02 0.  1.
         23    2    1    2    0    0  0.00000000000E+00  0.00000000000E+00  0.27704358769E+03  0.29224976698E+03  0.93041801472E+02 0.  0.
        -13    1    3    3    0    0  0.36877444651E+02 -0.21562679630E+02  0.80664211162E+02  0.91277714759E+02  0.10570000000E+00 0.  1.
         13    1    3    3    0    0 -0.36877444651E+02  0.21562679630E+02  0.19637937653E+03  0.20097205222E+03  0.10570000000E+00 0. -1.
<mgrwt>
<rscale>  0 0.93041801E+02</rscale>
<asrwt>0</asrwt>
<pdfrwt beam="1">  1        1 0.43791799E-01 0.93041801E+02</pdfrwt>
<pdfrwt beam="2">  1       -1 0.11697060E-02 0.93041801E+02</pdfrwt>
<totfact> 0.12015919E+05</totfact>
</mgrwt>
</event>
<event>
 5   1  0.1388354E+00  0.9039706E+02  0.7818608E-02  0.1301893E+00
          1   -1    0    0  501    0  0.00000000000E+00  0.00000000000E+00  0.18382713231E+02  0.18382713824E+02  0.46700000000E-02 0. -1.
         -1   -1    0    0    0  501 -0.00000000000E+00 -0.00000000000E+00 -0.11113196216E+03  0.11113196226E+03  0.46700000000E-02 0.  1.
         23    2    1    2    0    0  0.00000000000E+00  0.00000000000E+00 -0.92749248929E+02  0.12951467608E+03  0.90397058269E+02 0.  0.
        -13    1    3    3    0    0  0.37938076378E+02 -0.23503024351E+02 -0.56627021369E+02  0.72099379432E+02  0.10570000000E+00 0. -1.
         13    1    3    3    0    0 -0.37938076378E+02  0.23503024351E+02 -0.36122227561E+02  0.57415296650E+02  0.10570000000E+00 0.  1.
<mgrwt>
<rscale>  0 0.90397058E+02</rscale>
<asrwt>0</asrwt>
<pdfrwt beam="1">  1        1 0.28281098E-02 0.90397058E+02</pdfrwt>
<pdfrwt beam="2">  1       -1 0.17097225E-01 0.90397058E+02</pdfrwt>
<totfact> 0.81533661E+04</totfact>
</mgrwt>
</event>
<event>
 5   1  0.1388354E+00  0.8851530E+02  0.7818608E-02  0.1306487E+00
         -1   -1    0    0    0  501 -0.00000000000E+00  0.00000000000E+00  0.26177613572E+03  0.26177613576E+03  0.46700000000E-02 0.  1.
          1   -1    0    0  501    0  0.00000000000E+00 -0.00000000000E+00 -0.74824985418E+01  0.74824999991E+01  0.46700000000E-02 0. -1.
         23    2    1    2    0    0  0.00000000000E+00  0.00000000000E+00  0.25429363717E+03  0.26925863576E+03  0.88515303887E+02 0.  0.
        -13    1    3    3    0    0  0.44002145803E+02  0.30204634889E+00  0.14155951017E+03  0.14824097328E+03  0.10570000000E+00 0. -1.
         13    1    3    3    0    0 -0.44002145803E+02 -0.30204634889E+00  0.11273412701E+03  0.12101766248E+03  0.10570000000E+00 0.  1.
<mgrwt>
<rscale>  0 0.88515304E+02</rscale>
<asrwt>0</asrwt>
<pdfrwt beam="2">  1        1 0.11511538E-02 0.88515304E+02</pdfrwt>
<pdfrwt beam="1">  1       -1 0.40273248E-01 0.88515304E+02</pdfrwt>
<totfact> 0.68863436E+04</totfact>
</mgrwt>
</event>
<event>
 5   1  0.1388354E+00  0.9122678E+02  0.7818608E-02  0.1299908E+00
          1   -1    0    0  501    0  0.00000000000E+00  0.00000000000E+00  0.20358766664E+02  0.20358767200E+02  0.46700000000E-02 0. -1.
         -1   -1    0    0    0  501 -0.00000000000E+00 -0.00000000000E+00 -0.10219583273E+03  0.10219583283E+03  0.46700000000E-02 0.  1.
         23    2    1    2    0    0  0.00000000000E+00  0.00000000000E+00 -0.81837066062E+02  0.12255460003E+03  0.91226775716E+02 0.  0.
        -13    1    3    3    0    0 -0.21454398528E+02 -0.32898414911E+02 -0.97592428868E+01  0.40470370817E+02  0.10570000000E+00 0. -1.
         13    1    3    3    0    0  0.21454398528E+02  0.32898414911E+02 -0.72077823175E+02  0.82084229216E+02  0.10570000000E+00 0.  1.
<mgrwt>
<rscale>  0 0.91226776E+02</rscale>
<asrwt>0</asrwt>
<pdfrwt beam="1">  1        1 0.31321181E-02 0.91226776E+02</pdfrwt>
<pdfrwt beam="2">  1       -1 0.15722436E-01 0.91226776E+02</pdfrwt>
<totfact> 0.80926487E+04</totfact>
</mgrwt>
</event>
<event>
 5   1  0.1388354E+00  0.8345068E+02  0.7818608E-02  0.1319535E+00
          1   -1    0    0  501    0  0.00000000000E+00  0.00000000000E+00  0.34974466463E+02  0.34974466774E+02  0.46700000000E-02 0. -1.
         -1   -1    0    0    0  501 -0.00000000000E+00 -0.00000000000E+00 -0.49779282635E+02  0.49779282854E+02  0.46700000000E-02 0.  1.
         23    2    1    2    0    0  0.00000000000E+00  0.00000000000E+00 -0.14804816172E+02  0.84753749628E+02  0.83450677014E+02 0.  0.
        -13    1    3    3    0    0 -0.36631168190E+02 -0.14960014977E+02  0.60462723957E+01  0.40027654359E+02  0.10570000000E+00 0. -1.
         13    1    3    3    0    0  0.36631168190E+02  0.14960014977E+02 -0.20851088568E+02  0.44726095269E+02  0.10570000000E+00 0.  1.
<mgrwt>
<rscale>  0 0.83450677E+02</rscale>
<asrwt>0</asrwt>
<pdfrwt beam="1">  1        1 0.53806872E-02 0.83450677E+02</pdfrwt>
<pdfrwt beam="2">  1       -1 0.76583512E-02 0.83450677E+02</pdfrwt>
<totfact> 0.11401078E+05</totfact>
</mgrwt>
</event>
<event>
 5   1  0.1388354E+00  0.9003954E+02  0.7818608E-02  0.1302756E+00
         -1   -1    0    0    0  501 -0.00000000000E+00  0.00000000000E+00  0.49820058160E+01  0.49820080048E+01  0.46700000000E-02 0.  1.
          1   -1    0    0  501    0  0.00000000000E+00 -0.00000000000E+00 -0.40681993362E+03  0.40681993365E+03  0.46700000000E-02 0. -1.
         23    2    1    2    0    0  0.00000000000E+00  0.00000000000E+00 -0.40183792780E+03  0.41180194165E+03  0.90039540904E+02 0.  0.
        -13    1    3    3    0    0  0.27348091741E+02  0.35625381885E+02 -0.18668744758E+03  0.19201380214E+03  0.10570000000E+00 0.  1.
         13    1    3    3    0    0 -0.27348091741E+02 -0.35625381885E+02 -0.21515048022E+03  0.21978813951E+03  0.10570000000E+00 0. -1.
<mgrwt>
<rscale>  0 0.90039541E+02</rscale>
<asrwt>0</asrwt>
<pdfrwt beam="2">  1        1 0.62587656E-01 0.90039541E+02</pdfrwt>
<pdfrwt beam="1">  1       -1 0.76646292E-03 0.90039541E+02</pdfrwt>
<totfact> 0.13984127E+05</totfact>
</mgrwt>
</event>
<event>
 5   1  0.1388354E+00  0.9196686E+02  0.7818608E-02  0.1298157E+00
          1   -1    0    0  501    0  0.00000000000E+00  0.00000000000E+00  0.12084482927E+03  0.12084482936E+03  0.46700000000E-02 0. -1.
         -1   -1    0    0    0  501 -0.00000000000E+00 -0.00000000000E+00 -0.17497446504E+02  0.17497447128E+02  0.46700000000E-02 0.  1.
         23    2    1    2    0    0  0.00000000000E+00  0.00000000000E+00  0.10334738276E+03  0.13834227648E+03  0.91966863266E+02 0.  0.
        -13    1    3    3    0    0 -0.85188516203E+00  0.34010150905E+02  0.51375284294E+01  0.34406706378E+02  0.10570000000E+00 0.  1.
         13    1    3    3    0    0  0.85188516203E+00 -0.34010150905E+02  0.98209854332E+02  0.10393557011E+03  0.10570000000E+00 0. -1.
<mgrwt>
<rscale>  0 0.91966863E+02</rscale>
<asrwt>0</asrwt>
<pdfrwt beam="1">  1        1 0.18591513E-01 0.91966863E+02</pdfrwt>
<pdfrwt beam="2">  1       -1 0.26919148E-02 0.91966863E+02</pdfrwt>
<totfact> 0.10537247E+05</totfact>
</mgrwt>
</event>
<event>
 5   1  0.1388354E+00  0.9161379E+02  0.7818608E-02  0.1298990E+00
          1   -1    0    0  501    0  0.00000000000E+00  0.00000000000E+00  0.35981397271E+03  0.35981397274E+03  0.46700000000E-02 0. -1.
         -1   -1    0    0    0  501 -0.00000000000E+00 -0.00000000000E+00 -0.58315444074E+01  0.58315462773E+01  0.46700000000E-02 0.  1.
         23    2    1    2    0    0  0.00000000000E+00  0.00000000000E+00  0.35398242830E+03  0.36564551902E+03  0.91613787339E+02 0.  0.
        -13    1    3    3    0    0  0.24326974273E+02  0.35258832086E+02  0.11223179811E+03  0.12012899149E+03  0.10570000000E+00 0.  1.
         13    1    3    3    0    0 -0.24326974273E+02 -0.35258832086E+02  0.24175063019E+03  0.24551652752E+03  0.10570000000E+00 0. -1.
<mgrwt>
<rscale>  0 0.91613787E+02</rscale>
<asrwt>0</asrwt>
<pdfrwt beam="1">  1        1 0.55356016E-01 0.91613787E+02</pdfrwt>
<pdfrwt beam="2">  1       -1 0.89716049E-03 0.91613787E+02</pdfrwt>
<totfact> 0.13080550E+05</totfact>
</mgrwt>
</event>
<event>
 5   1  0.1388354E+00  0.9316375E+02  0.7818608E-02  0.1295366E+00
          1   -1    0    0  501    0  0.00000000000E+00  0.00000000000E+00  0.39824992812E+02  0.39824993086E+02  0.46700000000E-02 0. -1.
         -1   -1    0    0    0  501 -0.00000000000E+00 -0.00000000000E+00 -0.54485161411E+02  0.54485161611E+02  0.46700000000E-02 0.  1.
         23    2    1    2    0    0  0.00000000000E+00  0.00000000000E+00 -0.14660168599E+02  0.94310154697E+02  0.93163752263E+02 0.  0.
        -13    1    3    3    0    0 -0.12494429961E+01  0.25233116978E+02  0.32287004937E+02  0.40996745730E+02  0.10570000000E+00 0. -1.
         13    1    3    3    0    0  0.12494429961E+01 -0.25233116978E+02 -0.46947173535E+02  0.53313408967E+02  0.10570000000E+00 0.  1.
<mgrwt>
<rscale>  0 0.93163752E+02</rscale>
<asrwt>0</asrwt>
<pdfrwt beam="1">  1        1 0.61269220E-02 0.93163752E+02</pdfrwt>
<pdfrwt beam="2">  1       -1 0.83823326E-02 0.93163752E+02</pdfrwt>
<totfact> 0.85234870E+04</totfact>
</mgrwt>
</event>
<event>
 5   1  0.1388354E+00  0.9259691E+02  0.7818608E-02  0.1296682E+00
         -1   -1    0    0    0  501 -0.00000000000E+00  0.00000000000E+00  0.23111767018E+02  0.23111767490E+02  0.46700000000E-02 0.  1.
          1   -1    0    0  501    0  0.00000000000E+00 -0.00000000000E+00 -0.92746986486E+02  0.92746986604E+02  0.46700000000E-02 0. -1.
         23    2    1    2    0    0  0.00000000000E+00  0.00000000000E+00 -0.69635219469E+02  0.11585875409E+03  0.92596906588E+02 0.  0.
        -13    1    3    3    0    0 -0.39724237808E+02 -0.23772266632E+02 -0.35608824397E+02  0.58404925115E+02  0.10570000000E+00 0.  1.
         13    1    3    3    0    0  0.39724237808E+02  0.23772266632E+02 -0.34026395071E+02  0.57453828978E+02  0.10570000000E+00 0. -1.
<mgrwt>
<rscale>  0 0.92596907E+02</rscale>
<asrwt>0</asrwt>
<pdfrwt beam="2">  1        1 0.14268767E-01 0.92596907E+02</pdfrwt>
<pdfrwt beam="1">  1       -1 0.35556565E-02 0.92596907E+02</pdfrwt>
<totfact> 0.98890451E+04</totfact>
</mgrwt>
</event>
<event>
 5   1  0.1388354E+00  0.8951652E+02  0.7818608E-02  0.1304027E+00
          1   -1    0    0  501    0  0.00000000000E+00  0.00000000000E+00  0.56147214163E+01  0.56147233584E+01  0.46700000000E-02 0. -1.
         -1   -1    0    0    0  501 -0.00000000000E+00 -0.00000000000E+00 -0.35679443735E+03  0.35679443738E+03  0.46700000000E-02 0.  1.
         23    2    1    2    0    0  0.00000000000E+00  0.00000000000E+00 -0.35117971593E+03  0.36240916074E+03  0.89516517493E+02 0.  0.
        -13    1    3    3    0    0  0.27236171749E+02  0.33806813582E+02 -0.21967612043E+03  0.22392480603E+03  0.10570000000E+00 0. -1.
         13    1    3    3    0    0 -0.27236171749E+02 -0.33806813582E+02 -0.13150359550E+03  0.13848435470E+03  0.10570000000E+00 0.  1.
<mgrwt>
<rscale>  0 0.89516517E+02</rscale>
<asrwt>0</asrwt>
<pdfrwt beam="1">  1        1 0.86380373E-03 0.89516517E+02</pdfrwt>
<pdfrwt beam="2">  1       -1 0.54891434E-01 0.89516517E+02</pdfrwt>
<totfact> 0.59067586E+04</totfact>
</mgrwt>
</event>
<event>
 5   1  0.1388354E+00  0.8711556E+02  0.7818608E-02  0.1309991E+00
         -1   -1    0    0    0  501 -0.00000000000E+00  0.00000000000E+00  0.18459703490E+02  0.18459704081E+02  0.46700000000E-02 0.  1.
          1   -1    0    0  501    0  0.00000000000E+00 -0.00000000000E+00 -0.10277955895E+03  0.10277955906E+03  0.46700000000E-02 0. -1.
         23    2    1    2    0    0  0.00000000000E+00  0.00000000000E+00 -0.84319855464E+02  0.12123926314E+03  0.87115560616E+02 0.  0.
        -13    1    3    3    0    0 -0.31055176166E+02  0.27185460299E+02 -0.22785906498E+02  0.47145327720E+02  0.10570000000E+00 0. -1.
         13    1    3    3    0    0  0.31055176166E+02 -0.27185460299E+02 -0.61533948966E+02  0.74093935422E+02  0.10570000000E+00 0.  1.
<mgrwt>
<rscale>  0 0.87115561E+02</rscale>
<asrwt>0</asrwt>
<pdfrwt beam="2">  1        1 0.15812239E-01 0.87115561E+02</pdfrwt>
<pdfrwt beam="1">  1       -1 0.28399545E-02 0.87115561E+02</pdfrwt>
<totfact> 0.11874163E+05</totfact>
</mgrwt>
</event>
<event>
 5   1  0.1388354E+00  0.9232910E+02  0.7818608E-02  0.1297307E+00
         -1   -1    0    0    0  501 -0.00000000000E+00  0.00000000000E+00  0.19519288411E+02  0.19519288970E+02  0.46700000000E-02 0.  1.
          1   -1    0    0  501    0  0.00000000000E+00 -0.00000000000E+00 -0.10918255447E+03  0.10918255457E+03  0.46700000000E-02 0. -1.
         23    2    1    2    0    0  0.00000000000E+00  0.00000000000E+00 -0.89663266060E+02  0.12870184354E+03  0.92329102943E+02 0.  0.
        -13    1    3    3    0    0  0.20660871242E+02 -0.23159811634E+00  0.12713709385E+02  0.24260560937E+02  0.10570000000E+00 0.  1.
         13    1    3    3    0    0 -0.20660871242E+02  0.23159811634E+00 -0.10237697545E+03  0.10444128260E+03  0.10570000000E+00 0. -1.
<mgrwt>
<rscale>  0 0.92329103E+02</rscale>
<asrwt>0</asrwt>
<pdfrwt beam="2">  1        1 0.16797316E-01 0.92329103E+02</pdfrwt>
<pdfrwt beam="1">  1       -1 0.30029676E-02 0.92329103E+02</pdfrwt>
<totfact> 0.10244026E+05</totfact>
</mgrwt>
</event>
<event>
 5   1  0.1388354E+00  0.9063832E+02  0.7818608E-02  0.1301313E+00
         -1   -1    0    0    0  501 -0.00000000000E+00  0.00000000000E+00  0.33666501018E+02  0.33666501342E+02  0.46700000000E-02 0.  1.
          1   -1    0    0  501    0  0.00000000000E+00 -0.00000000000E+00 -0.61005043563E+02  0.61005043742E+02  0.46700000000E-02 0. -1.
         23    2    1    2    0    0  0.00000000000E+00  0.00000000000E+00 -0.27338542545E+02  0.94671545083E+02  0.90638322690E+02 0.  0.
        -13    1    3    3    0    0 -0.25543323781E+02 -0.29857229622E+02 -0.37255036270E+02  0.54146693809E+02  0.10570000000E+00 0. -1.
         13    1    3    3    0    0  0.25543323781E+02  0.29857229622E+02  0.99164937253E+01  0.40524851274E+02  0.10570000000E+00 0.  1.
<mgrwt>
<rscale>  0 0.90638323E+02</rscale>
<asrwt>0</asrwt>
<pdfrwt beam="2">  1        1 0.93853914E-02 0.90638323E+02</pdfrwt>
<pdfrwt beam="1">  1       -1 0.51794617E-02 0.90638323E+02</pdfrwt>
<totfact> 0.98212156E+04</totfact>
</mgrwt>
</event>
<event>
 5   1  0.1388354E+00  0.7539174E+02  0.7818608E-02  0.1342662E+00
          1   -1    0    0  501    0  0.00000000000E+00  0.00000000000E+00  0.43824367570E+02  0.43824367819E+02  0.46700000000E-02 0. -1.
         -1   -1    0    0    0  501 -0.00000000000E+00 -0.00000000000E+00 -0.32424395255E+02  0.32424395591E+02  0.46700000000E-02 0.  1.
         23    2    1    2    0    0  0.00000000000E+00  0.00000000000E+00  0.11399972315E+02  0.76248763410E+02  0.75391740614E+02 0.  0.
        -13    1    3    3    0    0  0.26029780604E+02  0.51945930785E+01  0.32770542806E+02  0.42171707623E+02  0.10570000000E+00 0. -1.
         13    1    3    3    0    0 -0.26029780604E+02 -0.51945930785E+01 -0.21370570491E+02  0.34077055787E+02  0.10570000000E+00 0.  1.
<mgrwt>
<rscale>  0 0.75391741E+02</rscale>
<asrwt>0</asrwt>
<pdfrwt beam="1">  1        1 0.67422104E-02 0.75391741E+02</pdfrwt>
<pdfrwt beam="2">  1       -1 0.49883686E-02 0.75391741E+02</pdfrwt>
<totfact> 0.15558448E+05</totfact>
</mgrwt>
</event>
<event>
 5   1  0.1388354E+00  0.9209263E+02  0.7818608E-02  0.1297862E+00
         -1   -1    0    0    0  501 -0.00000000000E+00  0.00000000000E+00  0.31409907370E+02  0.31409907717E+02  0.46700000000E-02 0.  1.
          1   -1    0    0  501    0  0.00000000000E+00 -0.00000000000E+00 -0.67503006285E+02  0.67503006447E+02  0.46700000000E-02 0. -1.
         23    2    1    2    0    0  0.00000000000E+00  0.00000000000E+00 -0.36093098916E+02  0.98912914163E+02  0.92092631621E+02 0.  0.
        -13    1    3    3    0    0 -0.55574838262E+01 -0.40201024794E+02  0.53187135983E+01  0.40930525379E+02  0.10570000000E+00 0.  1.
         13    1    3    3    0    0  0.55574838262E+01  0.40201024794E+02 -0.41411812514E+02  0.57982388784E+02  0.10570000000E+00 0. -1.
<mgrwt>
<rscale>  0 0.92092632E+02</rscale>
<asrwt>0</asrwt>
<pdfrwt beam="2">  1        1 0.10385078E-01 0.92092632E+02</pdfrwt>
<pdfrwt beam="1">  1       -1 0.48322935E-02 0.92092632E+02</pdfrwt>
<totfact> 0.95441541E+04</totfact>
</mgrwt>
</event>
<event>
 5   1  0.1388354E+00  0.9116785E+02  0.7818608E-02  0.1300048E+00
         -1   -1    0    0    0  501 -0.00000000000E+00  0.00000000000E+00  0.69240935392E+02  0.69240935549E+02  0.46700000000E-02 0.  1.
          1   -1    0    0  501    0  0.00000000000E+00 -0.00000000000E+00 -0.30009622175E+02  0.30009622539E+02  0.46700000000E-02 0. -1.
         23    2    1    2    0    0  0.00000000000E+00  0.00000000000E+00  0.39231313216E+02  0.99250558088E+02  0.91167852580E+02 0.  0.
        -13    1    3    3    0    0 -0.70256710721E+00  0.16261501883E+02  0.65969368720E+02  0.67947765422E+02  0.10570000000E+00 0.  1.
         13    1    3    3    0    0  0.70256710721E+00 -0.16261501883E+02 -0.26738055504E+02  0.31302792666E+02  0.10570000000E+00 0. -1.
<mgrwt>
<rscale>  0 0.91167853E+02</rscale>
<asrwt>0</asrwt>
<pdfrwt beam="2">  1        1 0.46168650E-02 0.91167853E+02</pdfrwt>
<pdfrwt beam="1">  1       -1 0.10652452E-01 0.91167853E+02</pdfrwt>
<totfact> 0.86713614E+04</totfact>
</mgrwt>
</event>
<event>
 5   1  0.1388354E+00  0.6473197E+02  0.7818608E-02  0.1378983E+00
          1   -1    0    0  501    0  0.00000000000E+00  0.00000000000E+00  0.60923828493E+02  0.60923828672E+02  0.46700000000E-02 0.  1.
         -1   -1    0    0    0  501 -0.00000000000E+00 -0.00000000000E+00 -0.17194535591E+02  0.17194536225E+02  0.46700000000E-02 0. -1.
         23    2    1    2    0    0  0.00000000000E+00  0.00000000000E+00  0.43729292902E+02  0.78118364897E+02  0.64731969509E+02 0.  0.
        -13    1    3    3    0    0  0.22500673277E+02  0.22114387234E+02  0.13143970227E+02  0.34177500588E+02  0.10570000000E+00 0.  1.
         13    1    3    3    0    0 -0.22500673277E+02 -0.22114387234E+02  0.30585322675E+02  0.43940864309E+02  0.10570000000E+00 0. -1.
<mgrwt>
<rscale>  0 0.64731970E+02</rscale>
<asrwt>0</asrwt>
<pdfrwt beam="1">  1        1 0.93728968E-02 0.64731970E+02</pdfrwt>
<pdfrwt beam="2">  1       -1 0.26453132E-02 0.64731970E+02</pdfrwt>
<totfact> 0.24377815E+05</totfact>
</mgrwt>
</event>
<event>
 5   1  0.1388354E+00  0.9147353E+02  0.7818608E-02  0.1299322E+00
          1   -1    0    0  501    0  0.00000000000E+00  0.00000000000E+00  0.15337842716E+03  0.15337842723E+03  0.46700000000E-02 0. -1.
         -1   -1    0    0    0  501 -0.00000000000E+00 -0.00000000000E+00 -0.13638500573E+02  0.13638501373E+02  0.46700000000E-02 0.  1.
         23    2    1    2    0    0  0.00000000000E+00  0.00000000000E+00  0.13973992659E+03  0.16701692860E+03  0.91473533646E+02 0.  0.
        -13    1    3    3    0    0 -0.64650110951E+01 -0.28346997584E+02  0.13433285582E+03  0.13744335548E+03  0.10570000000E+00 0. -1.
         13    1    3    3    0    0  0.64650110951E+01  0.28346997584E+02  0.54070707657E+01  0.29573573122E+02  0.10570000000E+00 0.  1.
<mgrwt>
<rscale>  0 0.91473534E+02</rscale>
<asrwt>0</asrwt>
<pdfrwt beam="1">  1        1 0.23596681E-01 0.91473534E+02</pdfrwt>
<pdfrwt beam="2">  1       -1 0.20982309E-02 0.91473534E+02</pdfrwt>
<totfact> 0.11161083E+05</totfact>
</mgrwt>
</event>
<event>
 5   1  0.1388354E+00  0.9233285E+02  0.7818608E-02  0.1297299E+00
          1   -1    0    0  501    0  0.00000000000E+00  0.00000000000E+00  0.25888158372E+03  0.25888158376E+03  0.46700000000E-02 0. -1.
         -1   -1    0    0    0  501 -0.00000000000E+00 -0.00000000000E+00 -0.82328713900E+01  0.82328727145E+01  0.46700000000E-02 0.  1.
         23    2    1    2    0    0  0.00000000000E+00  0.00000000000E+00  0.25064871233E+03  0.26711445648E+03  0.92332853667E+02 0.  0.
        -13    1    3    3    0    0 -0.35514858414E+02  0.42110421967E+00  0.21064657576E+03  0.21361992779E+03  0.10570000000E+00 0. -1.
         13    1    3    3    0    0  0.35514858414E+02 -0.42110421967E+00  0.40002136576E+02  0.53494528693E+02  0.10570000000E+00 0.  1.
<mgrwt>
<rscale>  0 0.92332854E+02</rscale>
<asrwt>0</asrwt>
<pdfrwt beam="1">  1        1 0.39827932E-01 0.92332854E+02</pdfrwt>
<pdfrwt beam="2">  1       -1 0.12665958E-02 0.92332854E+02</pdfrwt>
<totfact> 0.12039004E+05</totfact>
</mgrwt>
</event>
<event>
 5   1  0.1388354E+00  0.9264397E+02  0.7818608E-02  0.1296572E+00
          1   -1    0    0  501    0  0.00000000000E+00  0.00000000000E+00  0.91378983178E+01  0.91378995111E+01  0.46700000000E-02 0. -1.
         -1   -1    0    0    0  501 -0.00000000000E+00 -0.00000000000E+00 -0.23481617476E+03  0.23481617480E+03  0.46700000000E-02 0.  1.
         23    2    1    2    0    0  0.00000000000E+00  0.00000000000E+00 -0.22567827644E+03  0.24395407432E+03  0.92643973998E+02 0.  0.
        -13    1    3    3    0    0 -0.93942057619E+01 -0.38253279831E+02 -0.17702497955E+03  0.18135440187E+03  0.10570000000E+00 0.  1.
         13    1    3    3    0    0  0.93942057619E+01  0.38253279831E+02 -0.48653296887E+02  0.62599672444E+02  0.10570000000E+00 0. -1.
<mgrwt>
<rscale>  0 0.92643974E+02</rscale>
<asrwt>0</asrwt>
<pdfrwt beam="1">  1        1 0.14058308E-02 0.92643974E+02</pdfrwt>
<pdfrwt beam="2">  1       -1 0.36125561E-01 0.92643974E+02</pdfrwt>
<totfact> 0.63419622E+04</totfact>
</mgrwt>
</event>
<event>
 5   1  0.1388354E+00  0.9174526E+02  0.7818608E-02  0.1298680E+00
         -1   -1    0    0    0  501 -0.00000000000E+00  0.00000000000E+00  0.13655379736E+02  0.13655380534E+02  0.46700000000E-02 0.  1.
          1   -1    0    0  501    0  0.00000000000E+00 -0.00000000000E+00 -0.15410028632E+03  0.15410028639E+03  0.46700000000E-02 0. -1.
         23    2    1    2    0    0  0.00000000000E+00  0.00000000000E+00 -0.14044490658E+03  0.16775566692E+03  0.91745256008E+02 0.  0.
        -13    1    3    3    0    0 -0.20809958122E+02  0.34546532530E+02 -0.30255336332E+02  0.50417395966E+02  0.10570000000E+00 0.  1.
         13    1    3    3    0    0  0.20809958122E+02 -0.34546532530E+02 -0.11018957025E+03  0.11733827096E+03  0.10570000000E+00 0. -1.
<mgrwt>
<rscale>  0 0.91745256E+02</rscale>
<asrwt>0</asrwt>
<pdfrwt beam="2">  1        1 0.23707735E-01 0.91745256E+02</pdfrwt>
<pdfrwt beam="1">  1       -1 0.21008278E-02 0.91745256E+02</pdfrwt>
<totfact> 0.11081680E+05</totfact>
</mgrwt>
</event>
<event>
 5   1  0.1388354E+00  0.9238977E+02  0.7818608E-02  0.1297166E+00
         -1   -1    0    0    0  501 -0.00000000000E+00  0.00000000000E+00  0.10773216809E+02  0.10773217821E+02  0.46700000000E-02 0.  1.
          1   -1    0    0  501    0  0.00000000000E+00 -0.00000000000E+00 -0.19808077624E+03  0.19808077629E+03  0.46700000000E-02 0. -1.
         23    2    1    2    0    0  0.00000000000E+00  0.00000000000E+00 -0.18730755943E+03  0.20885399411E+03  0.92389766954E+02 0.  0.
        -13    1    3    3    0    0  0.45010095952E+02 -0.79235529760E+01 -0.10886270523E+03  0.11806689287E+03  0.10570000000E+00 0.  1.
         13    1    3    3    0    0 -0.45010095952E+02  0.79235529760E+01 -0.78444854193E+02  0.90787101239E+02  0.10570000000E+00 0. -1.
<mgrwt>
<rscale>  0 0.92389767E+02</rscale>
<asrwt>0</asrwt>
<pdfrwt beam="2">  1        1 0.30473963E-01 0.92389767E+02</pdfrwt>
<pdfrwt beam="1">  1       -1 0.16574182E-02 0.92389767E+02</pdfrwt>
<totfact> 0.11406284E+05</totfact>
</mgrwt>
</event>
<event>
 5   1  0.1388354E+00  0.9135009E+02  0.7818608E-02  0.1299615E+00
         -1   -1    0    0    0  501 -0.00000000000E+00  0.00000000000E+00  0.10701855709E+03  0.10701855719E+03  0.46700000000E-02 0.  1.
          1   -1    0    0  501    0  0.00000000000E+00 -0.00000000000E+00 -0.19493906993E+02  0.19493907552E+02  0.46700000000E-02 0. -1.
         23    2    1    2    0    0  0.00000000000E+00  0.00000000000E+00  0.87524650100E+02  0.12651246475E+03  0.91350092288E+02 0.  0.
        -13    1    3    3    0    0 -0.36293038666E+02 -0.64630598363E+01  0.64146077896E+01  0.37418099413E+02  0.10570000000E+00 0. -1.
         13    1    3    3    0    0  0.36293038666E+02  0.64630598363E+01  0.81110042310E+02  0.89094365333E+02  0.10570000000E+00 0.  1.
<mgrwt>
<rscale>  0 0.91350092E+02</rscale>
<asrwt>0</asrwt>
<pdfrwt beam="2">  1        1 0.29990627E-02 0.91350092E+02</pdfrwt>
<pdfrwt beam="1">  1       -1 0.16464393E-01 0.91350092E+02</pdfrwt>
<totfact> 0.79940889E+04</totfact>
</mgrwt>
</event>
<event>
 5   1  0.1388354E+00  0.9226823E+02  0.7818608E-02  0.1297450E+00
          1   -1    0    0  501    0  0.00000000000E+00  0.00000000000E+00  0.12328365932E+03  0.12328365940E+03  0.46700000000E-02 0. -1.
         -1   -1    0    0    0  501 -0.00000000000E+00 -0.00000000000E+00 -0.17263898506E+02  0.17263899138E+02  0.46700000000E-02 0.  1.
         23    2    1    2    0    0  0.00000000000E+00  0.00000000000E+00  0.10601976081E+03  0.14054755854E+03  0.92268231424E+02 0.  0.
        -13    1    3    3    0    0  0.34003953040E+02  0.23731305469E+02  0.22207760344E+02  0.47038701870E+02  0.10570000000E+00 0.  1.
         13    1    3    3    0    0 -0.34003953040E+02 -0.23731305469E+02  0.83812000466E+02  0.93508856673E+02  0.10570000000E+00 0. -1.
<mgrwt>
<rscale>  0 0.92268231E+02</rscale>
<asrwt>0</asrwt>
<pdfrwt beam="1">  1        1 0.18966717E-01 0.92268231E+02</pdfrwt>
<pdfrwt beam="2">  1       -1 0.26559844E-02 0.92268231E+02</pdfrwt>
<totfact> 0.10480707E+05</totfact>
</mgrwt>
</event>
<event>
 5   1  0.1388354E+00  0.9176977E+02  0.7818608E-02  0.1298622E+00
          1   -1    0    0  501    0  0.00000000000E+00  0.00000000000E+00  0.38901318367E+02  0.38901318647E+02  0.46700000000E-02 0. -1.
         -1   -1    0    0    0  501 -0.00000000000E+00 -0.00000000000E+00 -0.54122146306E+02  0.54122146508E+02  0.46700000000E-02 0.  1.
         23    2    1    2    0    0  0.00000000000E+00  0.00000000000E+00 -0.15220827940E+02  0.93023465155E+02  0.91769774252E+02 0.  0.
        -13    1    3    3    0    0 -0.88089388850E+01 -0.41429687805E+02 -0.25497881039E+02  0.49438543120E+02  0.10570000000E+00 0.  1.
         13    1    3    3    0    0  0.88089388850E+01  0.41429687805E+02  0.10277053099E+02  0.43584922035E+02  0.10570000000E+00 0. -1.
<mgrwt>
<rscale>  0 0.91769774E+02</rscale>
<asrwt>0</asrwt>
<pdfrwt beam="1">  1        1 0.59848182E-02 0.91769774E+02</pdfrwt>
<pdfrwt beam="2">  1       -1 0.83264841E-02 0.91769774E+02</pdfrwt>
<totfact> 0.88637174E+04</totfact>
</mgrwt>
</event>
<event>
 5   1  0.1388354E+00  0.8841724E+02  0.7818608E-02  0.1306730E+00
          1   -1    0    0  501    0  0.00000000000E+00  0.00000000000E+00  0.38946237212E+03  0.38946237215E+03  0.46700000000E-02 0. -1.
         -1   -1    0    0    0  501 -0.00000000000E+00 -0.00000000000E+00 -0.50182039574E+01  0.50182061304E+01  0.46700000000E-02 0.  1.
         23    2    1    2    0    0  0.00000000000E+00  0.00000000000E+00  0.38444416817E+03  0.39448057828E+03  0.88417239296E+02 0.  0.
        -13    1    3    3    0    0  0.25957209093E+02  0.33916435154E+02  0.24314855165E+03  0.24687108097E+03  0.10570000000E+00 0.  1.
         13    1    3    3    0    0 -0.25957209093E+02 -0.33916435154E+02  0.14129561651E+03  0.14760949731E+03  0.10570000000E+00 0. -1.
<mgrwt>
<rscale>  0 0.88417239E+02</rscale>
<asrwt>0</asrwt>
<pdfrwt beam="1">  1        1 0.59917282E-01 0.88417239E+02</pdfrwt>
<pdfrwt beam="2">  1       -1 0.77203163E-03 0.88417239E+02</pdfrwt>
<totfact> 0.14569524E+05</totfact>
</mgrwt>
</event>
<event>
 5   1  0.1388354E+00  0.9190649E+02  0.7818608E-02  0.1298299E+00
         -1   -1    0    0    0  501 -0.00000000000E+00  0.00000000000E+00  0.14513235018E+02  0.14513235770E+02  0.46700000000E-02 0.  1.
          1   -1    0    0  501    0  0.00000000000E+00 -0.00000000000E+00 -0.14550171489E+03  0.14550171497E+03  0.46700000000E-02 0. -1.
         23    2    1    2    0    0  0.00000000000E+00  0.00000000000E+00 -0.13098847987E+03  0.16001495073E+03  0.91906488343E+02 0.  0.
        -13    1    3    3    0    0  0.84815056691E+01 -0.29833923233E+02 -0.12452860180E+03  0.12833309298E+03  0.10570000000E+00 0. -1.
         13    1    3    3    0    0 -0.84815056691E+01  0.29833923233E+02 -0.64598780724E+01  0.31681857760E+02  0.10570000000E+00 0.  1.
<mgrwt>
<rscale>  0 0.91906488E+02</rscale>
<asrwt>0</asrwt>
<pdfrwt beam="2">  1        1 0.22384878E-01 0.91906488E+02</pdfrwt>
<pdfrwt beam="1">  1       -1 0.22328055E-02 0.91906488E+02</pdfrwt>
<totfact> 0.10913189E+05</totfact>
</mgrwt>
</event>
<event>
 5   1  0.1388354E+00  0.9078025E+02  0.7818608E-02  0.1300973E+00
         -1   -1    0    0    0  501 -0.00000000000E+00  0.00000000000E+00  0.67949621045E+02  0.67949621205E+02  0.46700000000E-02 0.  1.
          1   -1    0    0  501    0  0.00000000000E+00 -0.00000000000E+00 -0.30320458068E+02  0.30320458427E+02  0.46700000000E-02 0. -1.
         23    2    1    2    0    0  0.00000000000E+00  0.00000000000E+00  0.37629162977E+02  0.98270079633E+02  0.90780254707E+02 0.  0.
        -13    1    3    3    0    0  0.26162036843E+02 -0.27150909582E+02  0.46170672110E+02  0.59610118256E+02  0.10570000000E+00 0.  1.
         13    1    3    3    0    0 -0.26162036843E+02  0.27150909582E+02 -0.85415091328E+01  0.38659961377E+02  0.10570000000E+00 0. -1.
<mgrwt>
<rscale>  0 0.90780255E+02</rscale>
<asrwt>0</asrwt>
<pdfrwt beam="2">  1        1 0.46646859E-02 0.90780255E+02</pdfrwt>
<pdfrwt beam="1">  1       -1 0.10453788E-01 0.90780255E+02</pdfrwt>
<totfact> 0.87925090E+04</totfact>
</mgrwt>
</event>
<event>
 5   1  0.1388354E+00  0.9272417E+02  0.7818608E-02  0.1296386E+00
         -1   -1    0    0    0  501 -0.00000000000E+00  0.00000000000E+00  0.52780063405E+02  0.52780063611E+02  0.46700000000E-02 0.  1.
          1   -1    0    0  501    0  0.00000000000E+00 -0.00000000000E+00 -0.40724523016E+02  0.40724523284E+02  0.46700000000E-02 0. -1.
         23    2    1    2    0    0  0.00000000000E+00  0.00000000000E+00  0.12055540388E+02  0.93504586895E+02  0.92724170077E+02 0.  0.
        -13    1    3    3    0    0  0.13066212867E+02  0.17100573709E+02  0.47437683219E+02  0.52091270877E+02  0.10570000000E+00 0.  1.
         13    1    3    3    0    0 -0.13066212867E+02 -0.17100573709E+02 -0.35382142831E+02  0.41413316019E+02  0.10570000000E+00 0. -1.
<mgrwt>
<rscale>  0 0.92724170E+02</rscale>
<asrwt>0</asrwt>
<pdfrwt beam="2">  1        1 0.62653113E-02 0.92724170E+02</pdfrwt>
<pdfrwt beam="1">  1       -1 0.81200098E-02 0.92724170E+02</pdfrwt>
<totfact> 0.86684526E+04</totfact>
</mgrwt>
</event>
<event>
 5   1  0.1388354E+00  0.8300580E+02  0.7818608E-02  0.1320732E+00
         -1   -1    0    0    0  501 -0.00000000000E+00  0.00000000000E+00  0.71941364904E+02  0.71941365056E+02  0.46700000000E-02 0.  1.
          1   -1    0    0  501    0  0.00000000000E+00 -0.00000000000E+00 -0.23942979944E+02  0.23942980400E+02  0.46700000000E-02 0. -1.
         23    2    1    2    0    0  0.00000000000E+00  0.00000000000E+00  0.47998384960E+02  0.95884345456E+02  0.83005799464E+02 0.  0.
        -13    1    3    3    0    0 -0.27514733056E+02 -0.30954395620E+02  0.20890057380E+02  0.46385782446E+02  0.10570000000E+00 0.  1.
         13    1    3    3    0    0  0.27514733056E+02  0.30954395620E+02  0.27108327581E+02  0.49498563010E+02  0.10570000000E+00 0. -1.
<mgrwt>
<rscale>  0 0.83005799E+02</rscale>
<asrwt>0</asrwt>
<pdfrwt beam="2">  1        1 0.36835355E-02 0.83005799E+02</pdfrwt>
<pdfrwt beam="1">  1       -1 0.11067902E-01 0.83005799E+02</pdfrwt>
<totfact> 0.10943386E+05</totfact>
</mgrwt>
</event>
<event>
 5   1  0.1388354E+00  0.9072606E+02  0.7818608E-02  0.1301103E+00
          1   -1    0    0  501    0  0.00000000000E+00  0.00000000000E+00  0.19160862630E+03  0.19160862636E+03  0.46700000000E-02 0. -1.
         -1   -1    0    0    0  501 -0.00000000000E+00 -0.00000000000E+00 -0.10739621735E+02  0.10739622751E+02  0.46700000000E-02 0.  1.
         23    2    1    2    0    0  0.00000000000E+00  0.00000000000E+00  0.18086900457E+03  0.20234824911E+03  0.90726055270E+02 0.  0.
        -13    1    3    3    0    0 -0.28813323323E+02  0.99231714468E+01  0.15490525207E+02  0.34185442460E+02  0.10570000000E+00 0.  1.
         13    1    3    3    0    0  0.28813323323E+02 -0.99231714468E+01  0.16537847936E+03  0.16816280665E+03  0.10570000000E+00 0. -1.
<mgrwt>
<rscale>  0 0.90726055E+02</rscale>
<asrwt>0</asrwt>
<pdfrwt beam="1">  1        1 0.29478247E-01 0.90726055E+02</pdfrwt>
<pdfrwt beam="2">  1       -1 0.16522497E-02 0.90726055E+02</pdfrwt>
<totfact> 0.11899973E+05</totfact>
</mgrwt>
</event>
<event>
 5   1  0.1388354E+00  0.9214728E+02  0.7818608E-02  0.1297733E+00
         -1   -1    0    0    0  501 -0.00000000000E+00  0.00000000000E+00  0.10020653312E+02  0.10020654400E+02  0.46700000000E-02 0.  1.
          1   -1    0    0  501    0  0.00000000000E+00 -0.00000000000E+00 -0.21184051708E+03  0.21184051713E+03  0.46700000000E-02 0. -1.
         23    2    1    2    0    0  0.00000000000E+00  0.00000000000E+00 -0.20181986377E+03  0.22186117153E+03  0.92147284396E+02 0.  0.
        -13    1    3    3    0    0  0.45465925791E+02 -0.64834569214E+01 -0.10978369807E+03  0.11900276113E+03  0.10570000000E+00 0. -1.
         13    1    3    3    0    0 -0.45465925791E+02  0.64834569214E+01 -0.92036165699E+02  0.10285841040E+03  0.10570000000E+00 0.  1.
<mgrwt>
<rscale>  0 0.92147284E+02</rscale>
<asrwt>0</asrwt>
<pdfrwt beam="2">  1        1 0.32590845E-01 0.92147284E+02</pdfrwt>
<pdfrwt beam="1">  1       -1 0.15416392E-02 0.92147284E+02</pdfrwt>
<totfact> 0.11638451E+05</totfact>
</mgrwt>
</event>
<event>
 5   1  0.1388354E+00  0.8880539E+02  0.7818608E-02  0.1305771E+00
         -1   -1    0    0    0  501 -0.00000000000E+00  0.00000000000E+00  0.20718304223E+02  0.20718304749E+02  0.46700000000E-02 0.  1.
          1   -1    0    0  501    0  0.00000000000E+00 -0.00000000000E+00 -0.95162191040E+02  0.95162191155E+02  0.46700000000E-02 0. -1.
         23    2    1    2    0    0  0.00000000000E+00  0.00000000000E+00 -0.74443886817E+02  0.11588049590E+03  0.88805388612E+02 0.  0.
        -13    1    3    3    0    0  0.10618712235E+02 -0.24502001665E+02 -0.83512744301E+02  0.87678359749E+02  0.10570000000E+00 0. -1.
         13    1    3    3    0    0 -0.10618712235E+02  0.24502001665E+02  0.90688574839E+01  0.28202136155E+02  0.10570000000E+00 0.  1.
<mgrwt>
<rscale>  0 0.88805389E+02</rscale>
<asrwt>0</asrwt>
<pdfrwt beam="2">  1        1 0.14640337E-01 0.88805389E+02</pdfrwt>
<pdfrwt beam="1">  1       -1 0.31874315E-02 0.88805389E+02</pdfrwt>
<totfact> 0.11130708E+05</totfact>
</mgrwt>
</event>
<event>
 5   1  0.1388354E+00  0.8960895E+02  0.7818608E-02  0.1303801E+00
         -1   -1    0    0    0  501 -0.00000000000E+00  0.00000000000E+00  0.10281841328E+02  0.10281842388E+02  0.46700000000E-02 0.  1.
          1   -1    0    0  501    0  0.00000000000E+00 -0.00000000000E+00 -0.19524139423E+03  0.19524139429E+03  0.46700000000E-02 0. -1.
         23    2    1    2    0    0  0.00000000000E+00  0.00000000000E+00 -0.18495955290E+03  0.20552323668E+03  0.89608953812E+02 0.  0.
        -13    1    3    3    0    0  0.39385697699E+02  0.19977435920E+02 -0.75148793258E+02  0.87164691417E+02  0.10570000000E+00 0.  1.
         13    1    3    3    0    0 -0.39385697699E+02 -0.19977435920E+02 -0.10981075965E+03  0.11835854526E+03  0.10570000000E+00 0. -1.
<mgrwt>
<rscale>  0 0.89608954E+02</rscale>
<asrwt>0</asrwt>
<pdfrwt beam="2">  1        1 0.30037135E-01 0.89608954E+02</pdfrwt>
<pdfrwt beam="1">  1       -1 0.15818220E-02 0.89608954E+02</pdfrwt>
<totfact> 0.12346036E+05</totfact>
</mgrwt>
</event>
<event>
 5   1  0.1388354E+00  0.9353521E+02  0.7818608E-02  0.1294510E+00
          1   -1    0    0  501    0  0.00000000000E+00  0.00000000000E+00  0.16799112199E+03  0.16799112205E+03  0.46700000000E-02 0. -1.
         -1   -1    0    0    0  501 -0.00000000000E+00 -0.00000000000E+00 -0.13019787567E+02  0.13019788405E+02  0.46700000000E-02 0.  1.
         23    2    1    2    0    0  0.00000000000E+00  0.00000000000E+00  0.15497133442E+03  0.18101091046E+03  0.93535208412E+02 0.  0.
        -13    1    3    3    0    0  0.12828014162E+02 -0.23378143811E+02  0.31344932821E+01  0.26850172737E+02  0.10570000000E+00 0.  1.
         13    1    3    3    0    0 -0.12828014162E+02  0.23378143811E+02  0.15183684114E+03  0.15416073772E+03  0.10570000000E+00 0. -1.
<mgrwt>
<rscale>  0 0.93535208E+02</rscale>
<asrwt>0</asrwt>
<pdfrwt beam="1">  1        1 0.25844786E-01 0.93535208E+02</pdfrwt>
<pdfrwt beam="2">  1       -1 0.20030445E-02 0.93535208E+02</pdfrwt>
<totfact> 0.10689758E+05</totfact>
</mgrwt>
</event>
<event>
 5   1  0.1388354E+00  0.7984376E+02  0.7818608E-02  0.1329495E+00
         -1   -1    0    0    0  501 -0.00000000000E+00  0.00000000000E+00  0.35563438996E+02  0.35563439303E+02  0.46700000000E-02 0.  1.
          1   -1    0    0  501    0  0.00000000000E+00 -0.00000000000E+00 -0.44814468549E+02  0.44814468792E+02  0.46700000000E-02 0. -1.
         23    2    1    2    0    0  0.00000000000E+00  0.00000000000E+00 -0.92510295529E+01  0.80377908095E+02  0.79843763451E+02 0.  0.
        -13    1    3    3    0    0  0.16447958765E+02  0.50873154618E+01 -0.40884932041E+02  0.44362202004E+02  0.10570000000E+00 0. -1.
         13    1    3    3    0    0 -0.16447958765E+02 -0.50873154618E+01  0.31633902488E+02  0.36015706091E+02  0.10570000000E+00 0.  1.
<mgrwt>
<rscale>  0 0.79843763E+02</rscale>
<asrwt>0</asrwt>
<pdfrwt beam="2">  1        1 0.68945336E-02 0.79843763E+02</pdfrwt>
<pdfrwt beam="1">  1       -1 0.54712984E-02 0.79843763E+02</pdfrwt>
<totfact> 0.13334993E+05</totfact>
</mgrwt>
</event>
<event>
 5   1  0.1388354E+00  0.9009232E+02  0.7818608E-02  0.1302628E+00
         -1   -1    0    0    0  501 -0.00000000000E+00  0.00000000000E+00  0.15750476641E+02  0.15750477333E+02  0.46700000000E-02 0.  1.
          1   -1    0    0  501    0  0.00000000000E+00 -0.00000000000E+00 -0.12883142380E+03  0.12883142389E+03  0.46700000000E-02 0. -1.
         23    2    1    2    0    0  0.00000000000E+00  0.00000000000E+00 -0.11308094716E+03  0.14458190122E+03  0.90092316816E+02 0.  0.
        -13    1    3    3    0    0  0.36417454600E+02  0.20369230400E+01 -0.98962537840E+02  0.10547025705E+03  0.10570000000E+00 0. -1.
         13    1    3    3    0    0 -0.36417454600E+02 -0.20369230400E+01 -0.14118409321E+02  0.39111644164E+02  0.10570000000E+00 0.  1.
<mgrwt>
<rscale>  0 0.90092317E+02</rscale>
<asrwt>0</asrwt>
<pdfrwt beam="2">  1        1 0.19820218E-01 0.90092317E+02</pdfrwt>
<pdfrwt beam="1">  1       -1 0.24231504E-02 0.90092317E+02</pdfrwt>
<totfact> 0.11267893E+05</totfact>
</mgrwt>
</event>
<event>
 5   1  0.1388354E+00  0.8309344E+02  0.7818608E-02  0.1320495E+00
          1   -1    0    0  501    0  0.00000000000E+00  0.00000000000E+00  0.17879971517E+03  0.17879971523E+03  0.46700000000E-02 0. -1.
         -1   -1    0    0    0  501 -0.00000000000E+00 -0.00000000000E+00 -0.96539857129E+01  0.96539868424E+01  0.46700000000E-02 0.  1.
         23    2    1    2    0    0  0.00000000000E+00  0.00000000000E+00  0.16914572946E+03  0.18845370207E+03  0.83093441568E+02 0.  0.
        -13    1    3    3    0    0  0.36732197570E+02 -0.52697385705E+01  0.42197901154E+02  0.56193402791E+02  0.10570000000E+00 0.  1.
         13    1    3    3    0    0 -0.36732197570E+02  0.52697385705E+01  0.12694782830E+03  0.13226029928E+03  0.10570000000E+00 0. -1.
<mgrwt>
<rscale>  0 0.83093442E+02</rscale>
<asrwt>0</asrwt>
<pdfrwt beam="1">  1        1 0.27507645E-01 0.83093442E+02</pdfrwt>
<pdfrwt beam="2">  1       -1 0.14852288E-02 0.83093442E+02</pdfrwt>
<totfact> 0.14850218E+05</totfact>
</mgrwt>
</event>
<event>
 5   1  0.1388354E+00  0.7643556E+02  0.7818608E-02  0.1339482E+00
         -1   -1    0    0    0  501 -0.00000000000E+00  0.00000000000E+00  0.27610880081E+02  0.27610880476E+02  0.46700000000E-02 0.  1.
          1   -1    0    0  501    0  0.00000000000E+00 -0.00000000000E+00 -0.52899389610E+02  0.52899389816E+02  0.46700000000E-02 0. -1.
         23    2    1    2    0    0  0.00000000000E+00  0.00000000000E+00 -0.25288509529E+02  0.80510270292E+02  0.76435560496E+02 0.  0.
        -13    1    3    3    0    0  0.57058749223E+01  0.12367176648E+02 -0.50256143348E+02  0.52069138495E+02  0.10570000000E+00 0. -1.
         13    1    3    3    0    0 -0.57058749223E+01 -0.12367176648E+02  0.24967633820E+02  0.28441131797E+02  0.10570000000E+00 0.  1.
<mgrwt>
<rscale>  0 0.76435560E+02</rscale>
<asrwt>0</asrwt>
<pdfrwt beam="2">  1        1 0.81383677E-02 0.76435560E+02</pdfrwt>
<pdfrwt beam="1">  1       -1 0.42478278E-02 0.76435560E+02</pdfrwt>
<totfact> 0.15357128E+05</totfact>
</mgrwt>
</event>
<event>
 5   1  0.1388354E+00  0.9076601E+02  0.7818608E-02  0.1301007E+00
          1   -1    0    0  501    0  0.00000000000E+00  0.00000000000E+00  0.57593042935E+02  0.57593043124E+02  0.46700000000E-02 0. -1.
         -1   -1    0    0    0  501 -0.00000000000E+00 -0.00000000000E+00 -0.35761564180E+02  0.35761564485E+02  0.46700000000E-02 0.  1.
         23    2    1    2    0    0  0.00000000000E+00  0.00000000000E+00  0.21831478755E+02  0.93354607610E+02  0.90766014000E+02 0.  0.
        -13    1    3    3    0    0 -0.53141401127E+01  0.26593756064E+02  0.48342233949E+02  0.55429691523E+02  0.10570000000E+00 0. -1.
         13    1    3    3    0    0  0.53141401127E+01 -0.26593756064E+02 -0.26510755194E+02  0.37924916087E+02  0.10570000000E+00 0.  1.
<mgrwt>
<rscale>  0 0.90766014E+02</rscale>
<asrwt>0</asrwt>
<pdfrwt beam="1">  1        1 0.88604682E-02 0.90766014E+02</pdfrwt>
<pdfrwt beam="2">  1       -1 0.55017791E-02 0.90766014E+02</pdfrwt>
<totfact> 0.96985523E+04</totfact>
</mgrwt>
</event>
<event>
 5   1  0.1388354E+00  0.9107137E+02  0.7818608E-02  0.1300278E+00
         -1   -1    0    0    0  501 -0.00000000000E+00  0.00000000000E+00  0.10197455251E+02  0.10197456320E+02  0.46700000000E-02 0.  1.
          1   -1    0    0  501    0  0.00000000000E+00 -0.00000000000E+00 -0.20333488184E+03  0.20333488189E+03  0.46700000000E-02 0. -1.
         23    2    1    2    0    0  0.00000000000E+00  0.00000000000E+00 -0.19313742659E+03  0.21353233821E+03  0.91071367143E+02 0.  0.
        -13    1    3    3    0    0 -0.20845302807E+02 -0.32821897696E+02 -0.41000337186E+02  0.56505242583E+02  0.10570000000E+00 0.  1.
         13    1    3    3    0    0  0.20845302807E+02  0.32821897696E+02 -0.15213708940E+03  0.15702709563E+03  0.10570000000E+00 0. -1.
<mgrwt>
<rscale>  0 0.91071367E+02</rscale>
<asrwt>0</asrwt>
<pdfrwt beam="2">  1        1 0.31282286E-01 0.91071367E+02</pdfrwt>
<pdfrwt beam="1">  1       -1 0.15688395E-02 0.91071367E+02</pdfrwt>
<totfact> 0.11915613E+05</totfact>
</mgrwt>
</event>
<event>
 5   1  0.1388354E+00  0.9316555E+02  0.7818608E-02  0.1295362E+00
         -1   -1    0    0    0  501 -0.00000000000E+00  0.00000000000E+00  0.11151898338E+02  0.11151899316E+02  0.46700000000E-02 0.  1.
          1   -1    0    0  501    0  0.00000000000E+00 -0.00000000000E+00 -0.19458167367E+03  0.19458167373E+03  0.46700000000E-02 0. -1.
         23    2    1    2    0    0  0.00000000000E+00  0.00000000000E+00 -0.18342977533E+03  0.20573357304E+03  0.93165554783E+02 0.  0.
        -13    1    3    3    0    0 -0.18961286996E+01 -0.36508446583E+02 -0.27962286791E+02  0.46025673607E+02  0.10570000000E+00 0.  1.
         13    1    3    3    0    0  0.18961286996E+01  0.36508446583E+02 -0.15546748854E+03  0.15970789943E+03  0.10570000000E+00 0. -1.
<mgrwt>
<rscale>  0 0.93165555E+02</rscale>
<asrwt>0</asrwt>
<pdfrwt beam="2">  1        1 0.29935640E-01 0.93165555E+02</pdfrwt>
<pdfrwt beam="1">  1       -1 0.17156769E-02 0.93165555E+02</pdfrwt>
<totfact> 0.11114015E+05</totfact>
</mgrwt>
</event>
<event>
 5   1  0.1388354E+00  0.9018185E+02  0.7818608E-02  0.1302412E+00
         -1   -1    0    0    0  501 -0.00000000000E+00  0.00000000000E+00  0.35342577808E+02  0.35342578116E+02  0.46700000000E-02 0.  1.
          1   -1    0    0  501    0  0.00000000000E+00 -0.00000000000E+00 -0.57528107326E+02  0.57528107515E+02  0.46700000000E-02 0. -1.
         23    2    1    2    0    0  0.00000000000E+00  0.00000000000E+00 -0.22185529518E+02  0.92870685631E+02  0.90181852552E+02 0.  0.
        -13    1    3    3    0    0  0.43337352653E+02 -0.10002779759E+02 -0.18729993501E+02  0.48259771725E+02  0.10570000000E+00 0.  1.
         13    1    3    3    0    0 -0.43337352653E+02  0.10002779759E+02 -0.34555360167E+01  0.44610913906E+02  0.10570000000E+00 0. -1.
<mgrwt>
<rscale>  0 0.90181853E+02</rscale>
<asrwt>0</asrwt>
<pdfrwt beam="2">  1        1 0.88504781E-02 0.90181853E+02</pdfrwt>
<pdfrwt beam="1">  1       -1 0.54373197E-02 0.90181853E+02</pdfrwt>
<totfact> 0.98720475E+04</totfact>
</mgrwt>
</event>
<event>
 5   1  0.1388354E+00  0.9183116E+02  0.7818608E-02  0.1298477E+00
         -1   -1    0    0    0  501 -0.00000000000E+00  0.00000000000E+00  0.34989969271E+02  0.34989969583E+02  0.46700000000E-02 0.  1.
          1   -1    0    0  501    0  0.00000000000E+00 -0.00000000000E+00 -0.60252704884E+02  0.60252705065E+02  0.46700000000E-02 0. -1.
         23    2    1    2    0    0  0.00000000000E+00  0.00000000000E+00 -0.25262735613E+02  0.95242674648E+02  0.91831156279E+02 0.  0.
        -13    1    3    3    0    0  0.36608558311E+02  0.26759211786E+02 -0.51532950366E+01  0.45637808659E+02  0.10570000000E+00 0.  1.
         13    1    3    3    0    0 -0.36608558311E+02 -0.26759211786E+02 -0.20109440577E+02  0.49604865989E+02  0.10570000000E+00 0. -1.
<mgrwt>
<rscale>  0 0.91831156E+02</rscale>
<asrwt>0</asrwt>
<pdfrwt beam="2">  1        1 0.92696469E-02 0.91831156E+02</pdfrwt>
<pdfrwt beam="1">  1       -1 0.53830722E-02 0.91831156E+02</pdfrwt>
<totfact> 0.94536176E+04</totfact>
</mgrwt>
</event>
<event>
 5   1  0.1388354E+00  0.8963831E+02  0.7818608E-02  0.1303730E+00
         -1   -1    0    0    0  501 -0.00000000000E+00  0.00000000000E+00  0.28917310041E+02  0.28917310418E+02  0.46700000000E-02 0.  1.
          1   -1    0    0  501    0  0.00000000000E+00 -0.00000000000E+00 -0.69465545633E+02  0.69465545790E+02  0.46700000000E-02 0. -1.
         23    2    1    2    0    0  0.00000000000E+00  0.00000000000E+00 -0.40548235592E+02  0.98382856208E+02  0.89638312044E+02 0.  0.
        -13    1    3    3    0    0 -0.30700986635E+02  0.17651312060E+02 -0.50424421399E+02  0.61617796486E+02  0.10570000000E+00 0. -1.
         13    1    3    3    0    0  0.30700986635E+02 -0.17651312060E+02  0.98761858075E+01  0.36765059722E+02  0.10570000000E+00 0.  1.
<mgrwt>
<rscale>  0 0.89638312E+02</rscale>
<asrwt>0</asrwt>
<pdfrwt beam="2">  1        1 0.10687007E-01 0.89638312E+02</pdfrwt>
<pdfrwt beam="1">  1       -1 0.44488170E-02 0.89638312E+02</pdfrwt>
<totfact> 0.10327753E+05</totfact>
</mgrwt>
</event>
<event>
 5   1  0.1388354E+00  0.9090638E+02  0.7818608E-02  0.1300671E+00
         -1   -1    0    0    0  501 -0.00000000000E+00  0.00000000000E+00  0.25085301160E+02  0.25085301595E+02  0.46700000000E-02 0.  1.
          1   -1    0    0  501    0  0.00000000000E+00 -0.00000000000E+00 -0.82358685849E+02  0.82358685981E+02  0.46700000000E-02 0. -1.
         23    2    1    2    0    0  0.00000000000E+00  0.00000000000E+00 -0.57273384688E+02  0.10744398758E+03  0.90906379714E+02 0.  0.
        -13    1    3    3    0    0  0.29419908428E+02 -0.17168454696E+02  0.69328770685E+01  0.34761513280E+02  0.10570000000E+00 0.  1.
         13    1    3    3    0    0 -0.29419908428E+02  0.17168454696E+02 -0.64206261757E+02  0.72682474296E+02  0.10570000000E+00 0. -1.
<mgrwt>
<rscale>  0 0.90906380E+02</rscale>
<asrwt>0</asrwt>
<pdfrwt beam="2">  1        1 0.12670567E-01 0.90906380E+02</pdfrwt>
<pdfrwt beam="1">  1       -1 0.38592772E-02 0.90906380E+02</pdfrwt>
<totfact> 0.10203640E+05</totfact>
</mgrwt>
</event>
<event>
 5   1  0.1388354E+00  0.9261877E+02  0.7818608E-02  0.1296631E+00
          1   -1    0    0  501    0  0.00000000000E+00  0.00000000000E+00  0.15543013022E+03  0.15543013029E+03  0.46700000000E-02 0. -1.
         -1   -1    0    0    0  501 -0.00000000000E+00 -0.00000000000E+00 -0.13797575411E+02  0.13797576201E+02  0.46700000000E-02 0.  1.
         23    2    1    2    0    0  0.00000000000E+00  0.00000000000E+00  0.14163255481E+03  0.16922770649E+03  0.92618767333E+02 0.  0.
        -13    1    3    3    0    0  0.19421643650E+02 -0.18993133796E+02  0.22896929496E+01  0.27261570750E+02  0.10570000000E+00 0.  1.
         13    1    3    3    0    0 -0.19421643650E+02  0.18993133796E+02  0.13934286186E+03  0.14196613574E+03  0.10570000000E+00 0. -1.
<mgrwt>
<rscale>  0 0.92618767E+02</rscale>
<asrwt>0</asrwt>
<pdfrwt beam="1">  1        1 0.23912328E-01 0.92618767E+02</pdfrwt>
<pdfrwt beam="2">  1       -1 0.21227039E-02 0.92618767E+02</pdfrwt>
<totfact> 0.10818841E+05</totfact>
</mgrwt>
</event>
<event>
 5   1  0.1388354E+00  0.9270727E+02  0.7818608E-02  0.1296425E+00
         -1   -1    0    0    0  501 -0.00000000000E+00  0.00000000000E+00  0.27495671378E+02  0.27495671775E+02  0.46700000000E-02 0.  1.
          1   -1    0    0  501    0  0.00000000000E+00 -0.00000000000E+00 -0.78145367852E+02  0.78145367992E+02  0.46700000000E-02 0. -1.
         23    2    1    2    0    0  0.00000000000E+00  0.00000000000E+00 -0.50649696474E+02  0.10564103977E+03  0.92707267946E+02 0.  0.
        -13    1    3    3    0    0  0.20000862500E+02 -0.31585302812E+02 -0.56552099015E+02  0.67792454816E+02  0.10570000000E+00 0. -1.
         13    1    3    3    0    0 -0.20000862500E+02  0.31585302812E+02  0.59024025414E+01  0.37848584950E+02  0.10570000000E+00 0.  1.
<mgrwt>
<rscale>  0 0.92707268E+02</rscale>
<asrwt>0</asrwt>
<pdfrwt beam="2">  1        1 0.12022364E-01 0.92707268E+02</pdfrwt>
<pdfrwt beam="1">  1       -1 0.42301034E-02 0.92707268E+02</pdfrwt>
<totfact> 0.95877330E+04</totfact>
</mgrwt>
</event>
<event>
 5   1  0.1388354E+00  0.9219940E+02  0.7818608E-02  0.1297611E+00
         -1   -1    0    0    0  501 -0.00000000000E+00  0.00000000000E+00  0.47572402543E+01  0.47572425465E+01  0.46700000000E-02 0.  1.
          1   -1    0    0  501    0  0.00000000000E+00 -0.00000000000E+00 -0.44672573142E+03  0.44672573144E+03  0.46700000000E-02 0. -1.
         23    2    1    2    0    0  0.00000000000E+00  0.00000000000E+00 -0.44196849116E+03  0.45148297399E+03  0.92199395987E+02 0.  0.
        -13    1    3    3    0    0  0.23346959848E+02 -0.39746458585E+02 -0.21826011148E+03  0.22307476088E+03  0.10570000000E+00 0.  1.
         13    1    3    3    0    0 -0.23346959848E+02  0.39746458585E+02 -0.22370837968E+03  0.22840821311E+03  0.10570000000E+00 0. -1.
<mgrwt>
<rscale>  0 0.92199396E+02</rscale>
<asrwt>0</asrwt>
<pdfrwt beam="2">  1        1 0.68727003E-01 0.92199396E+02</pdfrwt>
<pdfrwt beam="1">  1       -1 0.73188365E-03 0.92199396E+02</pdfrwt>
<totfact> 0.13320990E+05</totfact>
</mgrwt>
</event>
<event>
 5   1  0.1388354E+00  0.5464872E+02  0.7818608E-02  0.1421767E+00
          1   -1    0    0  501    0  0.00000000000E+00  0.00000000000E+00  0.43717924794E+02  0.43717925043E+02  0.46700000000E-02 0. -1.
         -1   -1    0    0    0  501 -0.00000000000E+00 -0.00000000000E+00 -0.17078134809E+02  0.17078135447E+02  0.46700000000E-02 0.  1.
         23    2    1    2    0    0  0.00000000000E+00  0.00000000000E+00  0.26639789985E+02  0.60796060490E+02  0.54648719662E+02 0.  0.
        -13    1    3    3    0    0 -0.26984720528E+01 -0.16920609714E+02  0.36998410001E+02  0.40773549019E+02  0.10570000000E+00 0. -1.
         13    1    3    3    0    0  0.26984720528E+01  0.16920609714E+02 -0.10358620016E+02  0.20022511471E+02  0.10570000000E+00 0.  1.
<mgrwt>
<rscale>  0 0.54648720E+02</rscale>
<asrwt>0</asrwt>
<pdfrwt beam="1">  1        1 0.67258344E-02 0.54648720E+02</pdfrwt>
<pdfrwt beam="2">  1       -1 0.26274055E-02 0.54648720E+02</pdfrwt>
<totfact> 0.36592054E+05</totfact>
</mgrwt>
</event>
<event>
 5   1  0.1388354E+00  0.9037163E+02  0.7818608E-02  0.1301954E+00
          1   -1    0    0  501    0  0.00000000000E+00  0.00000000000E+00  0.13137215620E+02  0.13137216450E+02  0.46700000000E-02 0. -1.
         -1   -1    0    0    0  501 -0.00000000000E+00 -0.00000000000E+00 -0.15541784286E+03  0.15541784293E+03  0.46700000000E-02 0.  1.
         23    2    1    2    0    0  0.00000000000E+00  0.00000000000E+00 -0.14228062724E+03  0.16855505938E+03  0.90371628042E+02 0.  0.
        -13    1    3    3    0    0  0.74573659462E+01 -0.35185103793E+02 -0.12215578824E+03  0.12734069109E+03  0.10570000000E+00 0.  1.
         13    1    3    3    0    0 -0.74573659462E+01  0.35185103793E+02 -0.20124838998E+02  0.41214368283E+02  0.10570000000E+00 0. -1.
<mgrwt>
<rscale>  0 0.90371628E+02</rscale>
<asrwt>0</asrwt>
<pdfrwt beam="1">  1        1 0.20211103E-02 0.90371628E+02</pdfrwt>
<pdfrwt beam="2">  1       -1 0.23910436E-01 0.90371628E+02</pdfrwt>
<totfact> 0.75889474E+04</totfact>
</mgrwt>
</event>
<event>
 5   1  0.1388354E+00  0.9006826E+02  0.7818608E-02  0.1302686E+00
         -1   -1    0    0    0  501 -0.00000000000E+00  0.00000000000E+00  0.12606857226E+03  0.12606857234E+03  0.46700000000E-02 0.  1.
          1   -1    0    0  501    0  0.00000000000E+00 -0.00000000000E+00 -0.16087059554E+02  0.16087060231E+02  0.46700000000E-02 0. -1.
         23    2    1    2    0    0  0.00000000000E+00  0.00000000000E+00  0.10998151270E+03  0.14215563258E+03  0.90068255986E+02 0.  0.
        -13    1    3    3    0    0 -0.24354136331E+02 -0.25512831851E+02  0.99184366541E+02  0.10526907563E+03  0.10570000000E+00 0.  1.
         13    1    3    3    0    0  0.24354136331E+02  0.25512831851E+02  0.10797146164E+02  0.36886556945E+02  0.10570000000E+00 0. -1.
<mgrwt>
<rscale>  0 0.90068256E+02</rscale>
<asrwt>0</asrwt>
<pdfrwt beam="2">  1        1 0.24749324E-02 0.90068256E+02</pdfrwt>
<pdfrwt beam="1">  1       -1 0.19395165E-01 0.90068256E+02</pdfrwt>
<totfact> 0.80227875E+04</totfact>
</mgrwt>
</event>
<event>
 5   1  0.1388354E+00  0.9149003E+02  0.7818608E-02  0.1299283E+00
          1   -1    0    0  501    0  0.00000000000E+00  0.00000000000E+00  0.77877216986E+02  0.77877217126E+02  0.46700000000E-02 0. -1.
         -1   -1    0    0    0  501 -0.00000000000E+00 -0.00000000000E+00 -0.26870585827E+02  0.26870586233E+02  0.46700000000E-02 0.  1.
         23    2    1    2    0    0  0.00000000000E+00  0.00000000000E+00  0.51006631158E+02  0.10474780336E+03  0.91490031623E+02 0.  0.
        -13    1    3    3    0    0  0.49221783581E+01  0.33476751714E+02  0.60748578636E+02  0.69536477649E+02  0.10570000000E+00 0. -1.
         13    1    3    3    0    0 -0.49221783581E+01 -0.33476751714E+02 -0.97419474774E+01  0.35211325710E+02  0.10570000000E+00 0.  1.
<mgrwt>
<rscale>  0 0.91490032E+02</rscale>
<asrwt>0</asrwt>
<pdfrwt beam="1">  1        1 0.11981110E-01 0.91490032E+02</pdfrwt>
<pdfrwt beam="2">  1       -1 0.41339363E-02 0.91490032E+02</pdfrwt>
<totfact> 0.99376803E+04</totfact>
</mgrwt>
</event>
<event>
 5   1  0.1388354E+00  0.7443495E+02  0.7818608E-02  0.1345630E+00
          1   -1    0    0  501    0  0.00000000000E+00  0.00000000000E+00  0.86258636883E+01  0.86258649524E+01  0.46700000000E-02 0. -1.
         -1   -1    0    0    0  501 -0.00000000000E+00 -0.00000000000E+00 -0.16057989322E+03  0.16057989329E+03  0.46700000000E-02 0.  1.
         23    2    1    2    0    0  0.00000000000E+00  0.00000000000E+00 -0.15195402954E+03  0.16920575824E+03  0.74434948317E+02 0.  0.
        -13    1    3    3    0    0 -0.27146225849E+02 -0.64283624846E+01 -0.19976444879E+02  0.34311965035E+02  0.10570000000E+00 0. -1.
         13    1    3    3    0    0  0.27146225849E+02  0.64283624846E+01 -0.13197758466E+03  0.13489379321E+03  0.10570000000E+00 0.  1.
<mgrwt>
<rscale>  0 0.74434948E+02</rscale>
<asrwt>0</asrwt>
<pdfrwt beam="1">  1        1 0.13270562E-02 0.74434948E+02</pdfrwt>
<pdfrwt beam="2">  1       -1 0.24704597E-01 0.74434948E+02</pdfrwt>
<totfact> 0.12423169E+05</totfact>
</mgrwt>
</event>
<event>
 5   1  0.1388354E+00  0.9069846E+02  0.7818608E-02  0.1301169E+00
          1   -1    0    0  501    0  0.00000000000E+00  0.00000000000E+00  0.84293381521E+02  0.84293381650E+02  0.46700000000E-02 0. -1.
         -1   -1    0    0    0  501 -0.00000000000E+00 -0.00000000000E+00 -0.24397557476E+02  0.24397557923E+02  0.46700000000E-02 0.  1.
         23    2    1    2    0    0  0.00000000000E+00  0.00000000000E+00  0.59895824045E+02  0.10869093957E+03  0.90698459785E+02 0.  0.
        -13    1    3    3    0    0 -0.30808827351E+01 -0.41094242669E+02  0.72636513685E+01  0.41844956956E+02  0.10570000000E+00 0.  1.
         13    1    3    3    0    0  0.30808827351E+01  0.41094242669E+02  0.52632172676E+02  0.66845982617E+02  0.10570000000E+00 0. -1.
<mgrwt>
<rscale>  0 0.90698460E+02</rscale>
<asrwt>0</asrwt>
<pdfrwt beam="1">  1        1 0.12968213E-01 0.90698460E+02</pdfrwt>
<pdfrwt beam="2">  1       -1 0.37534704E-02 0.90698460E+02</pdfrwt>
<totfact> 0.10305730E+05</totfact>
</mgrwt>
</event>
<event>
 5   1  0.1388354E+00  0.8544345E+02  0.7818608E-02  0.1314277E+00
         -1   -1    0    0    0  501 -0.00000000000E+00  0.00000000000E+00  0.32003202799E+02  0.32003203140E+02  0.46700000000E-02 0.  1.
          1   -1    0    0  501    0  0.00000000000E+00 -0.00000000000E+00 -0.57030092881E+02  0.57030093072E+02  0.46700000000E-02 0. -1.
         23    2    1    2    0    0  0.00000000000E+00  0.00000000000E+00 -0.25026890082E+02  0.89033296212E+02  0.85443446836E+02 0.  0.
        -13    1    3    3    0    0  0.15850031917E+02  0.47447959972E+00 -0.53849850702E+02  0.56136140193E+02  0.10570000000E+00 0. -1.
         13    1    3    3    0    0 -0.15850031917E+02 -0.47447959972E+00  0.28822960621E+02  0.32897156018E+02  0.10570000000E+00 0.  1.
<mgrwt>
<rscale>  0 0.85443447E+02</rscale>
<asrwt>0</asrwt>
<pdfrwt beam="2">  1        1 0.87738605E-02 0.85443447E+02</pdfrwt>
<pdfrwt beam="1">  1       -1 0.49235697E-02 0.85443447E+02</pdfrwt>
<totfact> 0.11443753E+05</totfact>
</mgrwt>
</event>
<event>
 5   1  0.1388354E+00  0.9024081E+02  0.7818608E-02  0.1302270E+00
         -1   -1    0    0    0  501 -0.00000000000E+00  0.00000000000E+00  0.12448464021E+02  0.12448464897E+02  0.46700000000E-02 0.  1.
          1   -1    0    0  501    0  0.00000000000E+00 -0.00000000000E+00 -0.16354234757E+03  0.16354234764E+03  0.46700000000E-02 0. -1.
         23    2    1    2    0    0  0.00000000000E+00  0.00000000000E+00 -0.15109388355E+03  0.17599081253E+03  0.90240813663E+02 0.  0.
        -13    1    3    3    0    0  0.44238418465E+02  0.26342365948E+01 -0.59014390609E+02  0.73801668965E+02  0.10570000000E+00 0.  1.
         13    1    3    3    0    0 -0.44238418465E+02 -0.26342365948E+01 -0.92079492941E+02  0.10218914357E+03  0.10570000000E+00 0. -1.
<mgrwt>
<rscale>  0 0.90240814E+02</rscale>
<asrwt>0</asrwt>
<pdfrwt beam="2">  1        1 0.25160360E-01 0.90240814E+02</pdfrwt>
<pdfrwt beam="1">  1       -1 0.19151485E-02 0.90240814E+02</pdfrwt>
<totfact> 0.11715085E+05</totfact>
</mgrwt>
</event>
<event>
 5   1  0.1388354E+00  0.8991366E+02  0.7818608E-02  0.1303061E+00
         -1   -1    0    0    0  501 -0.00000000000E+00  0.00000000000E+00  0.15395489139E+02  0.15395489847E+02  0.46700000000E-02 0.  1.
          1   -1    0    0  501    0  0.00000000000E+00 -0.00000000000E+00 -0.13127979428E+03  0.13127979437E+03  0.46700000000E-02 0. -1.
         23    2    1    2    0    0  0.00000000000E+00  0.00000000000E+00 -0.11588430515E+03  0.14667528421E+03  0.89913663145E+02 0.  0.
        -13    1    3    3    0    0 -0.28978681683E+02  0.19534738816E+02 -0.11809923524E+02  0.36889774719E+02  0.10570000000E+00 0.  1.
         13    1    3    3    0    0  0.28978681683E+02 -0.19534738816E+02 -0.10407438162E+03  0.10978550949E+03  0.10570000000E+00 0. -1.
<mgrwt>
<rscale>  0 0.89913663E+02</rscale>
<asrwt>0</asrwt>
<pdfrwt beam="2">  1        1 0.20196891E-01 0.89913663E+02</pdfrwt>
<pdfrwt beam="1">  1       -1 0.23685369E-02 0.89913663E+02</pdfrwt>
<totfact> 0.11366268E+05</totfact>
</mgrwt>
</event>
<event>
 5   1  0.1388354E+00  0.9868656E+02  0.7818608E-02  0.1283082E+00
          1   -1    0    0  501    0  0.00000000000E+00  0.00000000000E+00  0.23899470215E+02  0.23899470671E+02  0.46700000000E-02 0. -1.
         -1   -1    0    0    0  501 -0.00000000000E+00 -0.00000000000E+00 -0.10187503577E+03  0.10187503587E+03  0.46700000000E-02 0.  1.
         23    2    1    2    0    0  0.00000000000E+00  0.00000000000E+00 -0.77975565550E+02  0.12577450654E+03  0.98686562780E+02 0.  0.
        -13    1    3    3    0    0 -0.55068232130E+01  0.28973412330E+02 -0.89405925975E+02  0.94144646666E+02  0.10570000000E+00 0.  1.
         13    1    3    3    0    0  0.55068232130E+01 -0.28973412330E+02  0.11430360424E+02  0.31629859878E+02  0.10570000000E+00 0. -1.
<mgrwt>
<rscale>  0 0.98686563E+02</rscale>
<asrwt>0</asrwt>
<pdfrwt beam="1">  1        1 0.36768417E-02 0.98686563E+02</pdfrwt>
<pdfrwt beam="2">  1       -1 0.15673082E-01 0.98686563E+02</pdfrwt>
<totfact> 0.66104961E+04</totfact>
</mgrwt>
</event>
<event>
 5   1  0.1388354E+00  0.8910567E+02  0.7818608E-02  0.1305032E+00
         -1   -1    0    0    0  501 -0.00000000000E+00  0.00000000000E+00  0.41292809650E+03  0.41292809652E+03  0.46700000000E-02 0.  1.
          1   -1    0    0  501    0  0.00000000000E+00 -0.00000000000E+00 -0.48070223908E+01  0.48070246592E+01  0.46700000000E-02 0. -1.
         23    2    1    2    0    0  0.00000000000E+00  0.00000000000E+00  0.40812107411E+03  0.41773512118E+03  0.89105669516E+02 0.  0.
        -13    1    3    3    0    0  0.31778889302E+02  0.30058609771E+02  0.24370913938E+03  0.24760366236E+03  0.10570000000E+00 0.  1.
         13    1    3    3    0    0 -0.31778889302E+02 -0.30058609771E+02  0.16441193473E+03  0.17013145882E+03  0.10570000000E+00 0. -1.
<mgrwt>
<rscale>  0 0.89105670E+02</rscale>
<asrwt>0</asrwt>
<pdfrwt beam="2">  1        1 0.73954186E-03 0.89105670E+02</pdfrwt>
<pdfrwt beam="1">  1       -1 0.63527419E-01 0.89105670E+02</pdfrwt>
<totfact> 0.55677994E+04</totfact>
</mgrwt>
</event>
<event>
 5   1  0.1388354E+00  0.9113439E+02  0.7818608E-02  0.1300128E+00
         -1   -1    0    0    0  501 -0.00000000000E+00  0.00000000000E+00  0.13954352453E+02  0.13954353234E+02  0.46700000000E-02 0.  1.
          1   -1    0    0  501    0  0.00000000000E+00 -0.00000000000E+00 -0.14879724039E+03  0.14879724047E+03  0.46700000000E-02 0. -1.
         23    2    1    2    0    0  0.00000000000E+00  0.00000000000E+00 -0.13484288794E+03  0.16275159370E+03  0.91134388812E+02 0.  0.
        -13    1    3    3    0    0  0.33992184700E+02 -0.26214365184E+02 -0.40121042000E+02  0.58756878290E+02  0.10570000000E+00 0. -1.
         13    1    3    3    0    0 -0.33992184700E+02  0.26214365184E+02 -0.94721845942E+02  0.10399471541E+03  0.10570000000E+00 0.  1.
<mgrwt>
<rscale>  0 0.91134389E+02</rscale>
<asrwt>0</asrwt>
<pdfrwt beam="2">  1        1 0.22891882E-01 0.91134389E+02</pdfrwt>
<pdfrwt beam="1">  1       -1 0.21468236E-02 0.91134389E+02</pdfrwt>
<totfact> 0.11210791E+05</totfact>
</mgrwt>
</event>
<event>
 5   1  0.1388354E+00  0.9007094E+02  0.7818608E-02  0.1302680E+00
          1   -1    0    0  501    0  0.00000000000E+00  0.00000000000E+00  0.79973908658E+02  0.79973908794E+02  0.46700000000E-02 0. -1.
         -1   -1    0    0    0  501 -0.00000000000E+00 -0.00000000000E+00 -0.25360688694E+02  0.25360689124E+02  0.46700000000E-02 0.  1.
         23    2    1    2    0    0  0.00000000000E+00  0.00000000000E+00  0.54613219963E+02  0.10533459792E+03  0.90070937177E+02 0.  0.
        -13    1    3    3    0    0 -0.33619934015E+02  0.13049929369E+02  0.58851369841E+02  0.69022427691E+02  0.10570000000E+00 0.  1.
         13    1    3    3    0    0  0.33619934015E+02 -0.13049929369E+02 -0.42381498782E+01  0.36312170227E+02  0.10570000000E+00 0. -1.
<mgrwt>
<rscale>  0 0.90070937E+02</rscale>
<asrwt>0</asrwt>
<pdfrwt beam="1">  1        1 0.12303678E-01 0.90070937E+02</pdfrwt>
<pdfrwt beam="2">  1       -1 0.39016445E-02 0.90070937E+02</pdfrwt>
<totfact> 0.10416500E+05</totfact>
</mgrwt>
</event>
<event>
 5   1  0.1388354E+00  0.9105145E+02  0.7818608E-02  0.1300325E+00
          1   -1    0    0  501    0  0.00000000000E+00  0.00000000000E+00  0.26529650333E+02  0.26529650744E+02  0.46700000000E-02 0. -1.
         -1   -1    0    0    0  501 -0.00000000000E+00 -0.00000000000E+00 -0.78123590839E+02  0.78123590978E+02  0.46700000000E-02 0.  1.
         23    2    1    2    0    0  0.00000000000E+00  0.00000000000E+00 -0.51593940505E+02  0.10465324172E+03  0.91051448677E+02 0.  0.
        -13    1    3    3    0    0  0.38252743265E+02 -0.24569067616E+02 -0.28533607678E+02  0.53675780297E+02  0.10570000000E+00 0.  1.
         13    1    3    3    0    0 -0.38252743265E+02  0.24569067616E+02 -0.23060332827E+02  0.50977461426E+02  0.10570000000E+00 0. -1.
<mgrwt>
<rscale>  0 0.91051449E+02</rscale>
<asrwt>0</asrwt>
<pdfrwt beam="1">  1        1 0.40814847E-02 0.91051449E+02</pdfrwt>
<pdfrwt beam="2">  1       -1 0.12019014E-01 0.91051449E+02</pdfrwt>
<totfact> 0.85289617E+04</totfact>
</mgrwt>
</event>
<event>
 5   1  0.1388354E+00  0.9297279E+02  0.7818608E-02  0.1295808E+00
         -1   -1    0    0    0  501 -0.00000000000E+00  0.00000000000E+00  0.58756312104E+02  0.58756312290E+02  0.46700000000E-02 0. -1.
          1   -1    0    0  501    0  0.00000000000E+00 -0.00000000000E+00 -0.36778771409E+02  0.36778771705E+02  0.46700000000E-02 0.  1.
         23    2    1    2    0    0  0.00000000000E+00  0.00000000000E+00  0.21977540695E+02  0.95535083995E+02  0.92972791605E+02 0.  0.
        -13    1    3    3    0    0 -0.41551215028E+02 -0.13320761879E+02  0.27462690070E+02  0.51557314571E+02  0.10570000000E+00 0.  1.
         13    1    3    3    0    0  0.41551215028E+02  0.13320761879E+02 -0.54851493751E+01  0.43977769424E+02  0.10570000000E+00 0. -1.
<mgrwt>
<rscale>  0 0.92972792E+02</rscale>
<asrwt>0</asrwt>
<pdfrwt beam="2">  1        1 0.56582726E-02 0.92972792E+02</pdfrwt>
<pdfrwt beam="1">  1       -1 0.90394327E-02 0.92972792E+02</pdfrwt>
<totfact> 0.84675716E+04</totfact>
</mgrwt>
</event>
<event>
 5   1  0.1388354E+00  0.9111593E+02  0.7818608E-02  0.1300172E+00
          1   -1    0    0  501    0  0.00000000000E+00  0.00000000000E+00  0.66781162300E+02  0.66781162463E+02  0.46700000000E-02 0. -1.
         -1   -1    0    0    0  501 -0.00000000000E+00 -0.00000000000E+00 -0.31079548172E+02  0.31079548523E+02  0.46700000000E-02 0.  1.
         23    2    1    2    0    0  0.00000000000E+00  0.00000000000E+00  0.35701614128E+02  0.97860710986E+02  0.91115934410E+02 0.  0.
        -13    1    3    3    0    0  0.10450493682E+02  0.44267772844E+02  0.15077271541E+02  0.47918512293E+02  0.10570000000E+00 0.  1.
         13    1    3    3    0    0 -0.10450493682E+02 -0.44267772844E+02  0.20624342587E+02  0.49942198694E+02  0.10570000000E+00 0. -1.
<mgrwt>
<rscale>  0 0.91115934E+02</rscale>
<asrwt>0</asrwt>
<pdfrwt beam="1">  1        1 0.10274025E-01 0.91115934E+02</pdfrwt>
<pdfrwt beam="2">  1       -1 0.47814690E-02 0.91115934E+02</pdfrwt>
<totfact> 0.98136368E+04</totfact>
</mgrwt>
</event>
<event>
 5   1  0.1388354E+00  0.9492449E+02  0.7818608E-02  0.1291346E+00
          1   -1    0    0  501    0  0.00000000000E+00  0.00000000000E+00  0.91731856880E+02  0.91731856999E+02  0.46700000000E-02 0. -1.
         -1   -1    0    0    0  501 -0.00000000000E+00 -0.00000000000E+00 -0.24557057059E+02  0.24557057503E+02  0.46700000000E-02 0.  1.
         23    2    1    2    0    0  0.00000000000E+00  0.00000000000E+00  0.67174799821E+02  0.11628891450E+03  0.94924485277E+02 0.  0.
        -13    1    3    3    0    0  0.20229894519E+01  0.34488946736E+02 -0.62804752663E+01  0.35114604872E+02  0.10570000000E+00 0.  1.
         13    1    3    3    0    0 -0.20229894519E+01 -0.34488946736E+02  0.73455275087E+02  0.81174309630E+02  0.10570000000E+00 0. -1.
<mgrwt>
<rscale>  0 0.94924485E+02</rscale>
<asrwt>0</asrwt>
<pdfrwt beam="1">  1        1 0.14112593E-01 0.94924485E+02</pdfrwt>
<pdfrwt beam="2">  1       -1 0.37780089E-02 0.94924485E+02</pdfrwt>
<totfact> 0.92208170E+04</totfact>
</mgrwt>
</event>
<event>
 5   1  0.1388354E+00  0.9016921E+02  0.7818608E-02  0.1302442E+00
         -1   -1    0    0    0  501 -0.00000000000E+00  0.00000000000E+00  0.24607424546E+02  0.24607424989E+02  0.46700000000E-02 0.  1.
          1   -1    0    0  501    0  0.00000000000E+00 -0.00000000000E+00 -0.82601959607E+02  0.82601959739E+02  0.46700000000E-02 0. -1.
         23    2    1    2    0    0  0.00000000000E+00  0.00000000000E+00 -0.57994535061E+02  0.10720938473E+03  0.90169208031E+02 0.  0.
        -13    1    3    3    0    0 -0.10343345269E+02  0.12195896272E+02  0.21121951004E+02  0.26492879495E+02  0.10570000000E+00 0.  1.
         13    1    3    3    0    0  0.10343345269E+02 -0.12195896272E+02 -0.79116486065E+02  0.80716505233E+02  0.10570000000E+00 0. -1.
<mgrwt>
<rscale>  0 0.90169208E+02</rscale>
<asrwt>0</asrwt>
<pdfrwt beam="2">  1        1 0.12707994E-01 0.90169208E+02</pdfrwt>
<pdfrwt beam="1">  1       -1 0.37857577E-02 0.90169208E+02</pdfrwt>
<totfact> 0.10438428E+05</totfact>
</mgrwt>
</event>
<event>
 5   1  0.1388354E+00  0.9609226E+02  0.7818608E-02  0.1288735E+00
         -1   -1    0    0    0  501 -0.00000000000E+00  0.00000000000E+00  0.94853939975E+02  0.94853940090E+02  0.46700000000E-02 0.  1.
          1   -1    0    0  501    0  0.00000000000E+00 -0.00000000000E+00 -0.24336684601E+02  0.24336685049E+02  0.46700000000E-02 0. -1.
         23    2    1    2    0    0  0.00000000000E+00  0.00000000000E+00  0.70517255374E+02  0.11919062514E+03  0.96092256793E+02 0.  0.
        -13    1    3    3    0    0  0.37758849882E+02  0.22625616873E+02  0.11374686296E+02  0.45464754966E+02  0.10570000000E+00 0. -1.
         13    1    3    3    0    0 -0.37758849882E+02 -0.22625616873E+02  0.59142569078E+02  0.73725870174E+02  0.10570000000E+00 0.  1.
<mgrwt>
<rscale>  0 0.96092257E+02</rscale>
<asrwt>0</asrwt>
<pdfrwt beam="2">  1        1 0.37441053E-02 0.96092257E+02</pdfrwt>
<pdfrwt beam="1">  1       -1 0.14592914E-01 0.96092257E+02</pdfrwt>
<totfact> 0.71769989E+04</totfact>
</mgrwt>
</event>
<event>
 5   1  0.1388354E+00  0.8776040E+02  0.7818608E-02  0.1308368E+00
         -1   -1    0    0    0  501 -0.00000000000E+00  0.00000000000E+00  0.44053872426E+01  0.44053897179E+01  0.46700000000E-02 0.  1.
          1   -1    0    0  501    0  0.00000000000E+00 -0.00000000000E+00 -0.43707194798E+03  0.43707194800E+03  0.46700000000E-02 0. -1.
         23    2    1    2    0    0  0.00000000000E+00  0.00000000000E+00 -0.43266656074E+03  0.44147733772E+03  0.87760395068E+02 0.  0.
        -13    1    3    3    0    0  0.42177446135E+02 -0.12071947887E+02 -0.21185735035E+03  0.21635206715E+03  0.10570000000E+00 0.  1.
         13    1    3    3    0    0 -0.42177446135E+02  0.12071947887E+02 -0.22080921038E+03  0.22512527058E+03  0.10570000000E+00 0. -1.
<mgrwt>
<rscale>  0 0.87760395E+02</rscale>
<asrwt>0</asrwt>
<pdfrwt beam="2">  1        1 0.67241804E-01 0.87760395E+02</pdfrwt>
<pdfrwt beam="1">  1       -1 0.67775242E-03 0.87760395E+02</pdfrwt>
<totfact> 0.15132519E+05</totfact>
</mgrwt>
</event>
<event>
 5   1  0.1388354E+00  0.9162676E+02  0.7818608E-02  0.1298959E+00
          1   -1    0    0  501    0  0.00000000000E+00  0.00000000000E+00  0.17006241967E+02  0.17006242608E+02  0.46700000000E-02 0. -1.
         -1   -1    0    0    0  501 -0.00000000000E+00 -0.00000000000E+00 -0.12341738347E+03  0.12341738355E+03  0.46700000000E-02 0.  1.
         23    2    1    2    0    0  0.00000000000E+00  0.00000000000E+00 -0.10641114150E+03  0.14042362616E+03  0.91626763281E+02 0.  0.
        -13    1    3    3    0    0 -0.17778421254E+02 -0.42062085239E+02 -0.47561355978E+02  0.65934702789E+02  0.10570000000E+00 0.  1.
         13    1    3    3    0    0  0.17778421254E+02  0.42062085239E+02 -0.58849785520E+02  0.74488923372E+02  0.10570000000E+00 0. -1.
<mgrwt>
<rscale>  0 0.91626763E+02</rscale>
<asrwt>0</asrwt>
<pdfrwt beam="1">  1        1 0.26163450E-02 0.91626763E+02</pdfrwt>
<pdfrwt beam="2">  1       -1 0.18987289E-01 0.91626763E+02</pdfrwt>
<totfact> 0.77088253E+04</totfact>
</mgrwt>
</event>
<event>
 5   1  0.1388354E+00  0.9190153E+02  0.7818608E-02  0.1298311E+00
          1   -1    0    0  501    0  0.00000000000E+00  0.00000000000E+00  0.18538956770E+02  0.18538957358E+02  0.46700000000E-02 0. -1.
         -1   -1    0    0    0  501 -0.00000000000E+00 -0.00000000000E+00 -0.11389381780E+03  0.11389381790E+03  0.46700000000E-02 0.  1.
         23    2    1    2    0    0  0.00000000000E+00  0.00000000000E+00 -0.95354861033E+02  0.13243277526E+03  0.91901525774E+02 0.  0.
        -13    1    3    3    0    0  0.31479152571E+02  0.33474226377E+02 -0.47711508354E+02  0.66240924511E+02  0.10570000000E+00 0.  1.
         13    1    3    3    0    0 -0.31479152571E+02 -0.33474226377E+02 -0.47643352679E+02  0.66191850746E+02  0.10570000000E+00 0. -1.
<mgrwt>
<rscale>  0 0.91901526E+02</rscale>
<asrwt>0</asrwt>
<pdfrwt beam="1">  1        1 0.28521473E-02 0.91901526E+02</pdfrwt>
<pdfrwt beam="2">  1       -1 0.17522125E-01 0.91901526E+02</pdfrwt>
<totfact> 0.77754004E+04</totfact>
</mgrwt>
</event>
<event>
 5   1  0.1388354E+00  0.1048380E+03  0.7818608E-02  0.1270439E+00
         -1   -1    0    0    0  501 -0.00000000000E+00  0.00000000000E+00  0.54429249864E+02  0.54429250064E+02  0.46700000000E-02 0.  1.
          1   -1    0    0  501    0  0.00000000000E+00 -0.00000000000E+00 -0.50483027818E+02  0.50483028034E+02  0.46700000000E-02 0. -1.
         23    2    1    2    0    0  0.00000000000E+00  0.00000000000E+00  0.39462220464E+01  0.10491227810E+03  0.10483803426E+03 0.  0.
        -13    1    3    3    0    0  0.30073701755E+02 -0.18683616228E+02  0.40655849403E+02  0.53911170603E+02  0.10570000000E+00 0.  1.
         13    1    3    3    0    0 -0.30073701755E+02  0.18683616228E+02 -0.36709627357E+02  0.51001107495E+02  0.10570000000E+00 0. -1.
<mgrwt>
<rscale>  0 0.10483803E+03</rscale>
<asrwt>0</asrwt>
<pdfrwt beam="2">  1        1 0.77666197E-02 0.10483803E+03</pdfrwt>
<pdfrwt beam="1">  1       -1 0.83737308E-02 0.10483803E+03</pdfrwt>
<totfact> 0.63273430E+04</totfact>
</mgrwt>
</event>
<event>
 5   1  0.1388354E+00  0.9033593E+02  0.7818608E-02  0.1302040E+00
          1   -1    0    0  501    0  0.00000000000E+00  0.00000000000E+00  0.11014273190E+03  0.11014273200E+03  0.46700000000E-02 0. -1.
         -1   -1    0    0    0  501 -0.00000000000E+00 -0.00000000000E+00 -0.18522739960E+02  0.18522740549E+02  0.46700000000E-02 0.  1.
         23    2    1    2    0    0  0.00000000000E+00  0.00000000000E+00  0.91619991938E+02  0.12866547255E+03  0.90335933619E+02 0.  0.
        -13    1    3    3    0    0 -0.87289430048E+01  0.29683400940E+02 -0.10586803053E+01  0.30958532165E+02  0.10570000000E+00 0.  1.
         13    1    3    3    0    0  0.87289430048E+01 -0.29683400940E+02  0.92678672243E+02  0.97706940381E+02  0.10570000000E+00 0. -1.
<mgrwt>
<rscale>  0 0.90335934E+02</rscale>
<asrwt>0</asrwt>
<pdfrwt beam="1">  1        1 0.16945036E-01 0.90335934E+02</pdfrwt>
<pdfrwt beam="2">  1       -1 0.28496524E-02 0.90335934E+02</pdfrwt>
<totfact> 0.10886766E+05</totfact>
</mgrwt>
</event>
<event>
 5   1  0.1388354E+00  0.9165995E+02  0.7818608E-02  0.1298881E+00
          1   -1    0    0  501    0  0.00000000000E+00  0.00000000000E+00  0.11722827269E+03  0.11722827278E+03  0.46700000000E-02 0. -1.
         -1   -1    0    0    0  501 -0.00000000000E+00 -0.00000000000E+00 -0.17917065999E+02  0.17917066607E+02  0.46700000000E-02 0.  1.
         23    2    1    2    0    0  0.00000000000E+00  0.00000000000E+00  0.99311206688E+02  0.13514533939E+03  0.91659953001E+02 0.  0.
        -13    1    3    3    0    0  0.36674624441E+02  0.94765483017E+00  0.90153877403E+02  0.97332722714E+02  0.10570000000E+00 0. -1.
         13    1    3    3    0    0 -0.36674624441E+02 -0.94765483017E+00  0.91573292849E+01  0.37812616673E+02  0.10570000000E+00 0.  1.
<mgrwt>
<rscale>  0 0.91659953E+02</rscale>
<asrwt>0</asrwt>
<pdfrwt beam="1">  1        1 0.18035119E-01 0.91659953E+02</pdfrwt>
<pdfrwt beam="2">  1       -1 0.27564717E-02 0.91659953E+02</pdfrwt>
<totfact> 0.10577372E+05</totfact>
</mgrwt>
</event>
<event>
 5   1  0.1388354E+00  0.9268798E+02  0.7818608E-02  0.1296470E+00
          1   -1    0    0  501    0  0.00000000000E+00  0.00000000000E+00  0.49618873745E+02  0.49618873965E+02  0.46700000000E-02 0. -1.
         -1   -1    0    0    0  501 -0.00000000000E+00 -0.00000000000E+00 -0.43285254971E+02  0.43285255223E+02  0.46700000000E-02 0.  1.
         23    2    1    2    0    0  0.00000000000E+00  0.00000000000E+00  0.63336187735E+01  0.92904129188E+02  0.92687984623E+02 0.  0.
        -13    1    3    3    0    0 -0.14584812542E+02  0.43872746163E+02  0.63711124581E+01  0.46670513809E+02  0.10570000000E+00 0. -1.
         13    1    3    3    0    0  0.14584812542E+02 -0.43872746163E+02 -0.37493684670E-01  0.46233615379E+02  0.10570000000E+00 0.  1.
<mgrwt>
<rscale>  0 0.92687985E+02</rscale>
<asrwt>0</asrwt>
<pdfrwt beam="1">  1        1 0.76336730E-02 0.92687985E+02</pdfrwt>
<pdfrwt beam="2">  1       -1 0.66592700E-02 0.92687985E+02</pdfrwt>
<totfact> 0.89439592E+04</totfact>
</mgrwt>
</event>
<event>
 5   1  0.1388354E+00  0.9124572E+02  0.7818608E-02  0.1299863E+00
          1   -1    0    0  501    0  0.00000000000E+00  0.00000000000E+00  0.26564284462E+02  0.26564284872E+02  0.46700000000E-02 0. -1.
         -1   -1    0    0    0  501 -0.00000000000E+00 -0.00000000000E+00 -0.78355026847E+02  0.78355026986E+02  0.46700000000E-02 0.  1.
         23    2    1    2    0    0  0.00000000000E+00  0.00000000000E+00 -0.51790742385E+02  0.10491931186E+03  0.91245717730E+02 0.  0.
        -13    1    3    3    0    0 -0.18455433545E+02 -0.27670359074E+02  0.10012184471E+02  0.34734806880E+02  0.10570000000E+00 0. -1.
         13    1    3    3    0    0  0.18455433545E+02  0.27670359074E+02 -0.61802926856E+02  0.70184504978E+02  0.10570000000E+00 0.  1.
<mgrwt>
<rscale>  0 0.91245718E+02</rscale>
<asrwt>0</asrwt>
<pdfrwt beam="1">  1        1 0.40868130E-02 0.91245718E+02</pdfrwt>
<pdfrwt beam="2">  1       -1 0.12054620E-01 0.91245718E+02</pdfrwt>
<totfact> 0.84783283E+04</totfact>
</mgrwt>
</event>
<event>
 5   1  0.1388354E+00  0.8951818E+02  0.7818608E-02  0.1304023E+00
          1   -1    0    0  501    0  0.00000000000E+00  0.00000000000E+00  0.24640749399E+02  0.24640749842E+02  0.46700000000E-02 0. -1.
         -1   -1    0    0    0  501 -0.00000000000E+00 -0.00000000000E+00 -0.81303377040E+02  0.81303377174E+02  0.46700000000E-02 0.  1.
         23    2    1    2    0    0  0.00000000000E+00  0.00000000000E+00 -0.56662627641E+02  0.10594412702E+03  0.89518180712E+02 0.  0.
        -13    1    3    3    0    0 -0.35058575065E+02  0.13384907717E+02  0.53974038356E+00  0.37530813105E+02  0.10570000000E+00 0. -1.
         13    1    3    3    0    0  0.35058575065E+02 -0.13384907717E+02 -0.57202368025E+02  0.68413313911E+02  0.10570000000E+00 0.  1.
<mgrwt>
<rscale>  0 0.89518181E+02</rscale>
<asrwt>0</asrwt>
<pdfrwt beam="1">  1        1 0.37908846E-02 0.89518181E+02</pdfrwt>
<pdfrwt beam="2">  1       -1 0.12508212E-01 0.89518181E+02</pdfrwt>
<totfact> 0.88478485E+04</totfact>
</mgrwt>
</event>
<event>
 5   1  0.1388354E+00  0.9001753E+02  0.7818608E-02  0.1302809E+00
          1   -1    0    0  501    0  0.00000000000E+00  0.00000000000E+00  0.17208275358E+03  0.17208275364E+03  0.46700000000E-02 0. -1.
         -1   -1    0    0    0  501 -0.00000000000E+00 -0.00000000000E+00 -0.11772179126E+02  0.11772180052E+02  0.46700000000E-02 0.  1.
         23    2    1    2    0    0  0.00000000000E+00  0.00000000000E+00  0.16031057445E+03  0.18385493370E+03  0.90017533639E+02 0.  0.
        -13    1    3    3    0    0  0.84015866650E+01 -0.32535635933E+02  0.18997287195E+02  0.38601325849E+02  0.10570000000E+00 0.  1.
         13    1    3    3    0    0 -0.84015866650E+01  0.32535635933E+02  0.14131328726E+03  0.14525360785E+03  0.10570000000E+00 0. -1.
<mgrwt>
<rscale>  0 0.90017534E+02</rscale>
<asrwt>0</asrwt>
<pdfrwt beam="1">  1        1 0.26474267E-01 0.90017534E+02</pdfrwt>
<pdfrwt beam="2">  1       -1 0.18111048E-02 0.90017534E+02</pdfrwt>
<totfact> 0.11906194E+05</totfact>
</mgrwt>
</event>
<event>
 5   1  0.1388354E+00  0.9151868E+02  0.7818608E-02  0.1299215E+00
          1   -1    0    0  501    0  0.00000000000E+00  0.00000000000E+00  0.50189879085E+02  0.50189879302E+02  0.46700000000E-02 0. -1.
         -1   -1    0    0    0  501 -0.00000000000E+00 -0.00000000000E+00 -0.41719908859E+02  0.41719909120E+02  0.46700000000E-02 0.  1.
         23    2    1    2    0    0  0.00000000000E+00  0.00000000000E+00  0.84699702265E+01  0.91909788422E+02  0.91518680127E+02 0.  0.
        -13    1    3    3    0    0 -0.22037789277E+02 -0.81354842551E+01 -0.35201850358E+02  0.42320582480E+02  0.10570000000E+00 0.  1.
         13    1    3    3    0    0  0.22037789277E+02  0.81354842551E+01  0.43671820585E+02  0.49589205942E+02  0.10570000000E+00 0. -1.
<mgrwt>
<rscale>  0 0.91518680E+02</rscale>
<asrwt>0</asrwt>
<pdfrwt beam="1">  1        1 0.77215199E-02 0.91518680E+02</pdfrwt>
<pdfrwt beam="2">  1       -1 0.64184476E-02 0.91518680E+02</pdfrwt>
<totfact> 0.92839908E+04</totfact>
</mgrwt>
</event>
<event>
 5   1  0.1388354E+00  0.7953289E+02  0.7818608E-02  0.1330382E+00
         -1   -1    0    0    0  501 -0.00000000000E+00  0.00000000000E+00  0.12545534580E+02  0.12545535449E+02  0.46700000000E-02 0.  1.
          1   -1    0    0  501    0  0.00000000000E+00 -0.00000000000E+00 -0.12605042393E+03  0.12605042402E+03  0.46700000000E-02 0. -1.
         23    2    1    2    0    0  0.00000000000E+00  0.00000000000E+00 -0.11350488935E+03  0.13859595947E+03  0.79532886744E+02 0.  0.
        -13    1    3    3    0    0 -0.23771520843E+02 -0.13825350742E+02 -0.10680956773E+03  0.11029288489E+03  0.10570000000E+00 0. -1.
         13    1    3    3    0    0  0.23771520843E+02  0.13825350742E+02 -0.66953216219E+01  0.28303074576E+02  0.10570000000E+00 0.  1.
<mgrwt>
<rscale>  0 0.79532887E+02</rscale>
<asrwt>0</asrwt>
<pdfrwt beam="2">  1        1 0.19392372E-01 0.79532887E+02</pdfrwt>
<pdfrwt beam="1">  1       -1 0.19300824E-02 0.79532887E+02</pdfrwt>
<totfact> 0.15683640E+05</totfact>
</mgrwt>
</event>
<event>
 5   1  0.1388354E+00  0.9217555E+02  0.7818608E-02  0.1297667E+00
          1   -1    0    0  501    0  0.00000000000E+00  0.00000000000E+00  0.12357029779E+03  0.12357029788E+03  0.46700000000E-02 0. -1.
         -1   -1    0    0    0  501 -0.00000000000E+00 -0.00000000000E+00 -0.17189266221E+02  0.17189266856E+02  0.46700000000E-02 0.  1.
         23    2    1    2    0    0  0.00000000000E+00  0.00000000000E+00  0.10638103157E+03  0.14075956473E+03  0.92175545491E+02 0.  0.
        -13    1    3    3    0    0  0.35880699424E+02  0.28610324612E+02  0.46694339589E+02  0.65470205343E+02  0.10570000000E+00 0.  1.
         13    1    3    3    0    0 -0.35880699424E+02 -0.28610324612E+02  0.59686691979E+02  0.75289359391E+02  0.10570000000E+00 0. -1.
<mgrwt>
<rscale>  0 0.92175545E+02</rscale>
<asrwt>0</asrwt>
<pdfrwt beam="1">  1        1 0.19010815E-01 0.92175545E+02</pdfrwt>
<pdfrwt beam="2">  1       -1 0.26445026E-02 0.92175545E+02</pdfrwt>
<totfact> 0.10513663E+05</totfact>
</mgrwt>
</event>
<event>
 5   1  0.1388354E+00  0.9177561E+02  0.7818608E-02  0.1298608E+00
         -1   -1    0    0    0  501 -0.00000000000E+00  0.00000000000E+00  0.28908394650E+02  0.28908395028E+02  0.46700000000E-02 0. -1.
          1   -1    0    0  501    0  0.00000000000E+00 -0.00000000000E+00 -0.72840111330E+02  0.72840111480E+02  0.46700000000E-02 0.  1.
         23    2    1    2    0    0  0.00000000000E+00  0.00000000000E+00 -0.43931716680E+02  0.10174850651E+03  0.91775611390E+02 0.  0.
        -13    1    3    3    0    0 -0.19117789272E+02 -0.41706068320E+02 -0.22953466162E+02  0.51300670392E+02  0.10570000000E+00 0. -1.
         13    1    3    3    0    0  0.19117789272E+02  0.41706068320E+02 -0.20978250518E+02  0.50447836115E+02  0.10570000000E+00 0.  1.
<mgrwt>
<rscale>  0 0.91775611E+02</rscale>
<asrwt>0</asrwt>
<pdfrwt beam="2">  1        1 0.11206171E-01 0.91775611E+02</pdfrwt>
<pdfrwt beam="1">  1       -1 0.44474454E-02 0.91775611E+02</pdfrwt>
<totfact> 0.97500302E+04</totfact>
</mgrwt>
</event>
<event>
 5   1  0.1388354E+00  0.9138372E+02  0.7818608E-02  0.1299535E+00
         -1   -1    0    0    0  501 -0.00000000000E+00  0.00000000000E+00  0.33496038372E+02  0.33496038697E+02  0.46700000000E-02 0.  1.
          1   -1    0    0  501    0  0.00000000000E+00 -0.00000000000E+00 -0.62328150303E+02  0.62328150478E+02  0.46700000000E-02 0. -1.
         23    2    1    2    0    0  0.00000000000E+00  0.00000000000E+00 -0.28832111931E+02  0.95824189175E+02  0.91383721486E+02 0.  0.
        -13    1    3    3    0    0 -0.33571670244E+01 -0.42160272845E+02  0.37150511295E+01  0.42456706823E+02  0.10570000000E+00 0.  1.
         13    1    3    3    0    0  0.33571670244E+01  0.42160272845E+02 -0.32547163061E+02  0.53367482352E+02  0.10570000000E+00 0. -1.
<mgrwt>
<rscale>  0 0.91383721E+02</rscale>
<asrwt>0</asrwt>
<pdfrwt beam="2">  1        1 0.95889462E-02 0.91383721E+02</pdfrwt>
<pdfrwt beam="1">  1       -1 0.51532367E-02 0.91383721E+02</pdfrwt>
<totfact> 0.96321916E+04</totfact>
</mgrwt>
</event>
<event>
 5   1  0.1388354E+00  0.9249062E+02  0.7818608E-02  0.1296930E+00
          1   -1    0    0  501    0  0.00000000000E+00  0.00000000000E+00  0.34231874031E+02  0.34231874349E+02  0.46700000000E-02 0. -1.
         -1   -1    0    0    0  501 -0.00000000000E+00 -0.00000000000E+00 -0.62474772086E+02  0.62474772261E+02  0.46700000000E-02 0.  1.
         23    2    1    2    0    0  0.00000000000E+00  0.00000000000E+00 -0.28242898056E+02  0.96706646610E+02  0.92490616865E+02 0.  0.
        -13    1    3    3    0    0 -0.17791219446E+02 -0.31243348075E+02 -0.44532345446E+02  0.57234738155E+02  0.10570000000E+00 0.  1.
         13    1    3    3    0    0  0.17791219446E+02  0.31243348075E+02  0.16289447390E+02  0.39471908455E+02  0.10570000000E+00 0. -1.
<mgrwt>
<rscale>  0 0.92490617E+02</rscale>
<asrwt>0</asrwt>
<pdfrwt beam="1">  1        1 0.52664422E-02 0.92490617E+02</pdfrwt>
<pdfrwt beam="2">  1       -1 0.96115035E-02 0.92490617E+02</pdfrwt>
<totfact> 0.84974566E+04</totfact>
</mgrwt>
</event>
<event>
 5   1  0.1388354E+00  0.9128213E+02  0.7818608E-02  0.1299776E+00
         -1   -1    0    0    0  501 -0.00000000000E+00  0.00000000000E+00  0.30421917858E+03  0.30421917862E+03  0.46700000000E-02 0.  1.
          1   -1    0    0  501    0  0.00000000000E+00 -0.00000000000E+00 -0.68473867923E+01  0.68473883848E+01  0.46700000000E-02 0. -1.
         23    2    1    2    0    0  0.00000000000E+00  0.00000000000E+00  0.29737179179E+03  0.31106656701E+03  0.91282126151E+02 0.  0.
        -13    1    3    3    0    0 -0.40380113350E+02 -0.41873019551E+01  0.77610969617E+02  0.87587446756E+02  0.10570000000E+00 0. -1.
         13    1    3    3    0    0  0.40380113350E+02  0.41873019551E+01  0.21976082218E+03  0.22347912025E+03  0.10570000000E+00 0.  1.
<mgrwt>
<rscale>  0 0.91282126E+02</rscale>
<asrwt>0</asrwt>
<pdfrwt beam="2">  1        1 0.10534443E-02 0.91282126E+02</pdfrwt>
<pdfrwt beam="1">  1       -1 0.46802947E-01 0.91282126E+02</pdfrwt>
<totfact> 0.60070505E+04</totfact>
</mgrwt>
</event>
<event>
 5   1  0.1388354E+00  0.9022271E+02  0.7818608E-02  0.1302313E+00
          1   -1    0    0  501    0  0.00000000000E+00  0.00000000000E+00  0.19242301628E+02  0.19242302195E+02  0.46700000000E-02 0. -1.
         -1   -1    0    0    0  501 -0.00000000000E+00 -0.00000000000E+00 -0.10575836571E+03  0.10575836582E+03  0.46700000000E-02 0.  1.
         23    2    1    2    0    0  0.00000000000E+00  0.00000000000E+00 -0.86516064086E+02  0.12500066801E+03  0.90222711434E+02 0.  0.
        -13    1    3    3    0    0  0.21724856760E+00  0.43222679657E+02 -0.25365852527E+02  0.50116712588E+02  0.10570000000E+00 0.  1.
         13    1    3    3    0    0 -0.21724856760E+00 -0.43222679657E+02 -0.61150211560E+02  0.74883955424E+02  0.10570000000E+00 0. -1.
<mgrwt>
<rscale>  0 0.90222711E+02</rscale>
<asrwt>0</asrwt>
<pdfrwt beam="1">  1        1 0.29603542E-02 0.90222711E+02</pdfrwt>
<pdfrwt beam="2">  1       -1 0.16270518E-01 0.90222711E+02</pdfrwt>
<totfact> 0.82728178E+04</totfact>
</mgrwt>
</event>
<event>
 5   1  0.1388354E+00  0.9319686E+02  0.7818608E-02  0.1295290E+00
         -1   -1    0    0    0  501 -0.00000000000E+00  0.00000000000E+00  0.20972492230E+02  0.20972492750E+02  0.46700000000E-02 0.  1.
          1   -1    0    0  501    0  0.00000000000E+00 -0.00000000000E+00 -0.10353627080E+03  0.10353627090E+03  0.46700000000E-02 0. -1.
         23    2    1    2    0    0  0.00000000000E+00  0.00000000000E+00 -0.82563778567E+02  0.12450876365E+03  0.93196859899E+02 0.  0.
        -13    1    3    3    0    0  0.35409837378E+02  0.23947297889E+02 -0.66063175185E+02  0.78687254033E+02  0.10570000000E+00 0.  1.
         13    1    3    3    0    0 -0.35409837378E+02 -0.23947297889E+02 -0.16500603382E+02  0.45821509619E+02  0.10570000000E+00 0. -1.
<mgrwt>
<rscale>  0 0.93196860E+02</rscale>
<asrwt>0</asrwt>
<pdfrwt beam="2">  1        1 0.15928657E-01 0.93196860E+02</pdfrwt>
<pdfrwt beam="1">  1       -1 0.32265374E-02 0.93196860E+02</pdfrwt>
<totfact> 0.98959677E+04</totfact>
</mgrwt>
</event>
<event>
 5   1  0.1388354E+00  0.9069857E+02  0.7818608E-02  0.1301169E+00
          1   -1    0    0  501    0  0.00000000000E+00  0.00000000000E+00  0.37014412534E+02  0.37014412829E+02  0.46700000000E-02 0. -1.
         -1   -1    0    0    0  501 -0.00000000000E+00 -0.00000000000E+00 -0.55560994316E+02  0.55560994513E+02  0.46700000000E-02 0.  1.
         23    2    1    2    0    0  0.00000000000E+00  0.00000000000E+00 -0.18546581782E+02  0.92575407341E+02  0.90698568614E+02 0.  0.
        -13    1    3    3    0    0  0.96259017656E+01  0.27274760675E+02 -0.44924217087E+02  0.53430019727E+02  0.10570000000E+00 0.  1.
         13    1    3    3    0    0 -0.96259017656E+01 -0.27274760675E+02  0.26377635305E+02  0.39145387614E+02  0.10570000000E+00 0. -1.
<mgrwt>
<rscale>  0 0.90698569E+02</rscale>
<asrwt>0</asrwt>
<pdfrwt beam="1">  1        1 0.56945250E-02 0.90698569E+02</pdfrwt>
<pdfrwt beam="2">  1       -1 0.85478453E-02 0.90698569E+02</pdfrwt>
<totfact> 0.90940656E+04</totfact>
</mgrwt>
</event>
<event>
 5   1  0.1388354E+00  0.9143908E+02  0.7818608E-02  0.1299404E+00
          1   -1    0    0  501    0  0.00000000000E+00  0.00000000000E+00  0.54998893271E+02  0.54998893469E+02  0.46700000000E-02 0. -1.
         -1   -1    0    0    0  501 -0.00000000000E+00 -0.00000000000E+00 -0.38005788058E+02  0.38005788344E+02  0.46700000000E-02 0.  1.
         23    2    1    2    0    0  0.00000000000E+00  0.00000000000E+00  0.16993105214E+02  0.93004681814E+02  0.91439079252E+02 0.  0.
        -13    1    3    3    0    0  0.27056706721E+02  0.13747498940E+02 -0.26282559414E+02  0.40147767156E+02  0.10570000000E+00 0.  1.
         13    1    3    3    0    0 -0.27056706721E+02 -0.13747498940E+02  0.43275664628E+02  0.52856914658E+02  0.10570000000E+00 0. -1.
<mgrwt>
<rscale>  0 0.91439079E+02</rscale>
<asrwt>0</asrwt>
<pdfrwt beam="1">  1        1 0.84613682E-02 0.91439079E+02</pdfrwt>
<pdfrwt beam="2">  1       -1 0.58470444E-02 0.91439079E+02</pdfrwt>
<totfact> 0.94356608E+04</totfact>
</mgrwt>
</event>
<event>
 5   1  0.1388354E+00  0.8981454E+02  0.7818608E-02  0.1303301E+00
         -1   -1    0    0    0  501 -0.00000000000E+00  0.00000000000E+00  0.55812565249E+01  0.55812584786E+01  0.46700000000E-02 0.  1.
          1   -1    0    0  501    0  0.00000000000E+00 -0.00000000000E+00 -0.36132765356E+03  0.36132765359E+03  0.46700000000E-02 0. -1.
         23    2    1    2    0    0  0.00000000000E+00  0.00000000000E+00 -0.35574639703E+03  0.36690891207E+03  0.89814535305E+02 0.  0.
        -13    1    3    3    0    0  0.16635082502E+02  0.41677006593E+02 -0.18489290375E+03  0.19026059991E+03  0.10570000000E+00 0. -1.
         13    1    3    3    0    0 -0.16635082502E+02 -0.41677006593E+02 -0.17085349329E+03  0.17664831216E+03  0.10570000000E+00 0.  1.
<mgrwt>
<rscale>  0 0.89814535E+02</rscale>
<asrwt>0</asrwt>
<pdfrwt beam="2">  1        1 0.55588852E-01 0.89814535E+02</pdfrwt>
<pdfrwt beam="1">  1       -1 0.85865528E-03 0.89814535E+02</pdfrwt>
<totfact> 0.13798373E+05</totfact>
</mgrwt>
</event>
<event>
 5   1  0.1388354E+00  0.9696018E+02  0.7818608E-02  0.1286821E+00
         -1   -1    0    0    0  501 -0.00000000000E+00  0.00000000000E+00  0.97639370335E+02  0.97639370447E+02  0.46700000000E-02 0.  1.
          1   -1    0    0  501    0  0.00000000000E+00 -0.00000000000E+00 -0.24071429511E+02  0.24071429964E+02  0.46700000000E-02 0. -1.
         23    2    1    2    0    0  0.00000000000E+00  0.00000000000E+00  0.73567940824E+02  0.12171080041E+03  0.96960182651E+02 0.  0.
        -13    1    3    3    0    0  0.11135991504E+01  0.33854112933E+02  0.80321376787E+02  0.87171530944E+02  0.10570000000E+00 0.  1.
         13    1    3    3    0    0 -0.11135991504E+01 -0.33854112933E+02 -0.67534359633E+01  0.34539269468E+02  0.10570000000E+00 0. -1.
<mgrwt>
<rscale>  0 0.96960183E+02</rscale>
<asrwt>0</asrwt>
<pdfrwt beam="2">  1        1 0.37032968E-02 0.96960183E+02</pdfrwt>
<pdfrwt beam="1">  1       -1 0.15021442E-01 0.96960183E+02</pdfrwt>
<totfact> 0.69747741E+04</totfact>
</mgrwt>
</event>
<event>
 5   1  0.1388354E+00  0.8840605E+02  0.7818608E-02  0.1306758E+00
         -1   -1    0    0    0  501 -0.00000000000E+00  0.00000000000E+00  0.25598256026E+02  0.25598256452E+02  0.46700000000E-02 0. -1.
          1   -1    0    0  501    0  0.00000000000E+00 -0.00000000000E+00 -0.76329706326E+02  0.76329706469E+02  0.46700000000E-02 0.  1.
         23    2    1    2    0    0  0.00000000000E+00  0.00000000000E+00 -0.50731450300E+02  0.10192796292E+03  0.88406049428E+02 0.  0.
        -13    1    3    3    0    0  0.78523850151E+01  0.43241417768E+02 -0.30824447500E+02  0.53680889497E+02  0.10570000000E+00 0. -1.
         13    1    3    3    0    0 -0.78523850151E+01 -0.43241417768E+02 -0.19907002800E+02  0.48247073424E+02  0.10570000000E+00 0.  1.
<mgrwt>
<rscale>  0 0.88406049E+02</rscale>
<asrwt>0</asrwt>
<pdfrwt beam="2">  1        1 0.11743032E-01 0.88406049E+02</pdfrwt>
<pdfrwt beam="1">  1       -1 0.39381933E-02 0.88406049E+02</pdfrwt>
<totfact> 0.10883044E+05</totfact>
</mgrwt>
</event>
<event>
 5   1  0.1388354E+00  0.9284196E+02  0.7818608E-02  0.1296112E+00
         -1   -1    0    0    0  501 -0.00000000000E+00  0.00000000000E+00  0.60778961211E+02  0.60778961390E+02  0.46700000000E-02 0.  1.
          1   -1    0    0  501    0  0.00000000000E+00 -0.00000000000E+00 -0.35454823952E+02  0.35454824260E+02  0.46700000000E-02 0. -1.
         23    2    1    2    0    0  0.00000000000E+00  0.00000000000E+00  0.25324137258E+02  0.96233785650E+02  0.92841960194E+02 0.  0.
        -13    1    3    3    0    0 -0.35701928403E+02 -0.12037074405E+02  0.40770615817E+02  0.55513720273E+02  0.10570000000E+00 0.  1.
         13    1    3    3    0    0  0.35701928403E+02  0.12037074405E+02 -0.15446478559E+02  0.40720065377E+02  0.10570000000E+00 0. -1.
<mgrwt>
<rscale>  0 0.92841960E+02</rscale>
<asrwt>0</asrwt>
<pdfrwt beam="2">  1        1 0.54545884E-02 0.92841960E+02</pdfrwt>
<pdfrwt beam="1">  1       -1 0.93506094E-02 0.92841960E+02</pdfrwt>
<totfact> 0.84527112E+04</totfact>
</mgrwt>
</event>
<event>
 5   1  0.1388354E+00  0.9002801E+02  0.7818608E-02  0.1302784E+00
          1   -1    0    0  501    0  0.00000000000E+00  0.00000000000E+00  0.20812342041E+03  0.20812342047E+03  0.46700000000E-02 0. -1.
         -1   -1    0    0    0  501 -0.00000000000E+00 -0.00000000000E+00 -0.97358597843E+01  0.97358609043E+01  0.46700000000E-02 0.  1.
         23    2    1    2    0    0  0.00000000000E+00  0.00000000000E+00  0.19838756063E+03  0.21785928137E+03  0.90028008235E+02 0.  0.
        -13    1    3    3    0    0 -0.30020259961E+02 -0.18062365569E+02  0.30800537700E+02  0.46649215998E+02  0.10570000000E+00 0.  1.
         13    1    3    3    0    0  0.30020259961E+02  0.18062365569E+02  0.16758702293E+03  0.17121006537E+03  0.10570000000E+00 0. -1.
<mgrwt>
<rscale>  0 0.90028008E+02</rscale>
<asrwt>0</asrwt>
<pdfrwt beam="1">  1        1 0.32018988E-01 0.90028008E+02</pdfrwt>
<pdfrwt beam="2">  1       -1 0.14978247E-02 0.90028008E+02</pdfrwt>
<totfact> 0.12344473E+05</totfact>
</mgrwt>
</event>
<event>
 5   1  0.1388354E+00  0.9151056E+02  0.7818608E-02  0.1299234E+00
          1   -1    0    0  501    0  0.00000000000E+00  0.00000000000E+00  0.60477942222E+02  0.60477942402E+02  0.46700000000E-02 0. -1.
         -1   -1    0    0    0  501 -0.00000000000E+00 -0.00000000000E+00 -0.34616677889E+02  0.34616678204E+02  0.46700000000E-02 0.  1.
         23    2    1    2    0    0  0.00000000000E+00  0.00000000000E+00  0.25861264333E+02  0.95094620606E+02  0.91510556087E+02 0.  0.
        -13    1    3    3    0    0  0.40813408499E+01  0.36102486440E+02 -0.15970268992E+02  0.39687624450E+02  0.10570000000E+00 0.  1.
         13    1    3    3    0    0 -0.40813408499E+01 -0.36102486440E+02  0.41831533324E+02  0.55406996156E+02  0.10570000000E+00 0. -1.
<mgrwt>
<rscale>  0 0.91510556E+02</rscale>
<asrwt>0</asrwt>
<pdfrwt beam="1">  1        1 0.93042988E-02 0.91510556E+02</pdfrwt>
<pdfrwt beam="2">  1       -1 0.53256428E-02 0.91510556E+02</pdfrwt>
<totfact> 0.95513314E+04</totfact>
</mgrwt>
</event>
<event>
 5   1  0.1388354E+00  0.9558667E+02  0.7818608E-02  0.1289860E+00
          1   -1    0    0  501    0  0.00000000000E+00  0.00000000000E+00  0.72938659393E+02  0.72938659543E+02  0.46700000000E-02 0. -1.
         -1   -1    0    0    0  501 -0.00000000000E+00 -0.00000000000E+00 -0.31316763346E+02  0.31316763695E+02  0.46700000000E-02 0.  1.
         23    2    1    2    0    0  0.00000000000E+00  0.00000000000E+00  0.41621896047E+02  0.10425542324E+03  0.95586667710E+02 0.  0.
        -13    1    3    3    0    0 -0.22449980165E+02  0.34578813713E+02  0.47179845094E+02  0.62654967263E+02  0.10570000000E+00 0. -1.
         13    1    3    3    0    0  0.22449980165E+02 -0.34578813713E+02 -0.55579490467E+01  0.41600455974E+02  0.10570000000E+00 0.  1.
<mgrwt>
<rscale>  0 0.95586668E+02</rscale>
<asrwt>0</asrwt>
<pdfrwt beam="1">  1        1 0.11221332E-01 0.95586668E+02</pdfrwt>
<pdfrwt beam="2">  1       -1 0.48179637E-02 0.95586668E+02</pdfrwt>
<totfact> 0.87138445E+04</totfact>
</mgrwt>
</event>
<event>
 5   1  0.1388354E+00  0.9346993E+02  0.7818608E-02  0.1294660E+00
          1   -1    0    0  501    0  0.00000000000E+00  0.00000000000E+00  0.42100966259E+03  0.42100966262E+03  0.46700000000E-02 0. -1.
         -1   -1    0    0    0  501 -0.00000000000E+00 -0.00000000000E+00 -0.51879008280E+01  0.51879029299E+01  0.46700000000E-02 0.  1.
         23    2    1    2    0    0  0.00000000000E+00  0.00000000000E+00  0.41582176176E+03  0.42619756555E+03  0.93469927369E+02 0.  0.
        -13    1    3    3    0    0  0.43596007388E+02  0.13073656368E+02  0.15952329940E+03  0.16588919970E+03  0.10570000000E+00 0.  1.
         13    1    3    3    0    0 -0.43596007388E+02 -0.13073656368E+02  0.25629846236E+03  0.26030836585E+03  0.10570000000E+00 0. -1.
<mgrwt>
<rscale>  0 0.93469927E+02</rscale>
<asrwt>0</asrwt>
<pdfrwt beam="1">  1        1 0.64770705E-01 0.93469927E+02</pdfrwt>
<pdfrwt beam="2">  1       -1 0.79813891E-03 0.93469927E+02</pdfrwt>
<totfact> 0.12730843E+05</totfact>
</mgrwt>
</event>
<event>
 5   1  0.1388354E+00  0.9021251E+02  0.7818608E-02  0.1302338E+00
          1   -1    0    0  501    0  0.00000000000E+00  0.00000000000E+00  0.84849387061E+02  0.84849387189E+02  0.46700000000E-02 0.  1.
         -1   -1    0    0    0  501 -0.00000000000E+00 -0.00000000000E+00 -0.23978655722E+02  0.23978656177E+02  0.46700000000E-02 0. -1.
         23    2    1    2    0    0  0.00000000000E+00  0.00000000000E+00  0.60870731338E+02  0.10882804337E+03  0.90212510714E+02 0.  0.
        -13    1    3    3    0    0 -0.40748502467E+02  0.18688397252E+01  0.53659759394E+02  0.67404109414E+02  0.10570000000E+00 0.  1.
         13    1    3    3    0    0  0.40748502467E+02 -0.18688397252E+01  0.72109719446E+01  0.41423933952E+02  0.10570000000E+00 0. -1.
<mgrwt>
<rscale>  0 0.90212511E+02</rscale>
<asrwt>0</asrwt>
<pdfrwt beam="1">  1        1 0.13053752E-01 0.90212511E+02</pdfrwt>
<pdfrwt beam="2">  1       -1 0.36890240E-02 0.90212511E+02</pdfrwt>
<totfact> 0.10469183E+05</totfact>
</mgrwt>
</event>
<event>
 5   1  0.1388354E+00  0.1209292E+03  0.7818608E-02  0.1241572E+00
          1   -1    0    0  501    0  0.00000000000E+00  0.00000000000E+00  0.24142849134E+03  0.24142849138E+03  0.46700000000E-02 0. -1.
         -1   -1    0    0    0  501 -0.00000000000E+00 -0.00000000000E+00 -0.15143078920E+02  0.15143079640E+02  0.46700000000E-02 0.  1.
         23    2    1    2    0    0  0.00000000000E+00  0.00000000000E+00  0.22628541242E+03  0.25657157102E+03  0.12092924867E+03 0.  0.
        -13    1    3    3    0    0  0.47813404794E+02 -0.34249694273E+02  0.14290632545E+03  0.15453605489E+03  0.10570000000E+00 0.  1.
         13    1    3    3    0    0 -0.47813404794E+02  0.34249694273E+02  0.83379086967E+02  0.10203551613E+03  0.10570000000E+00 0. -1.
<mgrwt>
<rscale>  0 0.12092925E+03</rscale>
<asrwt>0</asrwt>
<pdfrwt beam="1">  1        1 0.37142844E-01 0.12092925E+03</pdfrwt>
<pdfrwt beam="2">  1       -1 0.23297046E-02 0.12092925E+03</pdfrwt>
<totfact> 0.57045453E+04</totfact>
</mgrwt>
</event>
<event>
 5   1  0.1388354E+00  0.9112717E+02  0.7818608E-02  0.1300145E+00
          1   -1    0    0  501    0  0.00000000000E+00  0.00000000000E+00  0.46838244862E+02  0.46838245095E+02  0.46700000000E-02 0. -1.
         -1   -1    0    0    0  501 -0.00000000000E+00 -0.00000000000E+00 -0.44323614408E+02  0.44323614654E+02  0.46700000000E-02 0.  1.
         23    2    1    2    0    0  0.00000000000E+00  0.00000000000E+00  0.25146304547E+01  0.91161859749E+02  0.91127171066E+02 0.  0.
        -13    1    3    3    0    0 -0.28763392682E+02  0.29441312728E+02 -0.18292526456E+02  0.45041662385E+02  0.10570000000E+00 0.  1.
         13    1    3    3    0    0  0.28763392682E+02 -0.29441312728E+02  0.20807156911E+02  0.46120197364E+02  0.10570000000E+00 0. -1.
<mgrwt>
<rscale>  0 0.91127171E+02</rscale>
<asrwt>0</asrwt>
<pdfrwt beam="1">  1        1 0.72058839E-02 0.91127171E+02</pdfrwt>
<pdfrwt beam="2">  1       -1 0.68190176E-02 0.91127171E+02</pdfrwt>
<totfact> 0.92990992E+04</totfact>
</mgrwt>
</event>
<event>
 5   1  0.1388354E+00  0.1081938E+03  0.7818608E-02  0.1263952E+00
         -1   -1    0    0    0  501 -0.00000000000E+00  0.00000000000E+00  0.21833497791E+02  0.21833498290E+02  0.46700000000E-02 0.  1.
          1   -1    0    0  501    0  0.00000000000E+00 -0.00000000000E+00 -0.13403610537E+03  0.13403610546E+03  0.46700000000E-02 0. -1.
         23    2    1    2    0    0  0.00000000000E+00  0.00000000000E+00 -0.11220260758E+03  0.15586960375E+03  0.10819384559E+03 0.  0.
        -13    1    3    3    0    0 -0.13357047889E+02  0.41054121751E+02 -0.91392923326E+01  0.44129236090E+02  0.10570000000E+00 0.  1.
         13    1    3    3    0    0  0.13357047889E+02 -0.41054121751E+02 -0.10306331525E+03  0.11174036766E+03  0.10570000000E+00 0. -1.
<mgrwt>
<rscale>  0 0.10819385E+03</rscale>
<asrwt>0</asrwt>
<pdfrwt beam="2">  1        1 0.20620939E-01 0.10819385E+03</pdfrwt>
<pdfrwt beam="1">  1       -1 0.33589998E-02 0.10819385E+03</pdfrwt>
<totfact> 0.68808549E+04</totfact>
</mgrwt>
</event>
<event>
 5   1  0.1388354E+00  0.9143871E+02  0.7818608E-02  0.1299405E+00
         -1   -1    0    0    0  501 -0.00000000000E+00  0.00000000000E+00  0.25425815705E+02  0.25425816134E+02  0.46700000000E-02 0.  1.
          1   -1    0    0  501    0  0.00000000000E+00 -0.00000000000E+00 -0.82210117891E+02  0.82210118024E+02  0.46700000000E-02 0. -1.
         23    2    1    2    0    0  0.00000000000E+00  0.00000000000E+00 -0.56784302186E+02  0.10763593416E+03  0.91438708146E+02 0.  0.
        -13    1    3    3    0    0  0.27464976558E+02 -0.14287257082E+01 -0.71383978321E+02  0.76498691021E+02  0.10570000000E+00 0. -1.
         13    1    3    3    0    0 -0.27464976558E+02  0.14287257082E+01  0.14599676135E+02  0.31137243138E+02  0.10570000000E+00 0.  1.
<mgrwt>
<rscale>  0 0.91438708E+02</rscale>
<asrwt>0</asrwt>
<pdfrwt beam="2">  1        1 0.12647710E-01 0.91438708E+02</pdfrwt>
<pdfrwt beam="1">  1       -1 0.39116640E-02 0.91438708E+02</pdfrwt>
<totfact> 0.10038607E+05</totfact>
</mgrwt>
</event>
<event>
 5   1  0.1388354E+00  0.9234413E+02  0.7818608E-02  0.1297272E+00
          1   -1    0    0  501    0  0.00000000000E+00  0.00000000000E+00  0.43524472357E+02  0.43524472607E+02  0.46700000000E-02 0. -1.
         -1   -1    0    0    0  501 -0.00000000000E+00 -0.00000000000E+00 -0.48980710647E+02  0.48980710870E+02  0.46700000000E-02 0.  1.
         23    2    1    2    0    0  0.00000000000E+00  0.00000000000E+00 -0.54562382906E+01  0.92505183477E+02  0.92344130479E+02 0.  0.
        -13    1    3    3    0    0  0.28931694968E+01  0.22910092251E+02  0.37324179737E+02  0.43890184806E+02  0.10570000000E+00 0. -1.
         13    1    3    3    0    0 -0.28931694968E+01 -0.22910092251E+02 -0.42780418028E+02  0.48614998672E+02  0.10570000000E+00 0.  1.
<mgrwt>
<rscale>  0 0.92344130E+02</rscale>
<asrwt>0</asrwt>
<pdfrwt beam="1">  1        1 0.66960727E-02 0.92344130E+02</pdfrwt>
<pdfrwt beam="2">  1       -1 0.75354939E-02 0.92344130E+02</pdfrwt>
<totfact> 0.88595026E+04</totfact>
</mgrwt>
</event>
<event>
 5   1  0.1388354E+00  0.9243677E+02  0.7818608E-02  0.1297056E+00
          1   -1    0    0  501    0  0.00000000000E+00  0.00000000000E+00  0.52845004041E+02  0.52845004247E+02  0.46700000000E-02 0. -1.
         -1   -1    0    0    0  501 -0.00000000000E+00 -0.00000000000E+00 -0.40422727595E+02  0.40422727865E+02  0.46700000000E-02 0.  1.
         23    2    1    2    0    0  0.00000000000E+00  0.00000000000E+00  0.12422276446E+02  0.93267732112E+02  0.92436772451E+02 0.  0.
        -13    1    3    3    0    0  0.23294905925E+02  0.21176111573E+02  0.40353883237E+02  0.51181318938E+02  0.10570000000E+00 0. -1.
         13    1    3    3    0    0 -0.23294905925E+02 -0.21176111573E+02 -0.27931606791E+02  0.42086413174E+02  0.10570000000E+00 0.  1.
<mgrwt>
<rscale>  0 0.92436772E+02</rscale>
<asrwt>0</asrwt>
<pdfrwt beam="1">  1        1 0.81300006E-02 0.92436772E+02</pdfrwt>
<pdfrwt beam="2">  1       -1 0.62188812E-02 0.92436772E+02</pdfrwt>
<totfact> 0.90989181E+04</totfact>
</mgrwt>
</event>
<event>
 5   1  0.1388354E+00  0.8871703E+02  0.7818608E-02  0.1305989E+00
          1   -1    0    0  501    0  0.00000000000E+00  0.00000000000E+00  0.11993290152E+02  0.11993291061E+02  0.46700000000E-02 0. -1.
         -1   -1    0    0    0  501 -0.00000000000E+00 -0.00000000000E+00 -0.16406488408E+03  0.16406488414E+03  0.46700000000E-02 0.  1.
         23    2    1    2    0    0  0.00000000000E+00  0.00000000000E+00 -0.15207159393E+03  0.17605817521E+03  0.88717029805E+02 0.  0.
        -13    1    3    3    0    0  0.34224582873E+02  0.14222088782E+02 -0.27666419788E+02  0.46249668524E+02  0.10570000000E+00 0. -1.
         13    1    3    3    0    0 -0.34224582873E+02 -0.14222088782E+02 -0.12440517414E+03  0.12980850668E+03  0.10570000000E+00 0.  1.
<mgrwt>
<rscale>  0 0.88717030E+02</rscale>
<asrwt>0</asrwt>
<pdfrwt beam="1">  1        1 0.18451218E-02 0.88717030E+02</pdfrwt>
<pdfrwt beam="2">  1       -1 0.25240750E-01 0.88717030E+02</pdfrwt>
<totfact> 0.78572162E+04</totfact>
</mgrwt>
</event>
<event>
 5   1  0.1388354E+00  0.9145250E+02  0.7818608E-02  0.1299372E+00
          1   -1    0    0  501    0  0.00000000000E+00  0.00000000000E+00  0.10215449982E+03  0.10215449993E+03  0.46700000000E-02 0. -1.
         -1   -1    0    0    0  501 -0.00000000000E+00 -0.00000000000E+00 -0.20467918520E+02  0.20467919053E+02  0.46700000000E-02 0.  1.
         23    2    1    2    0    0  0.00000000000E+00  0.00000000000E+00  0.81686581302E+02  0.12262241898E+03  0.91452501727E+02 0.  0.
        -13    1    3    3    0    0  0.35197726272E+02 -0.18319368424E+02  0.10373655134E+02  0.41013450080E+02  0.10570000000E+00 0.  1.
         13    1    3    3    0    0 -0.35197726272E+02  0.18319368424E+02  0.71312926168E+02  0.81608968902E+02  0.10570000000E+00 0. -1.
<mgrwt>
<rscale>  0 0.91452502E+02</rscale>
<asrwt>0</asrwt>
<pdfrwt beam="1">  1        1 0.15716077E-01 0.91452502E+02</pdfrwt>
<pdfrwt beam="2">  1       -1 0.31489107E-02 0.91452502E+02</pdfrwt>
<totfact> 0.10396396E+05</totfact>
</mgrwt>
</event>
<event>
 5   1  0.1388354E+00  0.8871471E+02  0.7818608E-02  0.1305994E+00
         -1   -1    0    0    0  501 -0.00000000000E+00  0.00000000000E+00  0.47590782092E+01  0.47590805005E+01  0.46700000000E-02 0.  1.
          1   -1    0    0  501    0  0.00000000000E+00 -0.00000000000E+00 -0.41343605486E+03  0.41343605488E+03  0.46700000000E-02 0. -1.
         23    2    1    2    0    0  0.00000000000E+00  0.00000000000E+00 -0.40867697665E+03  0.41819513539E+03  0.88714711389E+02 0.  0.
        -13    1    3    3    0    0 -0.23955731313E+02 -0.35986335509E+02 -0.15751359104E+03  0.16333840927E+03  0.10570000000E+00 0.  1.
         13    1    3    3    0    0  0.23955731313E+02  0.35986335509E+02 -0.25116338561E+03  0.25485672612E+03  0.10570000000E+00 0. -1.
<mgrwt>
<rscale>  0 0.88714711E+02</rscale>
<asrwt>0</asrwt>
<pdfrwt beam="2">  1        1 0.63605519E-01 0.88714711E+02</pdfrwt>
<pdfrwt beam="1">  1       -1 0.73216638E-03 0.88714711E+02</pdfrwt>
<totfact> 0.14581422E+05</totfact>
</mgrwt>
</event>
<event>
 5   1  0.1388354E+00  0.9488967E+02  0.7818608E-02  0.1291425E+00
         -1   -1    0    0    0  501 -0.00000000000E+00  0.00000000000E+00  0.12463301101E+02  0.12463301975E+02  0.46700000000E-02 0.  1.
          1   -1    0    0  501    0  0.00000000000E+00 -0.00000000000E+00 -0.18061122289E+03  0.18061122295E+03  0.46700000000E-02 0. -1.
         23    2    1    2    0    0  0.00000000000E+00  0.00000000000E+00 -0.16814792179E+03  0.19307452493E+03  0.94889665261E+02 0.  0.
        -13    1    3    3    0    0  0.21583650196E+02 -0.23142968624E+02 -0.12148462007E+02  0.33897599534E+02  0.10570000000E+00 0.  1.
         13    1    3    3    0    0 -0.21583650196E+02  0.23142968624E+02 -0.15599945978E+03  0.15917692539E+03  0.10570000000E+00 0. -1.
<mgrwt>
<rscale>  0 0.94889665E+02</rscale>
<asrwt>0</asrwt>
<pdfrwt beam="2">  1        1 0.27786340E-01 0.94889665E+02</pdfrwt>
<pdfrwt beam="1">  1       -1 0.19174311E-02 0.94889665E+02</pdfrwt>
<totfact> 0.10426100E+05</totfact>
</mgrwt>
</event>
<event>
 5   1  0.1388354E+00  0.9144905E+02  0.7818608E-02  0.1299380E+00
          1   -1    0    0  501    0  0.00000000000E+00  0.00000000000E+00  0.34430241954E+02  0.34430242271E+02  0.46700000000E-02 0. -1.
         -1   -1    0    0    0  501 -0.00000000000E+00 -0.00000000000E+00 -0.60723712083E+02  0.60723712263E+02  0.46700000000E-02 0.  1.
         23    2    1    2    0    0  0.00000000000E+00  0.00000000000E+00 -0.26293470129E+02  0.95153954533E+02  0.91449048611E+02 0.  0.
        -13    1    3    3    0    0 -0.61331022138E+01  0.43925642184E+02 -0.15767149336E+01  0.44379884931E+02  0.10570000000E+00 0. -1.
         13    1    3    3    0    0  0.61331022138E+01 -0.43925642184E+02 -0.24716755196E+02  0.50774069602E+02  0.10570000000E+00 0.  1.
<mgrwt>
<rscale>  0 0.91449049E+02</rscale>
<asrwt>0</asrwt>
<pdfrwt beam="1">  1        1 0.52969603E-02 0.91449049E+02</pdfrwt>
<pdfrwt beam="2">  1       -1 0.93421096E-02 0.91449049E+02</pdfrwt>
<totfact> 0.87847375E+04</totfact>
</mgrwt>
</event>
<event>
 5   1  0.1388354E+00  0.9171898E+02  0.7818608E-02  0.1298742E+00
          1   -1    0    0  501    0  0.00000000000E+00  0.00000000000E+00  0.84952503278E+02  0.84952503406E+02  0.46700000000E-02 0. -1.
         -1   -1    0    0    0  501 -0.00000000000E+00 -0.00000000000E+00 -0.24756101380E+02  0.24756101820E+02  0.46700000000E-02 0.  1.
         23    2    1    2    0    0  0.00000000000E+00  0.00000000000E+00  0.60196401898E+02  0.10970860523E+03  0.91718979820E+02 0.  0.
        -13    1    3    3    0    0  0.29655188410E+02 -0.15699082662E+02 -0.72931399677E+01  0.34337915765E+02  0.10570000000E+00 0.  1.
         13    1    3    3    0    0 -0.29655188410E+02  0.15699082662E+02  0.67489541866E+02  0.75370689461E+02  0.10570000000E+00 0. -1.
<mgrwt>
<rscale>  0 0.91718980E+02</rscale>
<asrwt>0</asrwt>
<pdfrwt beam="1">  1        1 0.13069616E-01 0.91718980E+02</pdfrwt>
<pdfrwt beam="2">  1       -1 0.38086311E-02 0.91718980E+02</pdfrwt>
<totfact> 0.10006942E+05</totfact>
</mgrwt>
</event>
<event>
 5   1  0.1388354E+00  0.9393303E+02  0.7818608E-02  0.1293597E+00
         -1   -1    0    0    0  501 -0.00000000000E+00  0.00000000000E+00  0.11182090017E+02  0.11182090993E+02  0.46700000000E-02 0.  1.
          1   -1    0    0  501    0  0.00000000000E+00 -0.00000000000E+00 -0.19726664288E+03  0.19726664293E+03  0.46700000000E-02 0. -1.
         23    2    1    2    0    0  0.00000000000E+00  0.00000000000E+00 -0.18608455286E+03  0.20844873392E+03  0.93933028600E+02 0.  0.
        -13    1    3    3    0    0 -0.23285653867E+02  0.40738186086E+02 -0.88592504143E+02  0.10025200469E+03  0.10570000000E+00 0. -1.
         13    1    3    3    0    0  0.23285653867E+02 -0.40738186086E+02 -0.97492048715E+02  0.10819672923E+03  0.10570000000E+00 0.  1.
<mgrwt>
<rscale>  0 0.93933029E+02</rscale>
<asrwt>0</asrwt>
<pdfrwt beam="2">  1        1 0.30348712E-01 0.93933029E+02</pdfrwt>
<pdfrwt beam="1">  1       -1 0.17203218E-02 0.93933029E+02</pdfrwt>
<totfact> 0.10900289E+05</totfact>
</mgrwt>
</event>
<event>
 5   1  0.1388354E+00  0.9197224E+02  0.7818608E-02  0.1298145E+00
          1   -1    0    0  501    0  0.00000000000E+00  0.00000000000E+00  0.50118946789E+02  0.50118947007E+02  0.46700000000E-02 0. -1.
         -1   -1    0    0    0  501 -0.00000000000E+00 -0.00000000000E+00 -0.42194089890E+02  0.42194090148E+02  0.46700000000E-02 0.  1.
         23    2    1    2    0    0  0.00000000000E+00  0.00000000000E+00  0.79248568997E+01  0.92313037155E+02  0.91972242942E+02 0.  0.
        -13    1    3    3    0    0  0.35771064079E+02 -0.68840902180E+01 -0.24208499266E+02  0.43738110758E+02  0.10570000000E+00 0.  1.
         13    1    3    3    0    0 -0.35771064079E+02  0.68840902180E+01  0.32133356165E+02  0.48574926397E+02  0.10570000000E+00 0. -1.
<mgrwt>
<rscale>  0 0.91972243E+02</rscale>
<asrwt>0</asrwt>
<pdfrwt beam="1">  1        1 0.77106072E-02 0.91972243E+02</pdfrwt>
<pdfrwt beam="2">  1       -1 0.64913985E-02 0.91972243E+02</pdfrwt>
<totfact> 0.91543942E+04</totfact>
</mgrwt>
</event>
<event>
 5   1  0.1388354E+00  0.9046570E+02  0.7818608E-02  0.1301728E+00
         -1   -1    0    0    0  501 -0.00000000000E+00  0.00000000000E+00  0.58505964075E+02  0.58505964261E+02  0.46700000000E-02 0.  1.
          1   -1    0    0  501    0  0.00000000000E+00 -0.00000000000E+00 -0.34970977621E+02  0.34970977933E+02  0.46700000000E-02 0. -1.
         23    2    1    2    0    0  0.00000000000E+00  0.00000000000E+00  0.23534986454E+02  0.93476942194E+02  0.90465701427E+02 0.  0.
        -13    1    3    3    0    0 -0.30157482542E+02  0.33159663848E+02  0.18049545026E+02  0.48320123219E+02  0.10570000000E+00 0.  1.
         13    1    3    3    0    0  0.30157482542E+02 -0.33159663848E+02  0.54854414273E+01  0.45156818975E+02  0.10570000000E+00 0. -1.
<mgrwt>
<rscale>  0 0.90465701E+02</rscale>
<asrwt>0</asrwt>
<pdfrwt beam="2">  1        1 0.53801505E-02 0.90465701E+02</pdfrwt>
<pdfrwt beam="1">  1       -1 0.90009175E-02 0.90465701E+02</pdfrwt>
<totfact> 0.90810749E+04</totfact>
</mgrwt>
</event>
<event>
 5   1  0.1388354E+00  0.9211925E+02  0.7818608E-02  0.1297799E+00
         -1   -1    0    0    0  501 -0.00000000000E+00  0.00000000000E+00  0.40032450975E+02  0.40032451247E+02  0.46700000000E-02 0.  1.
          1   -1    0    0  501    0  0.00000000000E+00 -0.00000000000E+00 -0.52994228567E+02  0.52994228773E+02  0.46700000000E-02 0. -1.
         23    2    1    2    0    0  0.00000000000E+00  0.00000000000E+00 -0.12961777592E+02  0.93026680020E+02  0.92119246183E+02 0.  0.
        -13    1    3    3    0    0  0.22049136584E+02 -0.26514441800E+02  0.24353436036E+02  0.42217070805E+02  0.10570000000E+00 0.  1.
         13    1    3    3    0    0 -0.22049136584E+02  0.26514441800E+02 -0.37315213628E+02  0.50809609216E+02  0.10570000000E+00 0. -1.
<mgrwt>
<rscale>  0 0.92119246E+02</rscale>
<asrwt>0</asrwt>
<pdfrwt beam="2">  1        1 0.81529583E-02 0.92119246E+02</pdfrwt>
<pdfrwt beam="1">  1       -1 0.61588386E-02 0.92119246E+02</pdfrwt>
<totfact> 0.91908188E+04</totfact>
</mgrwt>
</event>
<event>
 5   1  0.1388354E+00  0.9247898E+02  0.7818608E-02  0.1296957E+00
          1   -1    0    0  501    0  0.00000000000E+00  0.00000000000E+00  0.44293856738E+03  0.44293856740E+03  0.46700000000E-02 0. -1.
         -1   -1    0    0    0  501 -0.00000000000E+00 -0.00000000000E+00 -0.48270572010E+01  0.48270594600E+01  0.46700000000E-02 0.  1.
         23    2    1    2    0    0  0.00000000000E+00  0.00000000000E+00  0.43811151018E+03  0.44776562686E+03  0.92478977341E+02 0.  0.
        -13    1    3    3    0    0 -0.36114969865E+02 -0.27331891019E+02  0.17395777869E+03  0.17975717859E+03  0.10570000000E+00 0.  1.
         13    1    3    3    0    0  0.36114969865E+02  0.27331891019E+02  0.26415373149E+03  0.26800844828E+03  0.10570000000E+00 0. -1.
<mgrwt>
<rscale>  0 0.92478977E+02</rscale>
<asrwt>0</asrwt>
<pdfrwt beam="1">  1        1 0.68144384E-01 0.92478977E+02</pdfrwt>
<pdfrwt beam="2">  1       -1 0.74262448E-03 0.92478977E+02</pdfrwt>
<totfact> 0.13197900E+05</totfact>
</mgrwt>
</event>
<event>
 5   1  0.1388354E+00  0.9111153E+02  0.7818608E-02  0.1300182E+00
          1   -1    0    0  501    0  0.00000000000E+00  0.00000000000E+00  0.29893046240E+02  0.29893046604E+02  0.46700000000E-02 0. -1.
         -1   -1    0    0    0  501 -0.00000000000E+00 -0.00000000000E+00 -0.69425100882E+02  0.69425101039E+02  0.46700000000E-02 0.  1.
         23    2    1    2    0    0  0.00000000000E+00  0.00000000000E+00 -0.39532054642E+02  0.99318147643E+02  0.91111531142E+02 0.  0.
        -13    1    3    3    0    0 -0.19626223911E+02  0.36847140411E+02 -0.39640533428E+02  0.57569814004E+02  0.10570000000E+00 0.  1.
         13    1    3    3    0    0  0.19626223911E+02 -0.36847140411E+02  0.10847878588E+00  0.41748333639E+02  0.10570000000E+00 0. -1.
<mgrwt>
<rscale>  0 0.91111531E+02</rscale>
<asrwt>0</asrwt>
<pdfrwt beam="1">  1        1 0.45989303E-02 0.91111531E+02</pdfrwt>
<pdfrwt beam="2">  1       -1 0.10680785E-01 0.91111531E+02</pdfrwt>
<totfact> 0.86813241E+04</totfact>
</mgrwt>
</event>
<event>
 5   1  0.1388354E+00  0.9292669E+02  0.7818608E-02  0.1295915E+00
         -1   -1    0    0    0  501 -0.00000000000E+00  0.00000000000E+00  0.64223103749E+01  0.64223120728E+01  0.46700000000E-02 0.  1.
          1   -1    0    0  501    0  0.00000000000E+00 -0.00000000000E+00 -0.33614730597E+03  0.33614730600E+03  0.46700000000E-02 0. -1.
         23    2    1    2    0    0  0.00000000000E+00  0.00000000000E+00 -0.32972499559E+03  0.34256961807E+03  0.92926694270E+02 0.  0.
        -13    1    3    3    0    0 -0.45077294789E+02 -0.10451961539E+02 -0.18033920086E+03  0.18618121426E+03  0.10570000000E+00 0.  1.
         13    1    3    3    0    0  0.45077294789E+02  0.10451961539E+02 -0.14938579474E+03  0.15638840381E+03  0.10570000000E+00 0. -1.
<mgrwt>
<rscale>  0 0.92926694E+02</rscale>
<asrwt>0</asrwt>
<pdfrwt beam="2">  1        1 0.51714957E-01 0.92926694E+02</pdfrwt>
<pdfrwt beam="1">  1       -1 0.98804814E-03 0.92926694E+02</pdfrwt>
<totfact> 0.12441040E+05</totfact>
</mgrwt>
</event>
<event>
 5   1  0.1388354E+00  0.9098163E+02  0.7818608E-02  0.1300492E+00
          1   -1    0    0  501    0  0.00000000000E+00  0.00000000000E+00  0.63655392670E+02  0.63655392841E+02  0.46700000000E-02 0. -1.
         -1   -1    0    0    0  501 -0.00000000000E+00 -0.00000000000E+00 -0.32509647059E+02  0.32509647394E+02  0.46700000000E-02 0.  1.
         23    2    1    2    0    0  0.00000000000E+00  0.00000000000E+00  0.31145745610E+02  0.96165040235E+02  0.90981632728E+02 0.  0.
        -13    1    3    3    0    0  0.18973911351E+02  0.17107131166E+02  0.55356883410E+02  0.60967687853E+02  0.10570000000E+00 0. -1.
         13    1    3    3    0    0 -0.18973911351E+02 -0.17107131166E+02 -0.24211137800E+02  0.35197352383E+02  0.10570000000E+00 0.  1.
<mgrwt>
<rscale>  0 0.90981633E+02</rscale>
<asrwt>0</asrwt>
<pdfrwt beam="1">  1        1 0.97931373E-02 0.90981633E+02</pdfrwt>
<pdfrwt beam="2">  1       -1 0.50014842E-02 0.90981633E+02</pdfrwt>
<totfact> 0.97819095E+04</totfact>
</mgrwt>
</event>
<event>
 5   1  0.1388354E+00  0.9028934E+02  0.7818608E-02  0.1302153E+00
         -1   -1    0    0    0  501 -0.00000000000E+00  0.00000000000E+00  0.77203129168E+01  0.77203143292E+01  0.46700000000E-02 0.  1.
          1   -1    0    0  501    0  0.00000000000E+00 -0.00000000000E+00 -0.26398425979E+03  0.26398425983E+03  0.46700000000E-02 0. -1.
         23    2    1    2    0    0  0.00000000000E+00  0.00000000000E+00 -0.25626394687E+03  0.27170457416E+03  0.90289341301E+02 0.  0.
        -13    1    3    3    0    0 -0.19675371873E+02  0.40451325301E+02 -0.11663353258E+03  0.12500728807E+03  0.10570000000E+00 0.  1.
         13    1    3    3    0    0  0.19675371873E+02 -0.40451325301E+02 -0.13963041429E+03  0.14669728608E+03  0.10570000000E+00 0. -1.
<mgrwt>
<rscale>  0 0.90289341E+02</rscale>
<asrwt>0</asrwt>
<pdfrwt beam="2">  1        1 0.40612956E-01 0.90289341E+02</pdfrwt>
<pdfrwt beam="1">  1       -1 0.11877408E-02 0.90289341E+02</pdfrwt>
<totfact> 0.12829434E+05</totfact>
</mgrwt>
</event>
<event>
 5   1  0.1388354E+00  0.9065992E+02  0.7818608E-02  0.1301261E+00
         -1   -1    0    0    0  501 -0.00000000000E+00  0.00000000000E+00  0.17109089298E+02  0.17109089935E+02  0.46700000000E-02 0.  1.
          1   -1    0    0  501    0  0.00000000000E+00 -0.00000000000E+00 -0.12010020599E+03  0.12010020608E+03  0.46700000000E-02 0. -1.
         23    2    1    2    0    0  0.00000000000E+00  0.00000000000E+00 -0.10299111669E+03  0.13720929602E+03  0.90659918353E+02 0.  0.
        -13    1    3    3    0    0 -0.29086798024E+02 -0.22659691097E+02 -0.91402770841E+02  0.98559530792E+02  0.10570000000E+00 0. -1.
         13    1    3    3    0    0  0.29086798024E+02  0.22659691097E+02 -0.11588345851E+02  0.38649765225E+02  0.10570000000E+00 0.  1.
<mgrwt>
<rscale>  0 0.90659918E+02</rscale>
<asrwt>0</asrwt>
<pdfrwt beam="2">  1        1 0.18476954E-01 0.90659918E+02</pdfrwt>
<pdfrwt beam="1">  1       -1 0.26321677E-02 0.90659918E+02</pdfrwt>
<totfact> 0.10942750E+05</totfact>
</mgrwt>
</event>
<event>
 5   1  0.1388354E+00  0.9441676E+02  0.7818608E-02  0.1292495E+00
         -1   -1    0    0    0  501 -0.00000000000E+00  0.00000000000E+00  0.47140798275E+02  0.47140798507E+02  0.46700000000E-02 0.  1.
          1   -1    0    0  501    0  0.00000000000E+00 -0.00000000000E+00 -0.47276057579E+02  0.47276057810E+02  0.46700000000E-02 0. -1.
         23    2    1    2    0    0  0.00000000000E+00  0.00000000000E+00 -0.13525930398E+00  0.94416856316E+02  0.94416759432E+02 0.  0.
        -13    1    3    3    0    0  0.26586718444E+02 -0.12714734534E+02 -0.36947226482E+02  0.47261260976E+02  0.10570000000E+00 0. -1.
         13    1    3    3    0    0 -0.26586718444E+02  0.12714734534E+02  0.36811967178E+02  0.47155595340E+02  0.10570000000E+00 0.  1.
<mgrwt>
<rscale>  0 0.94416759E+02</rscale>
<asrwt>0</asrwt>
<pdfrwt beam="2">  1        1 0.72732397E-02 0.94416759E+02</pdfrwt>
<pdfrwt beam="1">  1       -1 0.72524305E-02 0.94416759E+02</pdfrwt>
<totfact> 0.84281003E+04</totfact>
</mgrwt>
</event>
<event>
 5   1  0.1388354E+00  0.9715322E+02  0.7818608E-02  0.1286399E+00
          1   -1    0    0  501    0  0.00000000000E+00  0.00000000000E+00  0.11726788145E+03  0.11726788154E+03  0.46700000000E-02 0. -1.
         -1   -1    0    0    0  501 -0.00000000000E+00 -0.00000000000E+00 -0.20122192626E+02  0.20122193168E+02  0.46700000000E-02 0.  1.
         23    2    1    2    0    0  0.00000000000E+00  0.00000000000E+00  0.97145688822E+02  0.13739007471E+03  0.97153218022E+02 0.  0.
        -13    1    3    3    0    0  0.63732199878E+00  0.46023571332E+02  0.70531067879E+02  0.84221244387E+02  0.10570000000E+00 0. -1.
         13    1    3    3    0    0 -0.63732199878E+00 -0.46023571332E+02  0.26614620943E+02  0.53168830323E+02  0.10570000000E+00 0.  1.
<mgrwt>
<rscale>  0 0.97153218E+02</rscale>
<asrwt>0</asrwt>
<pdfrwt beam="1">  1        1 0.18041213E-01 0.97153218E+02</pdfrwt>
<pdfrwt beam="2">  1       -1 0.30957219E-02 0.97153218E+02</pdfrwt>
<totfact> 0.90251673E+04</totfact>
</mgrwt>
</event>
<event>
 5   1  0.1388354E+00  0.1231834E+03  0.7818608E-02  0.1237936E+00
          1   -1    0    0  501    0  0.00000000000E+00  0.00000000000E+00  0.25398750972E+03  0.25398750976E+03  0.46700000000E-02 0. -1.
         -1   -1    0    0    0  501 -0.00000000000E+00 -0.00000000000E+00 -0.14935921582E+02  0.14935922312E+02  0.46700000000E-02 0.  1.
         23    2    1    2    0    0  0.00000000000E+00  0.00000000000E+00  0.23905158814E+03  0.26892343207E+03  0.12318340200E+03 0.  0.
        -13    1    3    3    0    0  0.60568625959E+02  0.11149454414E+02  0.11775535021E+03  0.13288793196E+03  0.10570000000E+00 0.  1.
         13    1    3    3    0    0 -0.60568625959E+02 -0.11149454414E+02  0.12129623793E+03  0.13603550012E+03  0.10570000000E+00 0. -1.
<mgrwt>
<rscale>  0 0.12318340E+03</rscale>
<asrwt>0</asrwt>
<pdfrwt beam="1">  1        1 0.39075001E-01 0.12318340E+03</pdfrwt>
<pdfrwt beam="2">  1       -1 0.22978342E-02 0.12318340E+03</pdfrwt>
<totfact> 0.54791079E+04</totfact>
</mgrwt>
</event>
<event>
 5   1  0.1388354E+00  0.9277507E+02  0.7818608E-02  0.1296267E+00
         -1   -1    0    0    0  501 -0.00000000000E+00  0.00000000000E+00  0.57422862691E+02  0.57422862881E+02  0.46700000000E-02 0.  1.
          1   -1    0    0  501    0  0.00000000000E+00 -0.00000000000E+00 -0.37472937080E+02  0.37472937371E+02  0.46700000000E-02 0. -1.
         23    2    1    2    0    0  0.00000000000E+00  0.00000000000E+00  0.19949925610E+02  0.94895800252E+02  0.92775068707E+02 0.  0.
        -13    1    3    3    0    0  0.30190918637E+02  0.33070189074E+02 -0.24123265457E+01  0.44843722698E+02  0.10570000000E+00 0. -1.
         13    1    3    3    0    0 -0.30190918637E+02 -0.33070189074E+02  0.22362252156E+02  0.50052077554E+02  0.10570000000E+00 0.  1.
<mgrwt>
<rscale>  0 0.92775069E+02</rscale>
<asrwt>0</asrwt>
<pdfrwt beam="2">  1        1 0.57650673E-02 0.92775069E+02</pdfrwt>
<pdfrwt beam="1">  1       -1 0.88342866E-02 0.92775069E+02</pdfrwt>
<totfact> 0.85440417E+04</totfact>
</mgrwt>
</event>
<event>
 5   1  0.1388354E+00  0.8935526E+02  0.7818608E-02  0.1304421E+00
         -1   -1    0    0    0  501 -0.00000000000E+00  0.00000000000E+00  0.86339627781E+01  0.86339640411E+01  0.46700000000E-02 0.  1.
          1   -1    0    0  501    0  0.00000000000E+00 -0.00000000000E+00 -0.23119054498E+03  0.23119054503E+03  0.46700000000E-02 0. -1.
         23    2    1    2    0    0  0.00000000000E+00  0.00000000000E+00 -0.22255658221E+03  0.23982450907E+03  0.89355262120E+02 0.  0.
        -13    1    3    3    0    0 -0.36203528625E+02  0.25287053051E+02 -0.12947159188E+03  0.13679559501E+03  0.10570000000E+00 0. -1.
         13    1    3    3    0    0  0.36203528625E+02 -0.25287053051E+02 -0.93084990321E+02  0.10302891406E+03  0.10570000000E+00 0.  1.
<mgrwt>
<rscale>  0 0.89355262E+02</rscale>
<asrwt>0</asrwt>
<pdfrwt beam="2">  1        1 0.35567771E-01 0.89355262E+02</pdfrwt>
<pdfrwt beam="1">  1       -1 0.13283022E-02 0.89355262E+02</pdfrwt>
<totfact> 0.12854133E+05</totfact>
</mgrwt>
</event>
<event>
 4   1  0.1388354E+00  0.2199149E+03  0.7818608E-02  0.1133947E+00
          1   -1    0    0  501    0  0.00000000000E+00  0.00000000000E+00  0.35441331041E+02  0.35441331349E+02  0.46700000000E-02 0. -1.
         -1   -1    0    0    0  501 -0.00000000000E+00 -0.00000000000E+00 -0.34114522593E+03  0.34114522597E+03  0.46700000000E-02 0.  1.
        -13    1    1    2    0    0  0.96980754899E+02  0.51627975675E+02 -0.14521004964E+03  0.18208977012E+03  0.10570000000E+00 0.  1.
         13    1    1    2    0    0 -0.96980754899E+02 -0.51627975675E+02 -0.16049384525E+03  0.19449678719E+03  0.10570000000E+00 0. -1.
<mgrwt>
<rscale>  0 0.21991490E+03</rscale>
<asrwt>0</asrwt>
<pdfrwt beam="1">  1        1 0.54525127E-02 0.21991490E+03</pdfrwt>
<pdfrwt beam="2">  1       -1 0.52483879E-01 0.21991490E+03</pdfrwt>
<totfact> 0.54428545E+03</totfact>
</mgrwt>
</event>
<event>
 5   1  0.1388354E+00  0.8786503E+02  0.7818608E-02  0.1308106E+00
          1   -1    0    0  501    0  0.00000000000E+00  0.00000000000E+00  0.26673881371E+02  0.26673881780E+02  0.46700000000E-02 0. -1.
         -1   -1    0    0    0  501 -0.00000000000E+00 -0.00000000000E+00 -0.72357898427E+02  0.72357898578E+02  0.46700000000E-02 0.  1.
         23    2    1    2    0    0  0.00000000000E+00  0.00000000000E+00 -0.45684017056E+02  0.99031780358E+02  0.87865033469E+02 0.  0.
        -13    1    3    3    0    0  0.14125970705E+02  0.17075042155E+01 -0.69688776365E+02  0.71126614869E+02  0.10570000000E+00 0.  1.
         13    1    3    3    0    0 -0.14125970705E+02 -0.17075042155E+01  0.24004759309E+02  0.27905165489E+02  0.10570000000E+00 0. -1.
<mgrwt>
<rscale>  0 0.87865033E+02</rscale>
<asrwt>0</asrwt>
<pdfrwt beam="1">  1        1 0.41036741E-02 0.87865033E+02</pdfrwt>
<pdfrwt beam="2">  1       -1 0.11131984E-01 0.87865033E+02</pdfrwt>
<totfact> 0.94586930E+04</totfact>
</mgrwt>
</event>
<event>
 5   1  0.1388354E+00  0.9294349E+02  0.7818608E-02  0.1295876E+00
          1   -1    0    0  501    0  0.00000000000E+00  0.00000000000E+00  0.12102605341E+02  0.12102606242E+02  0.46700000000E-02 0. -1.
         -1   -1    0    0    0  501 -0.00000000000E+00 -0.00000000000E+00 -0.17844280032E+03  0.17844280038E+03  0.46700000000E-02 0.  1.
         23    2    1    2    0    0  0.00000000000E+00  0.00000000000E+00 -0.16634019498E+03  0.19054540662E+03  0.92943485622E+02 0.  0.
        -13    1    3    3    0    0 -0.21738481032E+02  0.41051477234E+02 -0.80399499469E+02  0.92854057682E+02  0.10570000000E+00 0.  1.
         13    1    3    3    0    0  0.21738481032E+02 -0.41051477234E+02 -0.85940695506E+02  0.97691348938E+02  0.10570000000E+00 0. -1.
<mgrwt>
<rscale>  0 0.92943486E+02</rscale>
<asrwt>0</asrwt>
<pdfrwt beam="1">  1        1 0.18619395E-02 0.92943486E+02</pdfrwt>
<pdfrwt beam="2">  1       -1 0.27452737E-01 0.92943486E+02</pdfrwt>
<totfact> 0.68140372E+04</totfact>
</mgrwt>
</event>
<event>
 5   1  0.1388354E+00  0.9221080E+02  0.7818608E-02  0.1297585E+00
          1   -1    0    0  501    0  0.00000000000E+00  0.00000000000E+00  0.36216791367E+03  0.36216791370E+03  0.46700000000E-02 0. -1.
         -1   -1    0    0    0  501 -0.00000000000E+00 -0.00000000000E+00 -0.58693972618E+01  0.58693991197E+01  0.46700000000E-02 0.  1.
         23    2    1    2    0    0  0.00000000000E+00  0.00000000000E+00  0.35629851641E+03  0.36803731282E+03  0.92210795643E+02 0.  0.
        -13    1    3    3    0    0 -0.44463852324E+02 -0.38109551816E+01  0.22437539524E+03  0.22877037986E+03  0.10570000000E+00 0. -1.
         13    1    3    3    0    0  0.44463852324E+02  0.38109551816E+01  0.13192312118E+03  0.13926693296E+03  0.10570000000E+00 0.  1.
<mgrwt>
<rscale>  0 0.92210796E+02</rscale>
<asrwt>0</asrwt>
<pdfrwt beam="1">  1        1 0.55718150E-01 0.92210796E+02</pdfrwt>
<pdfrwt beam="2">  1       -1 0.90298419E-03 0.92210796E+02</pdfrwt>
<totfact> 0.12871063E+05</totfact>
</mgrwt>
</event>
<event>
 5   1  0.1388354E+00  0.9155229E+02  0.7818608E-02  0.1299136E+00
          1   -1    0    0  501    0  0.00000000000E+00  0.00000000000E+00  0.39122732647E+02  0.39122732926E+02  0.46700000000E-02 0. -1.
         -1   -1    0    0    0  501 -0.00000000000E+00 -0.00000000000E+00 -0.53561071118E+02  0.53561071322E+02  0.46700000000E-02 0.  1.
         23    2    1    2    0    0  0.00000000000E+00  0.00000000000E+00 -0.14438338471E+02  0.92683804247E+02  0.91552290807E+02 0.  0.
        -13    1    3    3    0    0  0.25544186902E+02 -0.61799079120E+01 -0.45162353971E+02  0.52252714140E+02  0.10570000000E+00 0.  1.
         13    1    3    3    0    0 -0.25544186902E+02  0.61799079120E+01  0.30724015500E+02  0.40431090107E+02  0.10570000000E+00 0. -1.
<mgrwt>
<rscale>  0 0.91552291E+02</rscale>
<asrwt>0</asrwt>
<pdfrwt beam="1">  1        1 0.60188820E-02 0.91552291E+02</pdfrwt>
<pdfrwt beam="2">  1       -1 0.82401649E-02 0.91552291E+02</pdfrwt>
<totfact> 0.89312805E+04</totfact>
</mgrwt>
</event>
<event>
 5   1  0.1388354E+00  0.9064043E+02  0.7818608E-02  0.1301308E+00
         -1   -1    0    0    0  501 -0.00000000000E+00  0.00000000000E+00  0.63216379230E+02  0.63216379402E+02  0.46700000000E-02 0.  1.
          1   -1    0    0  501    0  0.00000000000E+00 -0.00000000000E+00 -0.32490346082E+02  0.32490346418E+02  0.46700000000E-02 0. -1.
         23    2    1    2    0    0  0.00000000000E+00  0.00000000000E+00  0.30726033148E+02  0.95706725820E+02  0.90640433882E+02 0.  0.
        -13    1    3    3    0    0  0.12803560011E+02  0.26613994477E+02 -0.20933881708E+02  0.36200475506E+02  0.10570000000E+00 0. -1.
         13    1    3    3    0    0 -0.12803560011E+02 -0.26613994477E+02  0.51659914856E+02  0.59506250314E+02  0.10570000000E+00 0.  1.
<mgrwt>
<rscale>  0 0.90640434E+02</rscale>
<asrwt>0</asrwt>
<pdfrwt beam="2">  1        1 0.49985149E-02 0.90640434E+02</pdfrwt>
<pdfrwt beam="1">  1       -1 0.97255967E-02 0.90640434E+02</pdfrwt>
<totfact> 0.89285851E+04</totfact>
</mgrwt>
</event>
<event>
 5   1  0.1388354E+00  0.9159445E+02  0.7818608E-02  0.1299036E+00
          1   -1    0    0  501    0  0.00000000000E+00  0.00000000000E+00  0.94756549740E+01  0.94756561248E+01  0.46700000000E-02 0. -1.
         -1   -1    0    0    0  501 -0.00000000000E+00 -0.00000000000E+00 -0.22134466700E+03  0.22134466705E+03  0.46700000000E-02 0.  1.
         23    2    1    2    0    0  0.00000000000E+00  0.00000000000E+00 -0.21186901203E+03  0.23082032318E+03  0.91594450341E+02 0.  0.
        -13    1    3    3    0    0 -0.74138235536E+01 -0.31598171441E+02 -0.24511347464E+02  0.40672183923E+02  0.10570000000E+00 0. -1.
         13    1    3    3    0    0  0.74138235536E+01  0.31598171441E+02 -0.18735766456E+03  0.19014813925E+03  0.10570000000E+00 0.  1.
<mgrwt>
<rscale>  0 0.91594450E+02</rscale>
<asrwt>0</asrwt>
<pdfrwt beam="1">  1        1 0.14577933E-02 0.91594450E+02</pdfrwt>
<pdfrwt beam="2">  1       -1 0.34053022E-01 0.91594450E+02</pdfrwt>
<totfact> 0.66565836E+04</totfact>
</mgrwt>
</event>
<event>
 5   1  0.1388354E+00  0.6862471E+02  0.7818608E-02  0.1364833E+00
         -1   -1    0    0    0  501 -0.00000000000E+00  0.00000000000E+00  0.70534108691E+01  0.70534124151E+01  0.46700000000E-02 0. -1.
          1   -1    0    0  501    0  0.00000000000E+00 -0.00000000000E+00 -0.16691747173E+03  0.16691747180E+03  0.46700000000E-02 0.  1.
         23    2    1    2    0    0  0.00000000000E+00  0.00000000000E+00 -0.15986406086E+03  0.17397088421E+03  0.68624708364E+02 0.  0.
        -13    1    3    3    0    0 -0.30849358482E+02 -0.87387925774E+01 -0.11090569560E+03  0.11544753745E+03  0.10570000000E+00 0.  1.
         13    1    3    3    0    0  0.30849358482E+02  0.87387925774E+01 -0.48958365264E+02  0.58523346763E+02  0.10570000000E+00 0. -1.
<mgrwt>
<rscale>  0 0.68624708E+02</rscale>
<asrwt>0</asrwt>
<pdfrwt beam="2">  1        1 0.25679608E-01 0.68624708E+02</pdfrwt>
<pdfrwt beam="1">  1       -1 0.10851404E-02 0.68624708E+02</pdfrwt>
<totfact> 0.24265005E+05</totfact>
</mgrwt>
</event>
<event>
 5   1  0.1388354E+00  0.9127120E+02  0.7818608E-02  0.1299802E+00
          1   -1    0    0  501    0  0.00000000000E+00  0.00000000000E+00  0.69090492696E+02  0.69090492854E+02  0.46700000000E-02 0. -1.
         -1   -1    0    0    0  501 -0.00000000000E+00 -0.00000000000E+00 -0.30143190831E+02  0.30143191193E+02  0.46700000000E-02 0.  1.
         23    2    1    2    0    0  0.00000000000E+00  0.00000000000E+00  0.38947301865E+02  0.99233684047E+02  0.91271198781E+02 0.  0.
        -13    1    3    3    0    0  0.13036295752E+02 -0.40489339108E+02  0.37446523752E+02  0.56670847020E+02  0.10570000000E+00 0.  1.
         13    1    3    3    0    0 -0.13036295752E+02  0.40489339108E+02  0.15007781132E+01  0.42562837027E+02  0.10570000000E+00 0. -1.
<mgrwt>
<rscale>  0 0.91271199E+02</rscale>
<asrwt>0</asrwt>
<pdfrwt beam="1">  1        1 0.10629307E-01 0.91271199E+02</pdfrwt>
<pdfrwt beam="2">  1       -1 0.46374140E-02 0.91271199E+02</pdfrwt>
<totfact> 0.98187273E+04</totfact>
</mgrwt>
</event>
<event>
 5   1  0.1388354E+00  0.9504760E+02  0.7818608E-02  0.1291069E+00
         -1   -1    0    0    0  501 -0.00000000000E+00  0.00000000000E+00  0.11306224688E+02  0.11306225652E+02  0.46700000000E-02 0.  1.
          1   -1    0    0  501    0  0.00000000000E+00 -0.00000000000E+00 -0.19975822232E+03  0.19975822238E+03  0.46700000000E-02 0. -1.
         23    2    1    2    0    0  0.00000000000E+00  0.00000000000E+00 -0.18845199763E+03  0.21106444803E+03  0.95047597598E+02 0.  0.
        -13    1    3    3    0    0  0.13744560405E+01  0.44192752647E+02 -0.13291907332E+03  0.14007990485E+03  0.10570000000E+00 0. -1.
         13    1    3    3    0    0 -0.13744560405E+01 -0.44192752647E+02 -0.55532924311E+02  0.70984543184E+02  0.10570000000E+00 0.  1.
<mgrwt>
<rscale>  0 0.95047598E+02</rscale>
<asrwt>0</asrwt>
<pdfrwt beam="2">  1        1 0.30732032E-01 0.95047598E+02</pdfrwt>
<pdfrwt beam="1">  1       -1 0.17394194E-02 0.95047598E+02</pdfrwt>
<totfact> 0.10585248E+05</totfact>
</mgrwt>
</event>
<event>
 5   1  0.1388354E+00  0.9180967E+02  0.7818608E-02  0.1298528E+00
         -1   -1    0    0    0  501 -0.00000000000E+00  0.00000000000E+00  0.57602031784E+01  0.57602050714E+01  0.46700000000E-02 0.  1.
          1   -1    0    0  501    0  0.00000000000E+00 -0.00000000000E+00 -0.36582968902E+03  0.36582968905E+03  0.46700000000E-02 0. -1.
         23    2    1    2    0    0  0.00000000000E+00  0.00000000000E+00 -0.36006948584E+03  0.37158989412E+03  0.91809666042E+02 0.  0.
        -13    1    3    3    0    0 -0.12288165093E+02  0.44226800097E+02 -0.18199124671E+03  0.18769079333E+03  0.10570000000E+00 0. -1.
         13    1    3    3    0    0  0.12288165093E+02 -0.44226800097E+02 -0.17807823913E+03  0.18389910079E+03  0.10570000000E+00 0.  1.
<mgrwt>
<rscale>  0 0.91809666E+02</rscale>
<asrwt>0</asrwt>
<pdfrwt beam="2">  1        1 0.56281473E-01 0.91809666E+02</pdfrwt>
<pdfrwt beam="1">  1       -1 0.88618554E-03 0.91809666E+02</pdfrwt>
<totfact> 0.13044192E+05</totfact>
</mgrwt>
</event>
<event>
 5   1  0.1388354E+00  0.8745068E+02  0.7818608E-02  0.1309145E+00
          1   -1    0    0  501    0  0.00000000000E+00  0.00000000000E+00  0.23433749488E+03  0.23433749493E+03  0.46700000000E-02 0. -1.
         -1   -1    0    0    0  501 -0.00000000000E+00 -0.00000000000E+00 -0.81587678182E+01  0.81587691547E+01  0.46700000000E-02 0.  1.
         23    2    1    2    0    0  0.00000000000E+00  0.00000000000E+00  0.22617872706E+03  0.24249626408E+03  0.87450680490E+02 0.  0.
        -13    1    3    3    0    0  0.29824044025E+02 -0.26229214344E+02  0.16380089869E+03  0.16854729565E+03  0.10570000000E+00 0. -1.
         13    1    3    3    0    0 -0.29824044025E+02  0.26229214344E+02  0.62377828375E+02  0.73948968434E+02  0.10570000000E+00 0.  1.
<mgrwt>
<rscale>  0 0.87450680E+02</rscale>
<asrwt>0</asrwt>
<pdfrwt beam="1">  1        1 0.36051923E-01 0.87450680E+02</pdfrwt>
<pdfrwt beam="2">  1       -1 0.12551951E-02 0.87450680E+02</pdfrwt>
<totfact> 0.13649248E+05</totfact>
</mgrwt>
</event>
<event>
 5   1  0.1388354E+00  0.9132547E+02  0.7818608E-02  0.1299673E+00
         -1   -1    0    0    0  501 -0.00000000000E+00  0.00000000000E+00  0.94455044135E+02  0.94455044250E+02  0.46700000000E-02 0. -1.
          1   -1    0    0  501    0  0.00000000000E+00 -0.00000000000E+00 -0.22074898119E+02  0.22074898613E+02  0.46700000000E-02 0.  1.
         23    2    1    2    0    0  0.00000000000E+00  0.00000000000E+00  0.72380146016E+02  0.11652994286E+03  0.91325473152E+02 0.  0.
        -13    1    3    3    0    0  0.45499103398E+02  0.33974956871E+01  0.33850126403E+02  0.56811562353E+02  0.10570000000E+00 0.  1.
         13    1    3    3    0    0 -0.45499103398E+02 -0.33974956871E+01  0.38530019613E+02  0.59718380511E+02  0.10570000000E+00 0. -1.
<mgrwt>
<rscale>  0 0.91325473E+02</rscale>
<asrwt>0</asrwt>
<pdfrwt beam="2">  1        1 0.33961382E-02 0.91325473E+02</pdfrwt>
<pdfrwt beam="1">  1       -1 0.14531545E-01 0.91325473E+02</pdfrwt>
<totfact> 0.81882883E+04</totfact>
</mgrwt>
</event>
<event>
 5   1  0.1388354E+00  0.9202996E+02  0.7818608E-02  0.1298009E+00
         -1   -1    0    0    0  501 -0.00000000000E+00  0.00000000000E+00  0.15535450551E+02  0.15535451252E+02  0.46700000000E-02 0.  1.
          1   -1    0    0  501    0  0.00000000000E+00 -0.00000000000E+00 -0.13629332498E+03  0.13629332506E+03  0.46700000000E-02 0. -1.
         23    2    1    2    0    0  0.00000000000E+00  0.00000000000E+00 -0.12075787443E+03  0.15182877631E+03  0.92029957513E+02 0.  0.
        -13    1    3    3    0    0  0.23298189888E+02  0.39679135682E+02 -0.60968341153E+02  0.76383173907E+02  0.10570000000E+00 0. -1.
         13    1    3    3    0    0 -0.23298189888E+02 -0.39679135682E+02 -0.59789533278E+02  0.75445602407E+02  0.10570000000E+00 0.  1.
<mgrwt>
<rscale>  0 0.92029958E+02</rscale>
<asrwt>0</asrwt>
<pdfrwt beam="2">  1        1 0.20968203E-01 0.92029958E+02</pdfrwt>
<pdfrwt beam="1">  1       -1 0.23900695E-02 0.92029958E+02</pdfrwt>
<totfact> 0.10745114E+05</totfact>
</mgrwt>
</event>
<event>
 5   1  0.1388354E+00  0.9073899E+02  0.7818608E-02  0.1301072E+00
         -1   -1    0    0    0  501 -0.00000000000E+00  0.00000000000E+00  0.15683263528E+03  0.15683263535E+03  0.46700000000E-02 0.  1.
          1   -1    0    0  501    0  0.00000000000E+00 -0.00000000000E+00 -0.13124762535E+02  0.13124763366E+02  0.46700000000E-02 0. -1.
         23    2    1    2    0    0  0.00000000000E+00  0.00000000000E+00  0.14370787274E+03  0.16995739871E+03  0.90738992111E+02 0.  0.
        -13    1    3    3    0    0 -0.19682699469E+02 -0.36528693670E+02  0.37488657274E+02  0.55921057897E+02  0.10570000000E+00 0. -1.
         13    1    3    3    0    0  0.19682699469E+02  0.36528693670E+02  0.10621921547E+03  0.11403634081E+03  0.10570000000E+00 0.  1.
<mgrwt>
<rscale>  0 0.90738992E+02</rscale>
<asrwt>0</asrwt>
<pdfrwt beam="2">  1        1 0.20191943E-02 0.90738992E+02</pdfrwt>
<pdfrwt beam="1">  1       -1 0.24128098E-01 0.90738992E+02</pdfrwt>
<totfact> 0.74931972E+04</totfact>
</mgrwt>
</event>
<event>
 5   1  0.1388354E+00  0.7183545E+02  0.7818608E-02  0.1353960E+00
         -1   -1    0    0    0  501 -0.00000000000E+00  0.00000000000E+00  0.13618496646E+02  0.13618497447E+02  0.46700000000E-02 0.  1.
          1   -1    0    0  501    0  0.00000000000E+00 -0.00000000000E+00 -0.94730188328E+02  0.94730188443E+02  0.46700000000E-02 0. -1.
         23    2    1    2    0    0  0.00000000000E+00  0.00000000000E+00 -0.81111691682E+02  0.10834868589E+03  0.71835445335E+02 0.  0.
        -13    1    3    3    0    0  0.10179255198E+02  0.24677455164E+02 -0.43104847204E+01  0.27040441578E+02  0.10570000000E+00 0.  1.
         13    1    3    3    0    0 -0.10179255198E+02 -0.24677455164E+02 -0.76801206962E+02  0.81308244312E+02  0.10570000000E+00 0. -1.
<mgrwt>
<rscale>  0 0.71835445E+02</rscale>
<asrwt>0</asrwt>
<pdfrwt beam="2">  1        1 0.14573875E-01 0.71835445E+02</pdfrwt>
<pdfrwt beam="1">  1       -1 0.20951535E-02 0.71835445E+02</pdfrwt>
<totfact> 0.19644951E+05</totfact>
</mgrwt>
</event>
<event>
 5   1  0.1388354E+00  0.8614945E+02  0.7818608E-02  0.1312454E+00
         -1   -1    0    0    0  501 -0.00000000000E+00  0.00000000000E+00  0.12675362985E+03  0.12675362994E+03  0.46700000000E-02 0.  1.
          1   -1    0    0  501    0  0.00000000000E+00 -0.00000000000E+00 -0.14638095772E+02  0.14638096517E+02  0.46700000000E-02 0. -1.
         23    2    1    2    0    0  0.00000000000E+00  0.00000000000E+00  0.11211553408E+03  0.14139172645E+03  0.86149447635E+02 0.  0.
        -13    1    3    3    0    0 -0.14776097141E+02 -0.32277474792E+02  0.96100343834E+02  0.10244733126E+03  0.10570000000E+00 0.  1.
         13    1    3    3    0    0  0.14776097141E+02  0.32277474792E+02  0.16015190246E+02  0.38944395190E+02  0.10570000000E+00 0. -1.
<mgrwt>
<rscale>  0 0.86149448E+02</rscale>
<asrwt>0</asrwt>
<pdfrwt beam="2">  1        1 0.22520149E-02 0.86149448E+02</pdfrwt>
<pdfrwt beam="1">  1       -1 0.19500558E-01 0.86149448E+02</pdfrwt>
<totfact> 0.89889903E+04</totfact>
</mgrwt>
</event>
<event>
 5   1  0.1388354E+00  0.8904387E+02  0.7818608E-02  0.1305184E+00
         -1   -1    0    0    0  501 -0.00000000000E+00  0.00000000000E+00  0.22228615522E+02  0.22228616013E+02  0.46700000000E-02 0.  1.
          1   -1    0    0  501    0  0.00000000000E+00 -0.00000000000E+00 -0.89173472605E+02  0.89173472727E+02  0.46700000000E-02 0. -1.
         23    2    1    2    0    0  0.00000000000E+00  0.00000000000E+00 -0.66944857083E+02  0.11140208874E+03  0.89043873937E+02 0.  0.
        -13    1    3    3    0    0  0.29307367369E+02 -0.11245230182E+02  0.60275179978E+01  0.31964341533E+02  0.10570000000E+00 0.  1.
         13    1    3    3    0    0 -0.29307367369E+02  0.11245230182E+02 -0.72972375081E+02  0.79437747207E+02  0.10570000000E+00 0. -1.
<mgrwt>
<rscale>  0 0.89043874E+02</rscale>
<asrwt>0</asrwt>
<pdfrwt beam="2">  1        1 0.13718996E-01 0.89043874E+02</pdfrwt>
<pdfrwt beam="1">  1       -1 0.34197871E-02 0.89043874E+02</pdfrwt>
<totfact> 0.10934713E+05</totfact>
</mgrwt>
</event>
<event>
 5   1  0.1388354E+00  0.8689027E+02  0.7818608E-02  0.1310562E+00
         -1   -1    0    0    0  501 -0.00000000000E+00  0.00000000000E+00  0.11862735184E+03  0.11862735193E+03  0.46700000000E-02 0.  1.
          1   -1    0    0  501    0  0.00000000000E+00 -0.00000000000E+00 -0.15910999082E+02  0.15910999767E+02  0.46700000000E-02 0. -1.
         23    2    1    2    0    0  0.00000000000E+00  0.00000000000E+00  0.10271635276E+03  0.13453835170E+03  0.86890269615E+02 0.  0.
        -13    1    3    3    0    0  0.21325209942E+02 -0.32175254916E+02  0.82226995068E+02  0.90836674853E+02  0.10570000000E+00 0.  1.
         13    1    3    3    0    0 -0.21325209942E+02  0.32175254916E+02  0.20489357688E+02  0.43701676844E+02  0.10570000000E+00 0. -1.
<mgrwt>
<rscale>  0 0.86890270E+02</rscale>
<asrwt>0</asrwt>
<pdfrwt beam="2">  1        1 0.24478461E-02 0.86890270E+02</pdfrwt>
<pdfrwt beam="1">  1       -1 0.18250362E-01 0.86890270E+02</pdfrwt>
<totfact> 0.89127559E+04</totfact>
</mgrwt>
</event>
<event>
 5   1  0.1388354E+00  0.8756425E+02  0.7818608E-02  0.1308860E+00
          1   -1    0    0  501    0  0.00000000000E+00  0.00000000000E+00  0.33511262192E+02  0.33511262518E+02  0.46700000000E-02 0. -1.
         -1   -1    0    0    0  501 -0.00000000000E+00 -0.00000000000E+00 -0.57200904078E+02  0.57200904269E+02  0.46700000000E-02 0.  1.
         23    2    1    2    0    0  0.00000000000E+00  0.00000000000E+00 -0.23689641886E+02  0.90712166787E+02  0.87564251098E+02 0.  0.
        -13    1    3    3    0    0 -0.29907450477E+02  0.31815474210E+02 -0.85389638279E+01  0.44492752994E+02  0.10570000000E+00 0. -1.
         13    1    3    3    0    0  0.29907450477E+02 -0.31815474210E+02 -0.15150678058E+02  0.46219413793E+02  0.10570000000E+00 0.  1.
<mgrwt>
<rscale>  0 0.87564251E+02</rscale>
<asrwt>0</asrwt>
<pdfrwt beam="1">  1        1 0.51555789E-02 0.87564251E+02</pdfrwt>
<pdfrwt beam="2">  1       -1 0.88001391E-02 0.87564251E+02</pdfrwt>
<totfact> 0.98953888E+04</totfact>
</mgrwt>
</event>
<event>
 5   1  0.1388354E+00  0.9148661E+02  0.7818608E-02  0.1299291E+00
          1   -1    0    0  501    0  0.00000000000E+00  0.00000000000E+00  0.29856282878E+03  0.29856282882E+03  0.46700000000E-02 0. -1.
         -1   -1    0    0    0  501 -0.00000000000E+00 -0.00000000000E+00 -0.70084064006E+01  0.70084079565E+01  0.46700000000E-02 0.  1.
         23    2    1    2    0    0  0.00000000000E+00  0.00000000000E+00  0.29155442238E+03  0.30557123678E+03  0.91486608496E+02 0.  0.
        -13    1    3    3    0    0  0.64100222431E+01 -0.43438404326E+02  0.18861025666E+03  0.19365387537E+03  0.10570000000E+00 0. -1.
         13    1    3    3    0    0 -0.64100222431E+01  0.43438404326E+02  0.10294416572E+03  0.11191736141E+03  0.10570000000E+00 0.  1.
<mgrwt>
<rscale>  0 0.91486608E+02</rscale>
<asrwt>0</asrwt>
<pdfrwt beam="1">  1        1 0.45932739E-01 0.91486608E+02</pdfrwt>
<pdfrwt beam="2">  1       -1 0.10782166E-02 0.91486608E+02</pdfrwt>
<totfact> 0.12685197E+05</totfact>
</mgrwt>
</event>
<event>
 5   1  0.1388354E+00  0.9183756E+02  0.7818608E-02  0.1298462E+00
         -1   -1    0    0    0  501 -0.00000000000E+00  0.00000000000E+00  0.27145506022E+02  0.27145506423E+02  0.46700000000E-02 0.  1.
          1   -1    0    0  501    0  0.00000000000E+00 -0.00000000000E+00 -0.77675255607E+02  0.77675255747E+02  0.46700000000E-02 0. -1.
         23    2    1    2    0    0  0.00000000000E+00  0.00000000000E+00 -0.50529749585E+02  0.10482076217E+03  0.91837555438E+02 0.  0.
        -13    1    3    3    0    0 -0.45173390510E+02  0.14062257904E+01 -0.15998633154E+02  0.47943509638E+02  0.10570000000E+00 0.  1.
         13    1    3    3    0    0  0.45173390510E+02 -0.14062257904E+01 -0.34531116431E+02  0.56877252532E+02  0.10570000000E+00 0. -1.
<mgrwt>
<rscale>  0 0.91837555E+02</rscale>
<asrwt>0</asrwt>
<pdfrwt beam="2">  1        1 0.11950039E-01 0.91837555E+02</pdfrwt>
<pdfrwt beam="1">  1       -1 0.41762318E-02 0.91837555E+02</pdfrwt>
<totfact> 0.98305117E+04</totfact>
</mgrwt>
</event>
<event>
 5   1  0.1388354E+00  0.9271424E+02  0.7818608E-02  0.1296409E+00
          1   -1    0    0  501    0  0.00000000000E+00  0.00000000000E+00  0.21424151354E+03  0.21424151359E+03  0.46700000000E-02 0. -1.
         -1   -1    0    0    0  501 -0.00000000000E+00 -0.00000000000E+00 -0.10030654656E+02  0.10030655743E+02  0.46700000000E-02 0.  1.
         23    2    1    2    0    0  0.00000000000E+00  0.00000000000E+00  0.20421085889E+03  0.22427216934E+03  0.92714244062E+02 0.  0.
        -13    1    3    3    0    0  0.15132031465E+02  0.37719573871E+02  0.48166011346E+02  0.63021587181E+02  0.10570000000E+00 0.  1.
         13    1    3    3    0    0 -0.15132031465E+02 -0.37719573871E+02  0.15604484754E+03  0.16125058216E+03  0.10570000000E+00 0. -1.
<mgrwt>
<rscale>  0 0.92714244E+02</rscale>
<asrwt>0</asrwt>
<pdfrwt beam="1">  1        1 0.32960230E-01 0.92714244E+02</pdfrwt>
<pdfrwt beam="2">  1       -1 0.15431779E-02 0.92714244E+02</pdfrwt>
<totfact> 0.11473618E+05</totfact>
</mgrwt>
</event>
<event>
 5   1  0.1388354E+00  0.9244548E+02  0.7818608E-02  0.1297035E+00
         -1   -1    0    0    0  501 -0.00000000000E+00  0.00000000000E+00  0.35283208143E+02  0.35283208452E+02  0.46700000000E-02 0.  1.
          1   -1    0    0  501    0  0.00000000000E+00 -0.00000000000E+00 -0.60554062587E+02  0.60554062767E+02  0.46700000000E-02 0. -1.
         23    2    1    2    0    0  0.00000000000E+00  0.00000000000E+00 -0.25270854445E+02  0.95837271219E+02  0.92445478366E+02 0.  0.
        -13    1    3    3    0    0 -0.26306736395E+02 -0.37720439324E+02 -0.78112520221E+01  0.46646572792E+02  0.10570000000E+00 0.  1.
         13    1    3    3    0    0  0.26306736395E+02  0.37720439324E+02 -0.17459602422E+02  0.49190698428E+02  0.10570000000E+00 0. -1.
<mgrwt>
<rscale>  0 0.92445478E+02</rscale>
<asrwt>0</asrwt>
<pdfrwt beam="2">  1        1 0.93160097E-02 0.92445478E+02</pdfrwt>
<pdfrwt beam="1">  1       -1 0.54281859E-02 0.92445478E+02</pdfrwt>
<totfact> 0.92870692E+04</totfact>
</mgrwt>
</event>
<event>
 5   1  0.1388354E+00  0.9172276E+02  0.7818608E-02  0.1298733E+00
          1   -1    0    0  501    0  0.00000000000E+00  0.00000000000E+00  0.26274894842E+02  0.26274895257E+02  0.46700000000E-02 0. -1.
         -1   -1    0    0    0  501 -0.00000000000E+00 -0.00000000000E+00 -0.80048512205E+02  0.80048512341E+02  0.46700000000E-02 0.  1.
         23    2    1    2    0    0  0.00000000000E+00  0.00000000000E+00 -0.53773617363E+02  0.10632340760E+03  0.91722762054E+02 0.  0.
        -13    1    3    3    0    0 -0.34314582263E+02  0.30405984931E+02 -0.28177943073E+02  0.53814701745E+02  0.10570000000E+00 0.  1.
         13    1    3    3    0    0  0.34314582263E+02 -0.30405984931E+02 -0.25595674290E+02  0.52508705853E+02  0.10570000000E+00 0. -1.
<mgrwt>
<rscale>  0 0.91722762E+02</rscale>
<asrwt>0</asrwt>
<pdfrwt beam="1">  1        1 0.40422916E-02 0.91722762E+02</pdfrwt>
<pdfrwt beam="2">  1       -1 0.12315156E-01 0.91722762E+02</pdfrwt>
<totfact> 0.83356879E+04</totfact>
</mgrwt>
</event>
<event>
 5   1  0.1388354E+00  0.8957603E+02  0.7818608E-02  0.1303882E+00
         -1   -1    0    0    0  501 -0.00000000000E+00  0.00000000000E+00  0.91303390300E+02  0.91303390419E+02  0.46700000000E-02 0.  1.
          1   -1    0    0  501    0  0.00000000000E+00 -0.00000000000E+00 -0.21970338086E+02  0.21970338582E+02  0.46700000000E-02 0. -1.
         23    2    1    2    0    0  0.00000000000E+00  0.00000000000E+00  0.69333052214E+02  0.11327372900E+03  0.89576032244E+02 0.  0.
        -13    1    3    3    0    0 -0.26318705307E+02  0.39289491152E+01  0.80222850588E+02  0.84521167876E+02  0.10570000000E+00 0.  1.
         13    1    3    3    0    0  0.26318705307E+02 -0.39289491152E+01 -0.10889798373E+02  0.28752561125E+02  0.10570000000E+00 0. -1.
<mgrwt>
<rscale>  0 0.89576032E+02</rscale>
<asrwt>0</asrwt>
<pdfrwt beam="2">  1        1 0.33800520E-02 0.89576032E+02</pdfrwt>
<pdfrwt beam="1">  1       -1 0.14046676E-01 0.89576032E+02</pdfrwt>
<totfact> 0.86577882E+04</totfact>
</mgrwt>
</event>
<event>
 5   1  0.1388354E+00  0.9248537E+02  0.7818608E-02  0.1296942E+00
          1   -1    0    0  501    0  0.00000000000E+00  0.00000000000E+00  0.11819314184E+03  0.11819314194E+03  0.46700000000E-02 0. -1.
         -1   -1    0    0    0  501 -0.00000000000E+00 -0.00000000000E+00 -0.18092301403E+02  0.18092302005E+02  0.46700000000E-02 0.  1.
         23    2    1    2    0    0  0.00000000000E+00  0.00000000000E+00  0.10010084044E+03  0.13628544394E+03  0.92485371672E+02 0.  0.
        -13    1    3    3    0    0  0.27128106178E+02  0.21053163186E+02  0.44118381491E+01  0.34621457412E+02  0.10570000000E+00 0.  1.
         13    1    3    3    0    0 -0.27128106178E+02 -0.21053163186E+02  0.95689002293E+02  0.10166398653E+03  0.10570000000E+00 0. -1.
<mgrwt>
<rscale>  0 0.92485372E+02</rscale>
<asrwt>0</asrwt>
<pdfrwt beam="1">  1        1 0.18183560E-01 0.92485372E+02</pdfrwt>
<pdfrwt beam="2">  1       -1 0.27834311E-02 0.92485372E+02</pdfrwt>
<totfact> 0.10337345E+05</totfact>
</mgrwt>
</event>
<event>
 5   1  0.1388354E+00  0.9019113E+02  0.7818608E-02  0.1302389E+00
          1   -1    0    0  501    0  0.00000000000E+00  0.00000000000E+00  0.33499873792E+03  0.33499873796E+03  0.46700000000E-02 0. -1.
         -1   -1    0    0    0  501 -0.00000000000E+00 -0.00000000000E+00 -0.60705000897E+01  0.60705018860E+01  0.46700000000E-02 0.  1.
         23    2    1    2    0    0  0.00000000000E+00  0.00000000000E+00  0.32892823783E+03  0.34106923984E+03  0.90191134387E+02 0.  0.
        -13    1    3    3    0    0  0.68485676818E+01  0.44390808198E+02  0.17966243843E+03  0.18519192663E+03  0.10570000000E+00 0. -1.
         13    1    3    3    0    0 -0.68485676818E+01 -0.44390808198E+02  0.14926579940E+03  0.15587731321E+03  0.10570000000E+00 0.  1.
<mgrwt>
<rscale>  0 0.90191134E+02</rscale>
<asrwt>0</asrwt>
<pdfrwt beam="1">  1        1 0.51538263E-01 0.90191134E+02</pdfrwt>
<pdfrwt beam="2">  1       -1 0.93392330E-03 0.90191134E+02</pdfrwt>
<totfact> 0.13462711E+05</totfact>
</mgrwt>
</event>
<event>
 5   1  0.1388354E+00  0.9099703E+02  0.7818608E-02  0.1300455E+00
          1   -1    0    0  501    0  0.00000000000E+00  0.00000000000E+00  0.11383861326E+02  0.11383862284E+02  0.46700000000E-02 0. -1.
         -1   -1    0    0    0  501 -0.00000000000E+00 -0.00000000000E+00 -0.18184646096E+03  0.18184646102E+03  0.46700000000E-02 0.  1.
         23    2    1    2    0    0  0.00000000000E+00  0.00000000000E+00 -0.17046259964E+03  0.19323032330E+03  0.90997032754E+02 0.  0.
        -13    1    3    3    0    0  0.35774653885E+02  0.25820092160E+02 -0.61623327304E+02  0.75788842585E+02  0.10570000000E+00 0.  1.
         13    1    3    3    0    0 -0.35774653885E+02 -0.25820092160E+02 -0.10883927233E+03  0.11744148072E+03  0.10570000000E+00 0. -1.
<mgrwt>
<rscale>  0 0.90997033E+02</rscale>
<asrwt>0</asrwt>
<pdfrwt beam="1">  1        1 0.17513635E-02 0.90997033E+02</pdfrwt>
<pdfrwt beam="2">  1       -1 0.27976377E-01 0.90997033E+02</pdfrwt>
<totfact> 0.71642657E+04</totfact>
</mgrwt>
</event>
<event>
 5   1  0.1388354E+00  0.9152213E+02  0.7818608E-02  0.1299207E+00
         -1   -1    0    0    0  501 -0.00000000000E+00  0.00000000000E+00  0.81223292482E+01  0.81223305908E+01  0.46700000000E-02 0.  1.
          1   -1    0    0  501    0  0.00000000000E+00 -0.00000000000E+00 -0.25781704556E+03  0.25781704561E+03  0.46700000000E-02 0. -1.
         23    2    1    2    0    0  0.00000000000E+00  0.00000000000E+00 -0.24969471631E+03  0.26593937620E+03  0.91522130963E+02 0.  0.
        -13    1    3    3    0    0  0.14887756695E+02 -0.37553241453E+02 -0.18731551123E+03  0.19162203204E+03  0.10570000000E+00 0. -1.
         13    1    3    3    0    0 -0.14887756695E+02  0.37553241453E+02 -0.62379205084E+02  0.74317344156E+02  0.10570000000E+00 0.  1.
<mgrwt>
<rscale>  0 0.91522131E+02</rscale>
<asrwt>0</asrwt>
<pdfrwt beam="2">  1        1 0.39664155E-01 0.91522131E+02</pdfrwt>
<pdfrwt beam="1">  1       -1 0.12495894E-02 0.91522131E+02</pdfrwt>
<totfact> 0.12316351E+05</totfact>
</mgrwt>
</event>
<event>
 5   1  0.1388354E+00  0.8880225E+02  0.7818608E-02  0.1305778E+00
         -1   -1    0    0    0  501 -0.00000000000E+00  0.00000000000E+00  0.11885889574E+02  0.11885890491E+02  0.46700000000E-02 0.  1.
          1   -1    0    0  501    0  0.00000000000E+00 -0.00000000000E+00 -0.16586557162E+03  0.16586557168E+03  0.46700000000E-02 0. -1.
         23    2    1    2    0    0  0.00000000000E+00  0.00000000000E+00 -0.15397968204E+03  0.17775146217E+03  0.88802251226E+02 0.  0.
        -13    1    3    3    0    0 -0.25054277271E+02 -0.20270506650E+02 -0.15854485092E+02  0.35916376758E+02  0.10570000000E+00 0.  1.
         13    1    3    3    0    0  0.25054277271E+02  0.20270506650E+02 -0.13812519695E+03  0.14183508541E+03  0.10570000000E+00 0. -1.
<mgrwt>
<rscale>  0 0.88802251E+02</rscale>
<asrwt>0</asrwt>
<pdfrwt beam="2">  1        1 0.25517779E-01 0.88802251E+02</pdfrwt>
<pdfrwt beam="1">  1       -1 0.18285986E-02 0.88802251E+02</pdfrwt>
<totfact> 0.12263637E+05</totfact>
</mgrwt>
</event>
<event>
 5   1  0.1388354E+00  0.8859615E+02  0.7818608E-02  0.1306287E+00
         -1   -1    0    0    0  501 -0.00000000000E+00  0.00000000000E+00  0.58713275046E+02  0.58713275232E+02  0.46700000000E-02 0.  1.
          1   -1    0    0  501    0  0.00000000000E+00 -0.00000000000E+00 -0.33422077084E+02  0.33422077411E+02  0.46700000000E-02 0. -1.
         23    2    1    2    0    0  0.00000000000E+00  0.00000000000E+00  0.25291197962E+02  0.92135352642E+02  0.88596154049E+02 0.  0.
        -13    1    3    3    0    0 -0.39960024002E+02  0.19081519973E+02  0.11414882330E+02  0.45729844017E+02  0.10570000000E+00 0. -1.
         13    1    3    3    0    0  0.39960024002E+02 -0.19081519973E+02  0.13876315632E+02  0.46405508625E+02  0.10570000000E+00 0.  1.
<mgrwt>
<rscale>  0 0.88596154E+02</rscale>
<asrwt>0</asrwt>
<pdfrwt beam="2">  1        1 0.51418581E-02 0.88596154E+02</pdfrwt>
<pdfrwt beam="1">  1       -1 0.90328115E-02 0.88596154E+02</pdfrwt>
<totfact> 0.95686127E+04</totfact>
</mgrwt>
</event>
<event>
 5   1  0.1388354E+00  0.9068671E+02  0.7818608E-02  0.1301197E+00
          1   -1    0    0  501    0  0.00000000000E+00  0.00000000000E+00  0.99607640703E+02  0.99607640812E+02  0.46700000000E-02 0. -1.
         -1   -1    0    0    0  501 -0.00000000000E+00 -0.00000000000E+00 -0.20641185108E+02  0.20641185636E+02  0.46700000000E-02 0.  1.
         23    2    1    2    0    0  0.00000000000E+00  0.00000000000E+00  0.78966455595E+02  0.12024882645E+03  0.90686708800E+02 0.  0.
        -13    1    3    3    0    0 -0.26482280333E+02  0.36784610503E+02  0.41155159757E+02  0.61222357751E+02  0.10570000000E+00 0.  1.
         13    1    3    3    0    0  0.26482280333E+02 -0.36784610503E+02  0.37811295837E+02  0.59026468697E+02  0.10570000000E+00 0. -1.
<mgrwt>
<rscale>  0 0.90686709E+02</rscale>
<asrwt>0</asrwt>
<pdfrwt beam="1">  1        1 0.15324253E-01 0.90686709E+02</pdfrwt>
<pdfrwt beam="2">  1       -1 0.31755670E-02 0.90686709E+02</pdfrwt>
<totfact> 0.10592763E+05</totfact>
</mgrwt>
</event>
<event>
 5   1  0.1388354E+00  0.8328672E+02  0.7818608E-02  0.1319975E+00
         -1   -1    0    0    0  501 -0.00000000000E+00  0.00000000000E+00  0.60859001721E+01  0.60859019639E+01  0.46700000000E-02 0.  1.
          1   -1    0    0  501    0  0.00000000000E+00 -0.00000000000E+00 -0.28494868946E+03  0.28494868949E+03  0.46700000000E-02 0. -1.
         23    2    1    2    0    0  0.00000000000E+00  0.00000000000E+00 -0.27886278928E+03  0.29103459146E+03  0.83286722699E+02 0.  0.
        -13    1    3    3    0    0 -0.33416997365E+02 -0.24777505453E+02 -0.14600404529E+03  0.15181506151E+03  0.10570000000E+00 0. -1.
         13    1    3    3    0    0  0.33416997365E+02  0.24777505453E+02 -0.13285874400E+03  0.13921952994E+03  0.10570000000E+00 0.  1.
<mgrwt>
<rscale>  0 0.83286723E+02</rscale>
<asrwt>0</asrwt>
<pdfrwt beam="2">  1        1 0.43838250E-01 0.83286723E+02</pdfrwt>
<pdfrwt beam="1">  1       -1 0.93629269E-03 0.83286723E+02</pdfrwt>
<totfact> 0.16128990E+05</totfact>
</mgrwt>
</event>
<event>
 5   1  0.1388354E+00  0.9008878E+02  0.7818608E-02  0.1302637E+00
          1   -1    0    0  501    0  0.00000000000E+00  0.00000000000E+00  0.11317488884E+03  0.11317488893E+03  0.46700000000E-02 0. -1.
         -1   -1    0    0    0  501 -0.00000000000E+00 -0.00000000000E+00 -0.17927980881E+02  0.17927981489E+02  0.46700000000E-02 0.  1.
         23    2    1    2    0    0  0.00000000000E+00  0.00000000000E+00  0.95246907956E+02  0.13110287042E+03  0.90088784860E+02 0.  0.
        -13    1    3    3    0    0 -0.34649187404E+02  0.26996869316E+02  0.62146145264E+02  0.76102244935E+02  0.10570000000E+00 0. -1.
         13    1    3    3    0    0  0.34649187404E+02 -0.26996869316E+02  0.33100762692E+02  0.55000625486E+02  0.10570000000E+00 0.  1.
<mgrwt>
<rscale>  0 0.90088785E+02</rscale>
<asrwt>0</asrwt>
<pdfrwt beam="1">  1        1 0.17411521E-01 0.90088785E+02</pdfrwt>
<pdfrwt beam="2">  1       -1 0.27581510E-02 0.90088785E+02</pdfrwt>
<totfact> 0.11018634E+05</totfact>
</mgrwt>
</event>
<event>
 5   1  0.1388354E+00  0.8806488E+02  0.7818608E-02  0.1307607E+00
         -1   -1    0    0    0  501 -0.00000000000E+00  0.00000000000E+00  0.61374170422E+02  0.61374170600E+02  0.46700000000E-02 0.  1.
          1   -1    0    0  501    0  0.00000000000E+00 -0.00000000000E+00 -0.31590741099E+02  0.31590741445E+02  0.46700000000E-02 0. -1.
         23    2    1    2    0    0  0.00000000000E+00  0.00000000000E+00  0.29783429323E+02  0.92964912045E+02  0.88064875003E+02 0.  0.
        -13    1    3    3    0    0 -0.24359411390E+02  0.35701391316E+02  0.23778816632E+02  0.49329641779E+02  0.10570000000E+00 0. -1.
         13    1    3    3    0    0  0.24359411390E+02 -0.35701391316E+02  0.60046126911E+01  0.43635270266E+02  0.10570000000E+00 0.  1.
<mgrwt>
<rscale>  0 0.88064875E+02</rscale>
<asrwt>0</asrwt>
<pdfrwt beam="2">  1        1 0.48601141E-02 0.88064875E+02</pdfrwt>
<pdfrwt beam="1">  1       -1 0.94421801E-02 0.88064875E+02</pdfrwt>
<totfact> 0.96499074E+04</totfact>
</mgrwt>
</event>
<event>
 5   1  0.1388354E+00  0.1107054E+03  0.7818608E-02  0.1259269E+00
         -1   -1    0    0    0  501 -0.00000000000E+00  0.00000000000E+00  0.13898416522E+03  0.13898416529E+03  0.46700000000E-02 0.  1.
          1   -1    0    0  501    0  0.00000000000E+00 -0.00000000000E+00 -0.22045121147E+02  0.22045121642E+02  0.46700000000E-02 0. -1.
         23    2    1    2    0    0  0.00000000000E+00  0.00000000000E+00  0.11693904407E+03  0.16102928694E+03  0.11070542545E+03 0.  0.
        -13    1    3    3    0    0 -0.24942197866E+02  0.47636199619E+02  0.77578827034E+02  0.94391770430E+02  0.10570000000E+00 0.  1.
         13    1    3    3    0    0  0.24942197866E+02 -0.47636199619E+02  0.39360217035E+02  0.66637516506E+02  0.10570000000E+00 0. -1.
<mgrwt>
<rscale>  0 0.11070543E+03</rscale>
<asrwt>0</asrwt>
<pdfrwt beam="2">  1        1 0.33915572E-02 0.11070543E+03</pdfrwt>
<pdfrwt beam="1">  1       -1 0.21382179E-01 0.11070543E+03</pdfrwt>
<totfact> 0.45919923E+04</totfact>
</mgrwt>
</event>
<event>
 5   1  0.1388354E+00  0.8765358E+02  0.7818608E-02  0.1308635E+00
          1   -1    0    0  501    0  0.00000000000E+00  0.00000000000E+00  0.61460872604E+01  0.61460890346E+01  0.46700000000E-02 0. -1.
         -1   -1    0    0    0  501 -0.00000000000E+00 -0.00000000000E+00 -0.31252196351E+03  0.31252196355E+03  0.46700000000E-02 0.  1.
         23    2    1    2    0    0  0.00000000000E+00  0.00000000000E+00 -0.30637587625E+03  0.31866805258E+03  0.87653580572E+02 0.  0.
        -13    1    3    3    0    0 -0.26899293501E+02  0.32700668544E+02 -0.19429858578E+03  0.19885888797E+03  0.10570000000E+00 0.  1.
         13    1    3    3    0    0  0.26899293501E+02 -0.32700668544E+02 -0.11207729047E+03  0.11980916461E+03  0.10570000000E+00 0. -1.
<mgrwt>
<rscale>  0 0.87653581E+02</rscale>
<asrwt>0</asrwt>
<pdfrwt beam="1">  1        1 0.94555227E-03 0.87653581E+02</pdfrwt>
<pdfrwt beam="2">  1       -1 0.48080290E-01 0.87653581E+02</pdfrwt>
<totfact> 0.66061804E+04</totfact>
</mgrwt>
</event>
<event>
 5   1  0.1388354E+00  0.9357598E+02  0.7818608E-02  0.1294416E+00
          1   -1    0    0  501    0  0.00000000000E+00  0.00000000000E+00  0.11578562143E+03  0.11578562153E+03  0.46700000000E-02 0. -1.
         -1   -1    0    0    0  501 -0.00000000000E+00 -0.00000000000E+00 -0.18906628965E+02  0.18906629542E+02  0.46700000000E-02 0.  1.
         23    2    1    2    0    0  0.00000000000E+00  0.00000000000E+00  0.96878992469E+02  0.13469225107E+03  0.93575976172E+02 0.  0.
        -13    1    3    3    0    0  0.34626352282E+02 -0.92845900263E+00  0.93711853363E+02  0.99908803124E+02  0.10570000000E+00 0. -1.
         13    1    3    3    0    0 -0.34626352282E+02  0.92845900263E+00  0.31671391060E+01  0.34783447947E+02  0.10570000000E+00 0.  1.
<mgrwt>
<rscale>  0 0.93575976E+02</rscale>
<asrwt>0</asrwt>
<pdfrwt beam="1">  1        1 0.17813173E-01 0.93575976E+02</pdfrwt>
<pdfrwt beam="2">  1       -1 0.29087122E-02 0.93575976E+02</pdfrwt>
<totfact> 0.99767688E+04</totfact>
</mgrwt>
</event>
<event>
 5   1  0.1388354E+00  0.9181217E+02  0.7818608E-02  0.1298522E+00
         -1   -1    0    0    0  501 -0.00000000000E+00  0.00000000000E+00  0.23808094235E+02  0.23808094693E+02  0.46700000000E-02 0.  1.
          1   -1    0    0  501    0  0.00000000000E+00 -0.00000000000E+00 -0.88514794002E+02  0.88514794125E+02  0.46700000000E-02 0. -1.
         23    2    1    2    0    0  0.00000000000E+00  0.00000000000E+00 -0.64706699767E+02  0.11232288882E+03  0.91812168897E+02 0.  0.
        -13    1    3    3    0    0  0.54244116066E+01 -0.14108838713E+02  0.20676064126E+02  0.25612387069E+02  0.10570000000E+00 0.  1.
         13    1    3    3    0    0 -0.54244116066E+01  0.14108838713E+02 -0.85382763893E+02  0.86710501749E+02  0.10570000000E+00 0. -1.
<mgrwt>
<rscale>  0 0.91812169E+02</rscale>
<asrwt>0</asrwt>
<pdfrwt beam="2">  1        1 0.13617661E-01 0.91812169E+02</pdfrwt>
<pdfrwt beam="1">  1       -1 0.36627838E-02 0.91812169E+02</pdfrwt>
<totfact> 0.10045476E+05</totfact>
</mgrwt>
</event>
<event>
 5   1  0.1388354E+00  0.9167303E+02  0.7818608E-02  0.1298850E+00
          1   -1    0    0  501    0  0.00000000000E+00  0.00000000000E+00  0.36594722713E+02  0.36594723011E+02  0.46700000000E-02 0. -1.
         -1   -1    0    0    0  501 -0.00000000000E+00 -0.00000000000E+00 -0.57412273257E+02  0.57412273447E+02  0.46700000000E-02 0.  1.
         23    2    1    2    0    0  0.00000000000E+00  0.00000000000E+00 -0.20817550544E+02  0.94006996458E+02  0.91673032961E+02 0.  0.
        -13    1    3    3    0    0 -0.29817920457E+02  0.34808589115E+02 -0.10899298875E+02  0.47112123121E+02  0.10570000000E+00 0. -1.
         13    1    3    3    0    0  0.29817920457E+02 -0.34808589115E+02 -0.99182516695E+01  0.46894873336E+02  0.10570000000E+00 0.  1.
<mgrwt>
<rscale>  0 0.91673033E+02</rscale>
<asrwt>0</asrwt>
<pdfrwt beam="1">  1        1 0.56299574E-02 0.91673033E+02</pdfrwt>
<pdfrwt beam="2">  1       -1 0.88326574E-02 0.91673033E+02</pdfrwt>
<totfact> 0.88069342E+04</totfact>
</mgrwt>
</event>
<event>
 5   1  0.1388354E+00  0.9436011E+02  0.7818608E-02  0.1292624E+00
         -1   -1    0    0    0  501 -0.00000000000E+00  0.00000000000E+00  0.42470232011E+02  0.42470232267E+02  0.46700000000E-02 0.  1.
          1   -1    0    0  501    0  0.00000000000E+00 -0.00000000000E+00 -0.52412187651E+02  0.52412187859E+02  0.46700000000E-02 0. -1.
         23    2    1    2    0    0  0.00000000000E+00  0.00000000000E+00 -0.99419556404E+01  0.94882420126E+02  0.94360114281E+02 0.  0.
        -13    1    3    3    0    0 -0.22615265743E+02 -0.39513430535E+02 -0.17416286527E+02  0.48745252550E+02  0.10570000000E+00 0.  1.
         13    1    3    3    0    0  0.22615265743E+02  0.39513430535E+02  0.74743308869E+01  0.46137167576E+02  0.10570000000E+00 0. -1.
<mgrwt>
<rscale>  0 0.94360114E+02</rscale>
<asrwt>0</asrwt>
<pdfrwt beam="2">  1        1 0.80634135E-02 0.94360114E+02</pdfrwt>
<pdfrwt beam="1">  1       -1 0.65338819E-02 0.94360114E+02</pdfrwt>
<totfact> 0.85779351E+04</totfact>
</mgrwt>
</event>
<event>
 5   1  0.1388354E+00  0.9099132E+02  0.7818608E-02  0.1300469E+00
          1   -1    0    0  501    0  0.00000000000E+00  0.00000000000E+00  0.14305250201E+02  0.14305250963E+02  0.46700000000E-02 0. -1.
         -1   -1    0    0    0  501 -0.00000000000E+00 -0.00000000000E+00 -0.14469199530E+03  0.14469199537E+03  0.46700000000E-02 0.  1.
         23    2    1    2    0    0  0.00000000000E+00  0.00000000000E+00 -0.13038674510E+03  0.15899724634E+03  0.90991324013E+02 0.  0.
        -13    1    3    3    0    0 -0.37170767026E+02  0.26191938875E+02 -0.62624945039E+02  0.77392367176E+02  0.10570000000E+00 0. -1.
         13    1    3    3    0    0  0.37170767026E+02 -0.26191938875E+02 -0.67761800059E+02  0.81604879162E+02  0.10570000000E+00 0.  1.
<mgrwt>
<rscale>  0 0.90991324E+02</rscale>
<asrwt>0</asrwt>
<pdfrwt beam="1">  1        1 0.22008079E-02 0.90991324E+02</pdfrwt>
<pdfrwt beam="2">  1       -1 0.22260306E-01 0.90991324E+02</pdfrwt>
<totfact> 0.75814533E+04</totfact>
</mgrwt>
</event>
<event>
 5   1  0.1388354E+00  0.8788063E+02  0.7818608E-02  0.1308067E+00
          1   -1    0    0  501    0  0.00000000000E+00  0.00000000000E+00  0.88523002399E+02  0.88523002522E+02  0.46700000000E-02 0. -1.
         -1   -1    0    0    0  501 -0.00000000000E+00 -0.00000000000E+00 -0.21810727600E+02  0.21810728100E+02  0.46700000000E-02 0.  1.
         23    2    1    2    0    0  0.00000000000E+00  0.00000000000E+00  0.66712274799E+02  0.11033373062E+03  0.87880626444E+02 0.  0.
        -13    1    3    3    0    0 -0.29488898674E+02  0.66888923354E+01  0.73382694960E+02  0.79368554968E+02  0.10570000000E+00 0. -1.
         13    1    3    3    0    0  0.29488898674E+02 -0.66888923354E+01 -0.66704201609E+01  0.30965175654E+02  0.10570000000E+00 0.  1.
<mgrwt>
<rscale>  0 0.87880626E+02</rscale>
<asrwt>0</asrwt>
<pdfrwt beam="1">  1        1 0.13618924E-01 0.87880626E+02</pdfrwt>
<pdfrwt beam="2">  1       -1 0.33554966E-02 0.87880626E+02</pdfrwt>
<totfact> 0.11320057E+05</totfact>
</mgrwt>
</event>
<event>
 5   1  0.1388354E+00  0.1031749E+03  0.7818608E-02  0.1273758E+00
         -1   -1    0    0    0  501 -0.00000000000E+00  0.00000000000E+00  0.38509103157E+02  0.38509103440E+02  0.46700000000E-02 0.  1.
          1   -1    0    0  501    0  0.00000000000E+00 -0.00000000000E+00 -0.69107475563E+02  0.69107475721E+02  0.46700000000E-02 0. -1.
         23    2    1    2    0    0  0.00000000000E+00  0.00000000000E+00 -0.30598372406E+02  0.10761657916E+03  0.10317493744E+03 0.  0.
        -13    1    3    3    0    0 -0.76352229105E+01  0.39256176246E+02 -0.49289031088E+02  0.63472543359E+02  0.10570000000E+00 0. -1.
         13    1    3    3    0    0  0.76352229105E+01 -0.39256176246E+02  0.18690658682E+02  0.44144035801E+02  0.10570000000E+00 0.  1.
<mgrwt>
<rscale>  0 0.10317494E+03</rscale>
<asrwt>0</asrwt>
<pdfrwt beam="2">  1        1 0.10631919E-01 0.10317494E+03</pdfrwt>
<pdfrwt beam="1">  1       -1 0.59244774E-02 0.10317494E+03</pdfrwt>
<totfact> 0.69782052E+04</totfact>
</mgrwt>
</event>
<event>
 5   1  0.1388354E+00  0.9162021E+02  0.7818608E-02  0.1298975E+00
          1   -1    0    0  501    0  0.00000000000E+00  0.00000000000E+00  0.99004682312E+01  0.99004693326E+01  0.46700000000E-02 0. -1.
         -1   -1    0    0    0  501 -0.00000000000E+00 -0.00000000000E+00 -0.21196630513E+03  0.21196630518E+03  0.46700000000E-02 0.  1.
         23    2    1    2    0    0  0.00000000000E+00  0.00000000000E+00 -0.20206583690E+03  0.22186677452E+03  0.91620211699E+02 0.  0.
        -13    1    3    3    0    0 -0.23935910998E+02 -0.39052296454E+02 -0.10282052551E+03  0.11256145580E+03  0.10570000000E+00 0. -1.
         13    1    3    3    0    0  0.23935910998E+02  0.39052296454E+02 -0.99245311389E+02  0.10930531871E+03  0.10570000000E+00 0.  1.
<mgrwt>
<rscale>  0 0.91620212E+02</rscale>
<asrwt>0</asrwt>
<pdfrwt beam="1">  1        1 0.15231492E-02 0.91620212E+02</pdfrwt>
<pdfrwt beam="2">  1       -1 0.32610197E-01 0.91620212E+02</pdfrwt>
<totfact> 0.67396913E+04</totfact>
</mgrwt>
</event>
<event>
 5   1  0.1388354E+00  0.9218475E+02  0.7818608E-02  0.1297646E+00
          1   -1    0    0  501    0  0.00000000000E+00  0.00000000000E+00  0.50587446023E+02  0.50587446238E+02  0.46700000000E-02 0. -1.
         -1   -1    0    0    0  501 -0.00000000000E+00 -0.00000000000E+00 -0.41996720566E+02  0.41996720825E+02  0.46700000000E-02 0.  1.
         23    2    1    2    0    0  0.00000000000E+00  0.00000000000E+00  0.85907254573E+01  0.92584167063E+02  0.92184746173E+02 0.  0.
        -13    1    3    3    0    0  0.55184158675E+01 -0.84193146530E+01 -0.40879053637E+02  0.42100427215E+02  0.10570000000E+00 0.  1.
         13    1    3    3    0    0 -0.55184158675E+01  0.84193146530E+01  0.49469779095E+02  0.50483739848E+02  0.10570000000E+00 0. -1.
<mgrwt>
<rscale>  0 0.92184746E+02</rscale>
<asrwt>0</asrwt>
<pdfrwt beam="1">  1        1 0.77826840E-02 0.92184746E+02</pdfrwt>
<pdfrwt beam="2">  1       -1 0.64610340E-02 0.92184746E+02</pdfrwt>
<totfact> 0.91082135E+04</totfact>
</mgrwt>
</event>
<event>
 5   1  0.1388354E+00  0.9062064E+02  0.7818608E-02  0.1301356E+00
          1   -1    0    0  501    0  0.00000000000E+00  0.00000000000E+00  0.21211859058E+03  0.21211859063E+03  0.46700000000E-02 0. -1.
         -1   -1    0    0    0  501 -0.00000000000E+00 -0.00000000000E+00 -0.96786651832E+01  0.96786663098E+01  0.46700000000E-02 0.  1.
         23    2    1    2    0    0  0.00000000000E+00  0.00000000000E+00  0.20243992540E+03  0.22179725694E+03  0.90620636678E+02 0.  0.
        -13    1    3    3    0    0 -0.44547830919E+02  0.35622206013E+01  0.82934540419E+02  0.94209064438E+02  0.10570000000E+00 0.  1.
         13    1    3    3    0    0  0.44547830919E+02 -0.35622206013E+01  0.11950538498E+03  0.12758819250E+03  0.10570000000E+00 0. -1.
<mgrwt>
<rscale>  0 0.90620637E+02</rscale>
<asrwt>0</asrwt>
<pdfrwt beam="1">  1        1 0.32633628E-01 0.90620637E+02</pdfrwt>
<pdfrwt beam="2">  1       -1 0.14890256E-02 0.90620637E+02</pdfrwt>
<totfact> 0.12174622E+05</totfact>
</mgrwt>
</event>
<event>
 5   1  0.1388354E+00  0.8809034E+02  0.7818608E-02  0.1307543E+00
         -1   -1    0    0    0  501 -0.00000000000E+00  0.00000000000E+00  0.68285209094E+01  0.68285225063E+01  0.46700000000E-02 0.  1.
          1   -1    0    0  501    0  0.00000000000E+00 -0.00000000000E+00 -0.28409910138E+03  0.28409910142E+03  0.46700000000E-02 0. -1.
         23    2    1    2    0    0  0.00000000000E+00  0.00000000000E+00 -0.27727058047E+03  0.29092762392E+03  0.88090337540E+02 0.  0.
        -13    1    3    3    0    0  0.22884888303E+02 -0.36930109383E+02 -0.16254547538E+03  0.16825157899E+03  0.10570000000E+00 0. -1.
         13    1    3    3    0    0 -0.22884888303E+02  0.36930109383E+02 -0.11472510509E+03  0.12267604494E+03  0.10570000000E+00 0.  1.
<mgrwt>
<rscale>  0 0.88090338E+02</rscale>
<asrwt>0</asrwt>
<pdfrwt beam="2">  1        1 0.43707545E-01 0.88090338E+02</pdfrwt>
<pdfrwt beam="1">  1       -1 0.10505420E-02 0.88090338E+02</pdfrwt>
<totfact> 0.13895372E+05</totfact>
</mgrwt>
</event>
<event>
 5   1  0.1388354E+00  0.9073617E+02  0.7818608E-02  0.1301079E+00
         -1   -1    0    0    0  501 -0.00000000000E+00  0.00000000000E+00  0.36830478987E+02  0.36830479283E+02  0.46700000000E-02 0.  1.
          1   -1    0    0  501    0  0.00000000000E+00 -0.00000000000E+00 -0.55884782669E+02  0.55884782864E+02  0.46700000000E-02 0. -1.
         23    2    1    2    0    0  0.00000000000E+00  0.00000000000E+00 -0.19054303682E+02  0.92715262147E+02  0.90736174408E+02 0.  0.
        -13    1    3    3    0    0  0.14358007564E+02  0.41103655385E+02 -0.22556321589E+02  0.49035310577E+02  0.10570000000E+00 0.  1.
         13    1    3    3    0    0 -0.14358007564E+02 -0.41103655385E+02  0.35020179071E+01  0.43679951570E+02  0.10570000000E+00 0. -1.
<mgrwt>
<rscale>  0 0.90736174E+02</rscale>
<asrwt>0</asrwt>
<pdfrwt beam="2">  1        1 0.85976589E-02 0.90736174E+02</pdfrwt>
<pdfrwt beam="1">  1       -1 0.56662276E-02 0.90736174E+02</pdfrwt>
<totfact> 0.96636385E+04</totfact>
</mgrwt>
</event>
<event>
 5   1  0.1388354E+00  0.9182831E+02  0.7818608E-02  0.1298484E+00
          1   -1    0    0  501    0  0.00000000000E+00  0.00000000000E+00  0.19022536788E+03  0.19022536793E+03  0.46700000000E-02 0. -1.
         -1   -1    0    0    0  501 -0.00000000000E+00 -0.00000000000E+00 -0.11082167663E+02  0.11082168647E+02  0.46700000000E-02 0.  1.
         23    2    1    2    0    0  0.00000000000E+00  0.00000000000E+00  0.17914320021E+03  0.20130753658E+03  0.91828307734E+02 0.  0.
        -13    1    3    3    0    0  0.35580813942E+02  0.24276138611E+02  0.54717898946E+02  0.69637524828E+02  0.10570000000E+00 0.  1.
         13    1    3    3    0    0 -0.35580813942E+02 -0.24276138611E+02  0.12442530127E+03  0.13167001175E+03  0.10570000000E+00 0. -1.
<mgrwt>
<rscale>  0 0.91828308E+02</rscale>
<asrwt>0</asrwt>
<pdfrwt beam="1">  1        1 0.29265439E-01 0.91828308E+02</pdfrwt>
<pdfrwt beam="2">  1       -1 0.17049491E-02 0.91828308E+02</pdfrwt>
<totfact> 0.11504162E+05</totfact>
</mgrwt>
</event>
<event>
 5   1  0.1388354E+00  0.8954679E+02  0.7818608E-02  0.1303953E+00
         -1   -1    0    0    0  501 -0.00000000000E+00  0.00000000000E+00  0.21391158621E+03  0.21391158626E+03  0.46700000000E-02 0.  1.
          1   -1    0    0  501    0  0.00000000000E+00 -0.00000000000E+00 -0.93714272844E+01  0.93714284480E+01  0.46700000000E-02 0. -1.
         23    2    1    2    0    0  0.00000000000E+00  0.00000000000E+00  0.20454015893E+03  0.22328301471E+03  0.89546792485E+02 0.  0.
        -13    1    3    3    0    0 -0.41849506141E+02  0.99490154423E+01  0.71298528518E+02  0.83269774911E+02  0.10570000000E+00 0. -1.
         13    1    3    3    0    0  0.41849506141E+02 -0.99490154423E+01  0.13324163041E+03  0.14001323980E+03  0.10570000000E+00 0.  1.
<mgrwt>
<rscale>  0 0.89546792E+02</rscale>
<asrwt>0</asrwt>
<pdfrwt beam="2">  1        1 0.14417583E-02 0.89546792E+02</pdfrwt>
<pdfrwt beam="1">  1       -1 0.32909471E-01 0.89546792E+02</pdfrwt>
<totfact> 0.71343208E+04</totfact>
</mgrwt>
</event>
<event>
 5   1  0.1388354E+00  0.9175132E+02  0.7818608E-02  0.1298665E+00
         -1   -1    0    0    0  501 -0.00000000000E+00  0.00000000000E+00  0.15992719859E+02  0.15992720541E+02  0.46700000000E-02 0.  1.
          1   -1    0    0  501    0  0.00000000000E+00 -0.00000000000E+00 -0.13159589591E+03  0.13159589600E+03  0.46700000000E-02 0. -1.
         23    2    1    2    0    0  0.00000000000E+00  0.00000000000E+00 -0.11560317606E+03  0.14758861654E+03  0.91751323793E+02 0.  0.
        -13    1    3    3    0    0  0.24907629341E+02 -0.22882844609E+02 -0.10765566131E+03  0.11284399480E+03  0.10570000000E+00 0. -1.
         13    1    3    3    0    0 -0.24907629341E+02  0.22882844609E+02 -0.79475147411E+01  0.34744621739E+02  0.10570000000E+00 0.  1.
<mgrwt>
<rscale>  0 0.91751324E+02</rscale>
<asrwt>0</asrwt>
<pdfrwt beam="2">  1        1 0.20245522E-01 0.91751324E+02</pdfrwt>
<pdfrwt beam="1">  1       -1 0.24604186E-02 0.91751324E+02</pdfrwt>
<totfact> 0.10765713E+05</totfact>
</mgrwt>
</event>
<event>
 5   1  0.1388354E+00  0.9002168E+02  0.7818608E-02  0.1302799E+00
         -1   -1    0    0    0  501 -0.00000000000E+00  0.00000000000E+00  0.34640355713E+02  0.34640356028E+02  0.46700000000E-02 0.  1.
          1   -1    0    0  501    0  0.00000000000E+00 -0.00000000000E+00 -0.58486001763E+02  0.58486001949E+02  0.46700000000E-02 0. -1.
         23    2    1    2    0    0  0.00000000000E+00  0.00000000000E+00 -0.23845646050E+02  0.93126357977E+02  0.90021684691E+02 0.  0.
        -13    1    3    3    0    0  0.17812946621E+02 -0.37121359083E+02  0.68886074631E+01  0.41746382511E+02  0.10570000000E+00 0.  1.
         13    1    3    3    0    0 -0.17812946621E+02  0.37121359083E+02 -0.30734253513E+02  0.51379975467E+02  0.10570000000E+00 0. -1.
<mgrwt>
<rscale>  0 0.90021685E+02</rscale>
<asrwt>0</asrwt>
<pdfrwt beam="2">  1        1 0.89978465E-02 0.90021685E+02</pdfrwt>
<pdfrwt beam="1">  1       -1 0.53292855E-02 0.90021685E+02</pdfrwt>
<totfact> 0.99453100E+04</totfact>
</mgrwt>
</event>
<event>
 5   1  0.1388354E+00  0.8988833E+02  0.7818608E-02  0.1303122E+00
          1   -1    0    0  501    0  0.00000000000E+00  0.00000000000E+00  0.23171557947E+02  0.23171558418E+02  0.46700000000E-02 0. -1.
         -1   -1    0    0    0  501 -0.00000000000E+00 -0.00000000000E+00 -0.87174892063E+02  0.87174892188E+02  0.46700000000E-02 0.  1.
         23    2    1    2    0    0  0.00000000000E+00  0.00000000000E+00 -0.64003334115E+02  0.11034645061E+03  0.89888332855E+02 0.  0.
        -13    1    3    3    0    0  0.71464503047E+01  0.19043283476E+02  0.17197915007E+02  0.26636400857E+02  0.10570000000E+00 0. -1.
         13    1    3    3    0    0 -0.71464503047E+01 -0.19043283476E+02 -0.81201249122E+02  0.83710049749E+02  0.10570000000E+00 0.  1.
<mgrwt>
<rscale>  0 0.89888333E+02</rscale>
<asrwt>0</asrwt>
<pdfrwt beam="1">  1        1 0.35648552E-02 0.89888333E+02</pdfrwt>
<pdfrwt beam="2">  1       -1 0.13411522E-01 0.89888333E+02</pdfrwt>
<totfact> 0.86508940E+04</totfact>
</mgrwt>
</event>
<event>
 5   1  0.1388354E+00  0.9190303E+02  0.7818608E-02  0.1298308E+00
          1   -1    0    0  501    0  0.00000000000E+00  0.00000000000E+00  0.39530695955E+02  0.39530696231E+02  0.46700000000E-02 0. -1.
         -1   -1    0    0    0  501 -0.00000000000E+00 -0.00000000000E+00 -0.53415241189E+02  0.53415241393E+02  0.46700000000E-02 0.  1.
         23    2    1    2    0    0  0.00000000000E+00  0.00000000000E+00 -0.13884545234E+02  0.92945937625E+02  0.91903028919E+02 0.  0.
        -13    1    3    3    0    0  0.24490599195E+02  0.16391821793E+01 -0.46229646389E+02  0.52341835513E+02  0.10570000000E+00 0.  1.
         13    1    3    3    0    0 -0.24490599195E+02 -0.16391821793E+01  0.32345101155E+02  0.40604102112E+02  0.10570000000E+00 0. -1.
<mgrwt>
<rscale>  0 0.91903029E+02</rscale>
<asrwt>0</asrwt>
<pdfrwt beam="1">  1        1 0.60816456E-02 0.91903029E+02</pdfrwt>
<pdfrwt beam="2">  1       -1 0.82177295E-02 0.91903029E+02</pdfrwt>
<totfact> 0.88491113E+04</totfact>
</mgrwt>
</event>
<event>
 5   1  0.1388354E+00  0.9095924E+02  0.7818608E-02  0.1300545E+00
         -1   -1    0    0    0  501 -0.00000000000E+00  0.00000000000E+00  0.15824646723E+02  0.15824647413E+02  0.46700000000E-02 0.  1.
          1   -1    0    0  501    0  0.00000000000E+00 -0.00000000000E+00 -0.13070723606E+03  0.13070723614E+03  0.46700000000E-02 0. -1.
         23    2    1    2    0    0  0.00000000000E+00  0.00000000000E+00 -0.11488258934E+03  0.14653188356E+03  0.90959241234E+02 0.  0.
        -13    1    3    3    0    0  0.38760331300E+02  0.10777624347E+01 -0.95728675853E+02  0.10328366477E+03  0.10570000000E+00 0. -1.
         13    1    3    3    0    0 -0.38760331300E+02 -0.10777624347E+01 -0.19153913485E+02  0.43248218791E+02  0.10570000000E+00 0.  1.
<mgrwt>
<rscale>  0 0.90959241E+02</rscale>
<asrwt>0</asrwt>
<pdfrwt beam="2">  1        1 0.20108805E-01 0.90959241E+02</pdfrwt>
<pdfrwt beam="1">  1       -1 0.24345612E-02 0.90959241E+02</pdfrwt>
<totfact> 0.11008240E+05</totfact>
</mgrwt>
</event>
<event>
 5   1  0.1388354E+00  0.9152857E+02  0.7818608E-02  0.1299192E+00
          1   -1    0    0  501    0  0.00000000000E+00  0.00000000000E+00  0.11539790738E+03  0.11539790748E+03  0.46700000000E-02 0. -1.
         -1   -1    0    0    0  501 -0.00000000000E+00 -0.00000000000E+00 -0.18149112284E+02  0.18149112885E+02  0.46700000000E-02 0.  1.
         23    2    1    2    0    0  0.00000000000E+00  0.00000000000E+00  0.97248795100E+02  0.13354702036E+03  0.91528566576E+02 0.  0.
        -13    1    3    3    0    0 -0.45577745537E+02 -0.96701434862E+00  0.54477533219E+02  0.71035757215E+02  0.10570000000E+00 0. -1.
         13    1    3    3    0    0  0.45577745537E+02  0.96701434862E+00  0.42771261880E+02  0.62511263147E+02  0.10570000000E+00 0.  1.
<mgrwt>
<rscale>  0 0.91528567E+02</rscale>
<asrwt>0</asrwt>
<pdfrwt beam="1">  1        1 0.17753524E-01 0.91528567E+02</pdfrwt>
<pdfrwt beam="2">  1       -1 0.27921711E-02 0.91528567E+02</pdfrwt>
<totfact> 0.10589876E+05</totfact>
</mgrwt>
</event>
<event>
 5   1  0.1388354E+00  0.9041039E+02  0.7818608E-02  0.1301861E+00
          1   -1    0    0  501    0  0.00000000000E+00  0.00000000000E+00  0.33108596122E+03  0.33108596126E+03  0.46700000000E-02 0. -1.
         -1   -1    0    0    0  501 -0.00000000000E+00 -0.00000000000E+00 -0.61721415740E+01  0.61721433408E+01  0.46700000000E-02 0.  1.
         23    2    1    2    0    0  0.00000000000E+00  0.00000000000E+00  0.32491381965E+03  0.33725810460E+03  0.90410391645E+02 0.  0.
        -13    1    3    3    0    0  0.14861422550E+02 -0.42686292914E+02  0.15977452957E+03  0.16604485224E+03  0.10570000000E+00 0. -1.
         13    1    3    3    0    0 -0.14861422550E+02  0.42686292914E+02  0.16513929008E+03  0.17121325236E+03  0.10570000000E+00 0.  1.
<mgrwt>
<rscale>  0 0.90410392E+02</rscale>
<asrwt>0</asrwt>
<pdfrwt beam="1">  1        1 0.50936295E-01 0.90410392E+02</pdfrwt>
<pdfrwt beam="2">  1       -1 0.94956050E-03 0.90410392E+02</pdfrwt>
<totfact> 0.13347442E+05</totfact>
</mgrwt>
</event>
<event>
 5   1  0.1388354E+00  0.8825461E+02  0.7818608E-02  0.1307134E+00
          1   -1    0    0  501    0  0.00000000000E+00  0.00000000000E+00  0.33671120922E+02  0.33671121245E+02  0.46700000000E-02 0. -1.
         -1   -1    0    0    0  501 -0.00000000000E+00 -0.00000000000E+00 -0.57830543630E+02  0.57830543818E+02  0.46700000000E-02 0.  1.
         23    2    1    2    0    0  0.00000000000E+00  0.00000000000E+00 -0.24159422708E+02  0.91501665064E+02  0.88254614632E+02 0.  0.
        -13    1    3    3    0    0 -0.13348085430E+02 -0.29443356965E+02 -0.43220172204E+02  0.53972929436E+02  0.10570000000E+00 0.  1.
         13    1    3    3    0    0  0.13348085430E+02  0.29443356965E+02  0.19060749496E+02  0.37528735628E+02  0.10570000000E+00 0. -1.
<mgrwt>
<rscale>  0 0.88254615E+02</rscale>
<asrwt>0</asrwt>
<pdfrwt beam="1">  1        1 0.51801725E-02 0.88254615E+02</pdfrwt>
<pdfrwt beam="2">  1       -1 0.88970067E-02 0.88254615E+02</pdfrwt>
<totfact> 0.96848301E+04</totfact>
</mgrwt>
</event>
<event>
 5   1  0.1388354E+00  0.9088763E+02  0.7818608E-02  0.1300716E+00
          1   -1    0    0  501    0  0.00000000000E+00  0.00000000000E+00  0.30893725005E+02  0.30893725358E+02  0.46700000000E-02 0. -1.
         -1   -1    0    0    0  501 -0.00000000000E+00 -0.00000000000E+00 -0.66846587968E+02  0.66846588131E+02  0.46700000000E-02 0.  1.
         23    2    1    2    0    0  0.00000000000E+00  0.00000000000E+00 -0.35952862963E+02  0.97740313489E+02  0.90887625812E+02 0.  0.
        -13    1    3    3    0    0 -0.77745121555E+01 -0.84408836753E+01  0.29309726266E+02  0.31476384525E+02  0.10570000000E+00 0. -1.
         13    1    3    3    0    0  0.77745121555E+01  0.84408836753E+01 -0.65262589229E+02  0.66263928964E+02  0.10570000000E+00 0.  1.
<mgrwt>
<rscale>  0 0.90887626E+02</rscale>
<asrwt>0</asrwt>
<pdfrwt beam="1">  1        1 0.47528809E-02 0.90887626E+02</pdfrwt>
<pdfrwt beam="2">  1       -1 0.10284090E-01 0.90887626E+02</pdfrwt>
<totfact> 0.87890646E+04</totfact>
</mgrwt>
</event>
<event>
 5   1  0.1388354E+00  0.9230733E+02  0.7818608E-02  0.1297358E+00
         -1   -1    0    0    0  501 -0.00000000000E+00  0.00000000000E+00  0.40301636393E+02  0.40301636663E+02  0.46700000000E-02 0.  1.
          1   -1    0    0  501    0  0.00000000000E+00 -0.00000000000E+00 -0.52855437448E+02  0.52855437654E+02  0.46700000000E-02 0. -1.
         23    2    1    2    0    0  0.00000000000E+00  0.00000000000E+00 -0.12553801055E+02  0.93157074317E+02  0.92307326765E+02 0.  0.
        -13    1    3    3    0    0  0.35760843463E+02 -0.12207263916E+02 -0.33021692501E+02  0.50182652038E+02  0.10570000000E+00 0. -1.
         13    1    3    3    0    0 -0.35760843463E+02  0.12207263916E+02  0.20467891446E+02  0.42974422279E+02  0.10570000000E+00 0.  1.
<mgrwt>
<rscale>  0 0.92307327E+02</rscale>
<asrwt>0</asrwt>
<pdfrwt beam="2">  1        1 0.81316058E-02 0.92307327E+02</pdfrwt>
<pdfrwt beam="1">  1       -1 0.62002518E-02 0.92307327E+02</pdfrwt>
<totfact> 0.91349235E+04</totfact>
</mgrwt>
</event>
<event>
 5   1  0.1388354E+00  0.9047931E+02  0.7818608E-02  0.1301695E+00
          1   -1    0    0  501    0  0.00000000000E+00  0.00000000000E+00  0.10178038267E+02  0.10178039338E+02  0.46700000000E-02 0. -1.
         -1   -1    0    0    0  501 -0.00000000000E+00 -0.00000000000E+00 -0.20108257985E+03  0.20108257991E+03  0.46700000000E-02 0.  1.
         23    2    1    2    0    0  0.00000000000E+00  0.00000000000E+00 -0.19090454159E+03  0.21126061925E+03  0.90479308383E+02 0.  0.
        -13    1    3    3    0    0  0.33364194142E+02 -0.23002885909E+02 -0.14240145933E+03  0.14805569561E+03  0.10570000000E+00 0.  1.
         13    1    3    3    0    0 -0.33364194142E+02  0.23002885909E+02 -0.48503082260E+02  0.63204923638E+02  0.10570000000E+00 0. -1.
<mgrwt>
<rscale>  0 0.90479308E+02</rscale>
<asrwt>0</asrwt>
<pdfrwt beam="1">  1        1 0.15658523E-02 0.90479308E+02</pdfrwt>
<pdfrwt beam="2">  1       -1 0.30935779E-01 0.90479308E+02</pdfrwt>
<totfact> 0.70717247E+04</totfact>
</mgrwt>
</event>
<event>
 5   1  0.1388354E+00  0.9071063E+02  0.7818608E-02  0.1301140E+00
          1   -1    0    0  501    0  0.00000000000E+00  0.00000000000E+00  0.85861306585E+02  0.85861306712E+02  0.46700000000E-02 0. -1.
         -1   -1    0    0    0  501 -0.00000000000E+00 -0.00000000000E+00 -0.23958459575E+02  0.23958460030E+02  0.46700000000E-02 0.  1.
         23    2    1    2    0    0  0.00000000000E+00  0.00000000000E+00  0.61902847011E+02  0.10981976674E+03  0.90710631678E+02 0.  0.
        -13    1    3    3    0    0 -0.91644638129E+01 -0.36309016018E+02  0.61930172822E+02  0.72371883487E+02  0.10570000000E+00 0. -1.
         13    1    3    3    0    0  0.91644638129E+01  0.36309016018E+02 -0.27325811556E-01  0.37447883256E+02  0.10570000000E+00 0.  1.
<mgrwt>
<rscale>  0 0.90710632E+02</rscale>
<asrwt>0</asrwt>
<pdfrwt beam="1">  1        1 0.13209432E-01 0.90710632E+02</pdfrwt>
<pdfrwt beam="2">  1       -1 0.36859168E-02 0.90710632E+02</pdfrwt>
<totfact> 0.10332312E+05</totfact>
</mgrwt>
</event>
<event>
 5   1  0.1388354E+00  0.9403861E+02  0.7818608E-02  0.1293356E+00
         -1   -1    0    0    0  501 -0.00000000000E+00  0.00000000000E+00  0.84510902653E+01  0.84510915556E+01  0.46700000000E-02 0.  1.
          1   -1    0    0  501    0  0.00000000000E+00 -0.00000000000E+00 -0.26160113442E+03  0.26160113446E+03  0.46700000000E-02 0. -1.
         23    2    1    2    0    0  0.00000000000E+00  0.00000000000E+00 -0.25315004415E+03  0.27005222602E+03  0.94038608674E+02 0.  0.
        -13    1    3    3    0    0 -0.44230799106E+02 -0.44292065931E+01 -0.82569084447E+02  0.93774443957E+02  0.10570000000E+00 0.  1.
         13    1    3    3    0    0  0.44230799106E+02  0.44292065931E+01 -0.17058095971E+03  0.17627778206E+03  0.10570000000E+00 0. -1.
<mgrwt>
<rscale>  0 0.94038609E+02</rscale>
<asrwt>0</asrwt>
<pdfrwt beam="2">  1        1 0.40246322E-01 0.94038609E+02</pdfrwt>
<pdfrwt beam="1">  1       -1 0.13001680E-02 0.94038609E+02</pdfrwt>
<totfact> 0.11486737E+05</totfact>
</mgrwt>
</event>
<event>
 5   1  0.1388354E+00  0.9761108E+02  0.7818608E-02  0.1285401E+00
          1   -1    0    0  501    0  0.00000000000E+00  0.00000000000E+00  0.19850533008E+02  0.19850533558E+02  0.46700000000E-02 0. -1.
         -1   -1    0    0    0  501 -0.00000000000E+00 -0.00000000000E+00 -0.11999580120E+03  0.11999580130E+03  0.46700000000E-02 0.  1.
         23    2    1    2    0    0  0.00000000000E+00  0.00000000000E+00 -0.10014526820E+03  0.13984633485E+03  0.97611078417E+02 0.  0.
        -13    1    3    3    0    0 -0.47525742756E+02  0.94742620513E+01 -0.41778908117E+02  0.63983952690E+02  0.10570000000E+00 0.  1.
         13    1    3    3    0    0  0.47525742756E+02 -0.94742620513E+01 -0.58366360079E+02  0.75862382162E+02  0.10570000000E+00 0. -1.
<mgrwt>
<rscale>  0 0.97611078E+02</rscale>
<asrwt>0</asrwt>
<pdfrwt beam="1">  1        1 0.30539283E-02 0.97611078E+02</pdfrwt>
<pdfrwt beam="2">  1       -1 0.18460892E-01 0.97611078E+02</pdfrwt>
<totfact> 0.65814926E+04</totfact>
</mgrwt>
</event>
<event>
 5   1  0.1388354E+00  0.9018260E+02  0.7818608E-02  0.1302410E+00
         -1   -1    0    0    0  501 -0.00000000000E+00  0.00000000000E+00  0.57037590164E+02  0.57037590355E+02  0.46700000000E-02 0. -1.
          1   -1    0    0  501    0  0.00000000000E+00 -0.00000000000E+00 -0.35647107980E+02  0.35647108286E+02  0.46700000000E-02 0.  1.
         23    2    1    2    0    0  0.00000000000E+00  0.00000000000E+00  0.21390482184E+02  0.92684698641E+02  0.90182596071E+02 0.  0.
        -13    1    3    3    0    0  0.32187369764E+02 -0.24556159407E+02 -0.97096292983E+01  0.41633157588E+02  0.10570000000E+00 0.  1.
         13    1    3    3    0    0 -0.32187369764E+02  0.24556159407E+02  0.31100111482E+02  0.51051541053E+02  0.10570000000E+00 0. -1.
<mgrwt>
<rscale>  0 0.90182596E+02</rscale>
<asrwt>0</asrwt>
<pdfrwt beam="2">  1        1 0.54841705E-02 0.90182596E+02</pdfrwt>
<pdfrwt beam="1">  1       -1 0.87750139E-02 0.90182596E+02</pdfrwt>
<totfact> 0.91891440E+04</totfact>
</mgrwt>
</event>
<event>
 5   1  0.1388354E+00  0.9676862E+02  0.7818608E-02  0.1287242E+00
         -1   -1    0    0    0  501 -0.00000000000E+00  0.00000000000E+00  0.26258197280E+02  0.26258197695E+02  0.46700000000E-02 0.  1.
          1   -1    0    0  501    0  0.00000000000E+00 -0.00000000000E+00 -0.89154684221E+02  0.89154684343E+02  0.46700000000E-02 0. -1.
         23    2    1    2    0    0  0.00000000000E+00  0.00000000000E+00 -0.62896486941E+02  0.11541288204E+03  0.96768617179E+02 0.  0.
        -13    1    3    3    0    0  0.37329964817E+02  0.28671747748E+02 -0.18090635578E+02  0.50426953707E+02  0.10570000000E+00 0. -1.
         13    1    3    3    0    0 -0.37329964817E+02 -0.28671747748E+02 -0.44805851363E+02  0.64985928331E+02  0.10570000000E+00 0.  1.
<mgrwt>
<rscale>  0 0.96768617E+02</rscale>
<asrwt>0</asrwt>
<pdfrwt beam="2">  1        1 0.13716105E-01 0.96768617E+02</pdfrwt>
<pdfrwt beam="1">  1       -1 0.40397227E-02 0.96768617E+02</pdfrwt>
<totfact> 0.87034448E+04</totfact>
</mgrwt>
</event>
<event>
 5   1  0.1388354E+00  0.9169447E+02  0.7818608E-02  0.1298799E+00
          1   -1    0    0  501    0  0.00000000000E+00  0.00000000000E+00  0.12623217698E+03  0.12623217706E+03  0.46700000000E-02 0. -1.
         -1   -1    0    0    0  501 -0.00000000000E+00 -0.00000000000E+00 -0.16651609066E+02  0.16651609721E+02  0.46700000000E-02 0.  1.
         23    2    1    2    0    0  0.00000000000E+00  0.00000000000E+00  0.10958056791E+03  0.14288378678E+03  0.91694469092E+02 0.  0.
        -13    1    3    3    0    0 -0.15942647153E+02  0.27313199222E+02  0.10651368041E+03  0.11110964917E+03  0.10570000000E+00 0. -1.
         13    1    3    3    0    0  0.15942647153E+02 -0.27313199222E+02  0.30668874982E+01  0.31774137619E+02  0.10570000000E+00 0.  1.
<mgrwt>
<rscale>  0 0.91694469E+02</rscale>
<asrwt>0</asrwt>
<pdfrwt beam="1">  1        1 0.19420335E-01 0.91694469E+02</pdfrwt>
<pdfrwt beam="2">  1       -1 0.25617860E-02 0.91694469E+02</pdfrwt>
<totfact> 0.10704296E+05</totfact>
</mgrwt>
</event>
<event>
 5   1  0.1388354E+00  0.9292009E+02  0.7818608E-02  0.1295930E+00
          1   -1    0    0  501    0  0.00000000000E+00  0.00000000000E+00  0.58309621124E+02  0.58309621311E+02  0.46700000000E-02 0. -1.
         -1   -1    0    0    0  501 -0.00000000000E+00 -0.00000000000E+00 -0.37018521076E+02  0.37018521371E+02  0.46700000000E-02 0.  1.
         23    2    1    2    0    0  0.00000000000E+00  0.00000000000E+00  0.21291100048E+02  0.95328142682E+02  0.92920093876E+02 0.  0.
        -13    1    3    3    0    0 -0.25547996579E+02 -0.15699339779E+02  0.47052612945E+02  0.55795420566E+02  0.10570000000E+00 0. -1.
         13    1    3    3    0    0  0.25547996579E+02  0.15699339779E+02 -0.25761512897E+02  0.39532722116E+02  0.10570000000E+00 0.  1.
<mgrwt>
<rscale>  0 0.92920094E+02</rscale>
<asrwt>0</asrwt>
<pdfrwt beam="1">  1        1 0.89707109E-02 0.92920094E+02</pdfrwt>
<pdfrwt beam="2">  1       -1 0.56951572E-02 0.92920094E+02</pdfrwt>
<totfact> 0.91028344E+04</totfact>
</mgrwt>
</event>
<event>
 5   1  0.1388354E+00  0.9076776E+02  0.7818608E-02  0.1301003E+00
          1   -1    0    0  501    0  0.00000000000E+00  0.00000000000E+00  0.36270470560E+02  0.36270470860E+02  0.46700000000E-02 0. -1.
         -1   -1    0    0    0  501 -0.00000000000E+00 -0.00000000000E+00 -0.56787144687E+02  0.56787144879E+02  0.46700000000E-02 0.  1.
         23    2    1    2    0    0  0.00000000000E+00  0.00000000000E+00 -0.20516674128E+02  0.93057615740E+02  0.90767758207E+02 0.  0.
        -13    1    3    3    0    0  0.50139006000E+01 -0.44147557269E+02 -0.77626716448E+00  0.44438269265E+02  0.10570000000E+00 0.  1.
         13    1    3    3    0    0 -0.50139006000E+01  0.44147557269E+02 -0.19740406963E+02  0.48619346475E+02  0.10570000000E+00 0. -1.
<mgrwt>
<rscale>  0 0.90767758E+02</rscale>
<asrwt>0</asrwt>
<pdfrwt beam="1">  1        1 0.55800724E-02 0.90767758E+02</pdfrwt>
<pdfrwt beam="2">  1       -1 0.87364839E-02 0.90767758E+02</pdfrwt>
<totfact> 0.90462613E+04</totfact>
</mgrwt>
</event>
<event>
 5   1  0.1388354E+00  0.9396256E+02  0.7818608E-02  0.1293530E+00
         -1   -1    0    0    0  501 -0.00000000000E+00  0.00000000000E+00  0.12040867336E+03  0.12040867345E+03  0.46700000000E-02 0.  1.
          1   -1    0    0  501    0  0.00000000000E+00 -0.00000000000E+00 -0.18331243391E+02  0.18331243986E+02  0.46700000000E-02 0. -1.
         23    2    1    2    0    0  0.00000000000E+00  0.00000000000E+00  0.10207742997E+03  0.13873991744E+03  0.93962561593E+02 0.  0.
        -13    1    3    3    0    0 -0.23240189544E+02 -0.15781848784E+02  0.10664108938E+03  0.11027921961E+03  0.10570000000E+00 0.  1.
         13    1    3    3    0    0  0.23240189544E+02  0.15781848784E+02 -0.45636594103E+01  0.28460697827E+02  0.10570000000E+00 0. -1.
<mgrwt>
<rscale>  0 0.93962562E+02</rscale>
<asrwt>0</asrwt>
<pdfrwt beam="2">  1        1 0.28201913E-02 0.93962562E+02</pdfrwt>
<pdfrwt beam="1">  1       -1 0.18524412E-01 0.93962562E+02</pdfrwt>
<totfact> 0.72593140E+04</totfact>
</mgrwt>
</event>
<event>
 5   1  0.1388354E+00  0.8455482E+02  0.7818608E-02  0.1316601E+00
          1   -1    0    0  501    0  0.00000000000E+00  0.00000000000E+00  0.10279369528E+03  0.10279369538E+03  0.46700000000E-02 0. -1.
         -1   -1    0    0    0  501 -0.00000000000E+00 -0.00000000000E+00 -0.17388025908E+02  0.17388026535E+02  0.46700000000E-02 0.  1.
         23    2    1    2    0    0  0.00000000000E+00  0.00000000000E+00  0.85405669371E+02  0.12018172192E+03  0.84554821996E+02 0.  0.
        -13    1    3    3    0    0  0.36284742906E+02 -0.12725973410E+02  0.67681172726E+02  0.77841411094E+02  0.10570000000E+00 0. -1.
         13    1    3    3    0    0 -0.36284742906E+02  0.12725973410E+02  0.17724496645E+02  0.42340310826E+02  0.10570000000E+00 0.  1.
<mgrwt>
<rscale>  0 0.84554822E+02</rscale>
<asrwt>0</asrwt>
<pdfrwt beam="1">  1        1 0.15814415E-01 0.84554822E+02</pdfrwt>
<pdfrwt beam="2">  1       -1 0.26750810E-02 0.84554822E+02</pdfrwt>
<totfact> 0.12870898E+05</totfact>
</mgrwt>
</event>
<event>
 5   1  0.1388354E+00  0.9101701E+02  0.7818608E-02  0.1300407E+00
          1   -1    0    0  501    0  0.00000000000E+00  0.00000000000E+00  0.14012779992E+02  0.14012780770E+02  0.46700000000E-02 0. -1.
         -1   -1    0    0    0  501 -0.00000000000E+00 -0.00000000000E+00 -0.14779536690E+03  0.14779536697E+03  0.46700000000E-02 0.  1.
         23    2    1    2    0    0  0.00000000000E+00  0.00000000000E+00 -0.13378258691E+03  0.16180814774E+03  0.91017010040E+02 0.  0.
        -13    1    3    3    0    0 -0.18414585942E+02 -0.28699322013E+02 -0.13313593858E+02  0.36606160866E+02  0.10570000000E+00 0. -1.
         13    1    3    3    0    0  0.18414585942E+02  0.28699322013E+02 -0.12046899305E+03  0.12520198688E+03  0.10570000000E+00 0.  1.
<mgrwt>
<rscale>  0 0.91017010E+02</rscale>
<asrwt>0</asrwt>
<pdfrwt beam="1">  1        1 0.21558125E-02 0.91017010E+02</pdfrwt>
<pdfrwt beam="2">  1       -1 0.22737748E-01 0.91017010E+02</pdfrwt>
<totfact> 0.75389720E+04</totfact>
</mgrwt>
</event>
<event>
 5   1  0.1388354E+00  0.9309055E+02  0.7818608E-02  0.1295535E+00
          1   -1    0    0  501    0  0.00000000000E+00  0.00000000000E+00  0.36636289770E+03  0.36636289773E+03  0.46700000000E-02 0. -1.
         -1   -1    0    0    0  501 -0.00000000000E+00 -0.00000000000E+00 -0.59134326271E+01  0.59134344711E+01  0.46700000000E-02 0.  1.
         23    2    1    2    0    0  0.00000000000E+00  0.00000000000E+00  0.36044946507E+03  0.37227633220E+03  0.93090550785E+02 0.  0.
        -13    1    3    3    0    0 -0.37421429808E+02  0.27224741594E+02  0.20018070060E+03  0.20546015193E+03  0.10570000000E+00 0.  1.
         13    1    3    3    0    0  0.37421429808E+02 -0.27224741594E+02  0.16026876447E+03  0.16681618027E+03  0.10570000000E+00 0. -1.
<mgrwt>
<rscale>  0 0.93090551E+02</rscale>
<asrwt>0</asrwt>
<pdfrwt beam="1">  1        1 0.56363529E-01 0.93090551E+02</pdfrwt>
<pdfrwt beam="2">  1       -1 0.90975891E-03 0.93090551E+02</pdfrwt>
<totfact> 0.12574899E+05</totfact>
</mgrwt>
</event>
<event>
 5   1  0.1388354E+00  0.9214855E+02  0.7818608E-02  0.1297731E+00
          1   -1    0    0  501    0  0.00000000000E+00  0.00000000000E+00  0.99138343076E+02  0.99138343186E+02  0.46700000000E-02 0. -1.
         -1   -1    0    0    0  501 -0.00000000000E+00 -0.00000000000E+00 -0.21412891954E+02  0.21412892463E+02  0.46700000000E-02 0.  1.
         23    2    1    2    0    0  0.00000000000E+00  0.00000000000E+00  0.77725451122E+02  0.12055123565E+03  0.92148546729E+02 0.  0.
        -13    1    3    3    0    0 -0.22174482313E+02  0.29732888978E+01 -0.13829434216E+02  0.26302329477E+02  0.10570000000E+00 0.  1.
         13    1    3    3    0    0  0.22174482313E+02 -0.29732888978E+01  0.91554885338E+02  0.94248906171E+02  0.10570000000E+00 0. -1.
<mgrwt>
<rscale>  0 0.92148547E+02</rscale>
<asrwt>0</asrwt>
<pdfrwt beam="1">  1        1 0.15252053E-01 0.92148547E+02</pdfrwt>
<pdfrwt beam="2">  1       -1 0.32942911E-02 0.92148547E+02</pdfrwt>
<totfact> 0.10132515E+05</totfact>
</mgrwt>
</event>
<event>
 5   1  0.1388354E+00  0.9947427E+02  0.7818608E-02  0.1281405E+00
          1   -1    0    0  501    0  0.00000000000E+00  0.00000000000E+00  0.13567542826E+02  0.13567543630E+02  0.46700000000E-02 0. -1.
         -1   -1    0    0    0  501 -0.00000000000E+00 -0.00000000000E+00 -0.18233092947E+03  0.18233092953E+03  0.46700000000E-02 0.  1.
         23    2    1    2    0    0  0.00000000000E+00  0.00000000000E+00 -0.16876338664E+03  0.19589847316E+03  0.99474273633E+02 0.  0.
        -13    1    3    3    0    0  0.32810672240E+00 -0.34416934396E+02 -0.15508994144E+03  0.15886325609E+03  0.10570000000E+00 0.  1.
         13    1    3    3    0    0 -0.32810672240E+00  0.34416934396E+02 -0.13673445205E+02  0.37035217071E+02  0.10570000000E+00 0. -1.
<mgrwt>
<rscale>  0 0.99474274E+02</rscale>
<asrwt>0</asrwt>
<pdfrwt beam="1">  1        1 0.20873145E-02 0.99474274E+02</pdfrwt>
<pdfrwt beam="2">  1       -1 0.28050911E-01 0.99474274E+02</pdfrwt>
<totfact> 0.56741365E+04</totfact>
</mgrwt>
</event>
<event>
 5   1  0.1388354E+00  0.5884583E+02  0.7818608E-02  0.1402740E+00
         -1   -1    0    0    0  501 -0.00000000000E+00  0.00000000000E+00  0.69520370453E+01  0.69520386138E+01  0.46700000000E-02 0.  1.
          1   -1    0    0  501    0  0.00000000000E+00 -0.00000000000E+00 -0.12452576657E+03  0.12452576665E+03  0.46700000000E-02 0. -1.
         23    2    1    2    0    0  0.00000000000E+00  0.00000000000E+00 -0.11757372952E+03  0.13147780527E+03  0.58845827418E+02 0.  0.
        -13    1    3    3    0    0 -0.53644179888E+01 -0.28468660298E+02 -0.70278750641E+02  0.76015495549E+02  0.10570000000E+00 0. -1.
         13    1    3    3    0    0  0.53644179888E+01  0.28468660298E+02 -0.47294978879E+02  0.55462309717E+02  0.10570000000E+00 0.  1.
<mgrwt>
<rscale>  0 0.58845827E+02</rscale>
<asrwt>0</asrwt>
<pdfrwt beam="2">  1        1 0.19157809E-01 0.58845827E+02</pdfrwt>
<pdfrwt beam="1">  1       -1 0.10695444E-02 0.58845827E+02</pdfrwt>
<totfact> 0.34413573E+05</totfact>
</mgrwt>
</event>
<event>
 5   1  0.1388354E+00  0.9106944E+02  0.7818608E-02  0.1300282E+00
         -1   -1    0    0    0  501 -0.00000000000E+00  0.00000000000E+00  0.82885951027E+02  0.82885951159E+02  0.46700000000E-02 0.  1.
          1   -1    0    0  501    0  0.00000000000E+00 -0.00000000000E+00 -0.25015223598E+02  0.25015224034E+02  0.46700000000E-02 0. -1.
         23    2    1    2    0    0  0.00000000000E+00  0.00000000000E+00  0.57870727430E+02  0.10790117519E+03  0.91069437874E+02 0.  0.
        -13    1    3    3    0    0  0.35108770436E+02  0.21938172431E+02  0.64708460610E+01  0.41902174076E+02  0.10570000000E+00 0.  1.
         13    1    3    3    0    0 -0.35108770436E+02 -0.21938172431E+02  0.51399881369E+02  0.65999001116E+02  0.10570000000E+00 0. -1.
<mgrwt>
<rscale>  0 0.91069438E+02</rscale>
<asrwt>0</asrwt>
<pdfrwt beam="2">  1        1 0.38484960E-02 0.91069438E+02</pdfrwt>
<pdfrwt beam="1">  1       -1 0.12751685E-01 0.91069438E+02</pdfrwt>
<totfact> 0.84396365E+04</totfact>
</mgrwt>
</event>
<event>
 5   1  0.1388354E+00  0.8381289E+02  0.7818608E-02  0.1318566E+00
          1   -1    0    0  501    0  0.00000000000E+00  0.00000000000E+00  0.21052817433E+03  0.21052817439E+03  0.46700000000E-02 0. -1.
         -1   -1    0    0    0  501 -0.00000000000E+00 -0.00000000000E+00 -0.83416384463E+01  0.83416397536E+01  0.46700000000E-02 0.  1.
         23    2    1    2    0    0  0.00000000000E+00  0.00000000000E+00  0.20218653589E+03  0.21886981414E+03  0.83812888312E+02 0.  0.
        -13    1    3    3    0    0  0.30238276263E+02 -0.46115807368E+01  0.26290211050E+02  0.40333688125E+02  0.10570000000E+00 0. -1.
         13    1    3    3    0    0 -0.30238276263E+02  0.46115807368E+01  0.17589632484E+03  0.17853612601E+03  0.10570000000E+00 0.  1.
<mgrwt>
<rscale>  0 0.83812888E+02</rscale>
<asrwt>0</asrwt>
<pdfrwt beam="1">  1        1 0.32388948E-01 0.83812888E+02</pdfrwt>
<pdfrwt beam="2">  1       -1 0.12833292E-02 0.83812888E+02</pdfrwt>
<totfact> 0.14969039E+05</totfact>
</mgrwt>
</event>
<event>
 5   1  0.1388354E+00  0.9140023E+02  0.7818608E-02  0.1299496E+00
          1   -1    0    0  501    0  0.00000000000E+00  0.00000000000E+00  0.27390901719E+02  0.27390902117E+02  0.46700000000E-02 0. -1.
         -1   -1    0    0    0  501 -0.00000000000E+00 -0.00000000000E+00 -0.76247968282E+02  0.76247968425E+02  0.46700000000E-02 0.  1.
         23    2    1    2    0    0  0.00000000000E+00  0.00000000000E+00 -0.48857066563E+02  0.10363887054E+03  0.91400232681E+02 0.  0.
        -13    1    3    3    0    0  0.31883169999E+02 -0.81151002158E+01  0.11537747486E+02  0.34864339521E+02  0.10570000000E+00 0. -1.
         13    1    3    3    0    0 -0.31883169999E+02  0.81151002158E+01 -0.60394814049E+02  0.68774531021E+02  0.10570000000E+00 0.  1.
<mgrwt>
<rscale>  0 0.91400233E+02</rscale>
<asrwt>0</asrwt>
<pdfrwt beam="1">  1        1 0.42139850E-02 0.91400233E+02</pdfrwt>
<pdfrwt beam="2">  1       -1 0.11730457E-01 0.91400233E+02</pdfrwt>
<totfact> 0.84802401E+04</totfact>
</mgrwt>
</event>
<event>
 5   1  0.1388354E+00  0.9387674E+02  0.7818608E-02  0.1293726E+00
          1   -1    0    0  501    0  0.00000000000E+00  0.00000000000E+00  0.63640834660E+02  0.63640834832E+02  0.46700000000E-02 0. -1.
         -1   -1    0    0    0  501 -0.00000000000E+00 -0.00000000000E+00 -0.34619447755E+02  0.34619448070E+02  0.46700000000E-02 0.  1.
         23    2    1    2    0    0  0.00000000000E+00  0.00000000000E+00  0.29021386905E+02  0.98260282902E+02  0.93876739920E+02 0.  0.
        -13    1    3    3    0    0  0.46502646713E+02  0.44070795428E+01  0.96821625799E+01  0.47704024423E+02  0.10570000000E+00 0. -1.
         13    1    3    3    0    0 -0.46502646713E+02 -0.44070795428E+01  0.19339224325E+02  0.50556258479E+02  0.10570000000E+00 0.  1.
<mgrwt>
<rscale>  0 0.93876740E+02</rscale>
<asrwt>0</asrwt>
<pdfrwt beam="1">  1        1 0.97908975E-02 0.93876740E+02</pdfrwt>
<pdfrwt beam="2">  1       -1 0.53260690E-02 0.93876740E+02</pdfrwt>
<totfact> 0.89670513E+04</totfact>
</mgrwt>
</event>
<event>
 5   1  0.1388354E+00  0.9592442E+02  0.7818608E-02  0.1289108E+00
         -1   -1    0    0    0  501 -0.00000000000E+00  0.00000000000E+00  0.16900302673E+03  0.16900302680E+03  0.46700000000E-02 0.  1.
          1   -1    0    0  501    0  0.00000000000E+00 -0.00000000000E+00 -0.13611434500E+02  0.13611435301E+02  0.46700000000E-02 0. -1.
         23    2    1    2    0    0  0.00000000000E+00  0.00000000000E+00  0.15539159223E+03  0.18261446210E+03  0.95924422494E+02 0.  0.
        -13    1    3    3    0    0 -0.12114149236E+02 -0.39189339847E+02  0.12501439575E+03  0.13157190918E+03  0.10570000000E+00 0.  1.
         13    1    3    3    0    0  0.12114149236E+02  0.39189339847E+02  0.30377196487E+02  0.51042552917E+02  0.10570000000E+00 0. -1.
<mgrwt>
<rscale>  0 0.95924422E+02</rscale>
<asrwt>0</asrwt>
<pdfrwt beam="2">  1        1 0.20940670E-02 0.95924422E+02</pdfrwt>
<pdfrwt beam="1">  1       -1 0.26000464E-01 0.95924422E+02</pdfrwt>
<totfact> 0.63647860E+04</totfact>
</mgrwt>
</event>
<event>
 5   1  0.1388354E+00  0.9109936E+02  0.7818608E-02  0.1300211E+00
         -1   -1    0    0    0  501 -0.00000000000E+00  0.00000000000E+00  0.76356036596E+01  0.76356050877E+01  0.46700000000E-02 0.  1.
          1   -1    0    0  501    0  0.00000000000E+00 -0.00000000000E+00 -0.27172354308E+03  0.27172354312E+03  0.46700000000E-02 0. -1.
         23    2    1    2    0    0  0.00000000000E+00  0.00000000000E+00 -0.26408793942E+03  0.27935914821E+03  0.91099363006E+02 0.  0.
        -13    1    3    3    0    0  0.34224543326E+02 -0.29711784852E+02 -0.14597992991E+03  0.15285372300E+03  0.10570000000E+00 0. -1.
         13    1    3    3    0    0 -0.34224543326E+02  0.29711784852E+02 -0.11810800951E+03  0.12650542521E+03  0.10570000000E+00 0.  1.
<mgrwt>
<rscale>  0 0.91099363E+02</rscale>
<asrwt>0</asrwt>
<pdfrwt beam="2">  1        1 0.41803615E-01 0.91099363E+02</pdfrwt>
<pdfrwt beam="1">  1       -1 0.11747086E-02 0.91099363E+02</pdfrwt>
<totfact> 0.12598372E+05</totfact>
</mgrwt>
</event>
<event>
 5   1  0.1388354E+00  0.9099913E+02  0.7818608E-02  0.1300450E+00
          1   -1    0    0  501    0  0.00000000000E+00  0.00000000000E+00  0.16686349143E+03  0.16686349150E+03  0.46700000000E-02 0. -1.
         -1   -1    0    0    0  501 -0.00000000000E+00 -0.00000000000E+00 -0.12406611683E+02  0.12406612562E+02  0.46700000000E-02 0.  1.
         23    2    1    2    0    0  0.00000000000E+00  0.00000000000E+00  0.15445687975E+03  0.17927010406E+03  0.90999134653E+02 0.  0.
        -13    1    3    3    0    0  0.69412935977E+01 -0.24986835292E+02  0.35782525546E+01  0.26178971686E+02  0.10570000000E+00 0.  1.
         13    1    3    3    0    0 -0.69412935977E+01  0.24986835292E+02  0.15087862720E+03  0.15309113238E+03  0.10570000000E+00 0. -1.
<mgrwt>
<rscale>  0 0.90999135E+02</rscale>
<asrwt>0</asrwt>
<pdfrwt beam="1">  1        1 0.25671305E-01 0.90999135E+02</pdfrwt>
<pdfrwt beam="2">  1       -1 0.19087097E-02 0.90999135E+02</pdfrwt>
<totfact> 0.11497680E+05</totfact>
</mgrwt>
</event>
<event>
 5   1  0.1388354E+00  0.1002921E+03  0.7818608E-02  0.1279683E+00
          1   -1    0    0  501    0  0.00000000000E+00  0.00000000000E+00  0.96496131634E+02  0.96496131747E+02  0.46700000000E-02 0. -1.
         -1   -1    0    0    0  501 -0.00000000000E+00 -0.00000000000E+00 -0.26059323783E+02  0.26059324201E+02  0.46700000000E-02 0.  1.
         23    2    1    2    0    0  0.00000000000E+00  0.00000000000E+00  0.70436807852E+02  0.12255545595E+03  0.10029205294E+03 0.  0.
        -13    1    3    3    0    0  0.21684502758E+01  0.30328986650E+02  0.83945813108E+02  0.89283034887E+02  0.10570000000E+00 0.  1.
         13    1    3    3    0    0 -0.21684502758E+01 -0.30328986650E+02 -0.13509005256E+02  0.33272421062E+02  0.10570000000E+00 0. -1.
<mgrwt>
<rscale>  0 0.10029205E+03</rscale>
<asrwt>0</asrwt>
<pdfrwt beam="1">  1        1 0.14845559E-01 0.10029205E+03</pdfrwt>
<pdfrwt beam="2">  1       -1 0.40091267E-02 0.10029205E+03</pdfrwt>
<totfact> 0.79916712E+04</totfact>
</mgrwt>
</event>
<event>
 5   1  0.1388354E+00  0.9435211E+02  0.7818608E-02  0.1292642E+00
         -1   -1    0    0    0  501 -0.00000000000E+00  0.00000000000E+00  0.12115533544E+02  0.12115534444E+02  0.46700000000E-02 0.  1.
          1   -1    0    0  501    0  0.00000000000E+00 -0.00000000000E+00 -0.18369641822E+03  0.18369641828E+03  0.46700000000E-02 0. -1.
         23    2    1    2    0    0  0.00000000000E+00  0.00000000000E+00 -0.17158088467E+03  0.19581195272E+03  0.94352110961E+02 0.  0.
        -13    1    3    3    0    0  0.37186346775E+02 -0.28956326823E+02 -0.81499075017E+02  0.94145651257E+02  0.10570000000E+00 0. -1.
         13    1    3    3    0    0 -0.37186346775E+02  0.28956326823E+02 -0.90081809657E+02  0.10166630146E+03  0.10570000000E+00 0.  1.
<mgrwt>
<rscale>  0 0.94352111E+02</rscale>
<asrwt>0</asrwt>
<pdfrwt beam="2">  1        1 0.28260986E-01 0.94352111E+02</pdfrwt>
<pdfrwt beam="1">  1       -1 0.18639284E-02 0.94352111E+02</pdfrwt>
<totfact> 0.10622007E+05</totfact>
</mgrwt>
</event>
<event>
 5   1  0.1388354E+00  0.9136681E+02  0.7818608E-02  0.1299575E+00
         -1   -1    0    0    0  501 -0.00000000000E+00  0.00000000000E+00  0.37562863324E+02  0.37562863615E+02  0.46700000000E-02 0.  1.
          1   -1    0    0  501    0  0.00000000000E+00 -0.00000000000E+00 -0.55559494048E+02  0.55559494244E+02  0.46700000000E-02 0. -1.
         23    2    1    2    0    0  0.00000000000E+00  0.00000000000E+00 -0.17996630724E+02  0.93122357859E+02  0.91366814631E+02 0.  0.
        -13    1    3    3    0    0 -0.42697135164E+02 -0.13318132873E+02 -0.18479994595E+02  0.48393588286E+02  0.10570000000E+00 0. -1.
         13    1    3    3    0    0  0.42697135164E+02  0.13318132873E+02  0.48336387135E+00  0.44728769573E+02  0.10570000000E+00 0.  1.
<mgrwt>
<rscale>  0 0.91366815E+02</rscale>
<asrwt>0</asrwt>
<pdfrwt beam="2">  1        1 0.85476145E-02 0.91366815E+02</pdfrwt>
<pdfrwt beam="1">  1       -1 0.57789021E-02 0.91366815E+02</pdfrwt>
<totfact> 0.94709307E+04</totfact>
</mgrwt>
</event>
<event>
 5   1  0.1388354E+00  0.8985155E+02  0.7818608E-02  0.1303212E+00
         -1   -1    0    0    0  501 -0.00000000000E+00  0.00000000000E+00  0.70930657003E+02  0.70930657157E+02  0.46700000000E-02 0. -1.
          1   -1    0    0  501    0  0.00000000000E+00 -0.00000000000E+00 -0.28454906124E+02  0.28454906507E+02  0.46700000000E-02 0.  1.
         23    2    1    2    0    0  0.00000000000E+00  0.00000000000E+00  0.42475750879E+02  0.99385563664E+02  0.89851548969E+02 0.  0.
        -13    1    3    3    0    0  0.20005831691E+02 -0.19797576913E+02 -0.17493879945E+02  0.33139468331E+02  0.10570000000E+00 0.  1.
         13    1    3    3    0    0 -0.20005831691E+02  0.19797576913E+02  0.59969630824E+02  0.66246095333E+02  0.10570000000E+00 0. -1.
<mgrwt>
<rscale>  0 0.89851549E+02</rscale>
<asrwt>0</asrwt>
<pdfrwt beam="2">  1        1 0.43776780E-02 0.89851549E+02</pdfrwt>
<pdfrwt beam="1">  1       -1 0.10912409E-01 0.89851549E+02</pdfrwt>
<totfact> 0.89636799E+04</totfact>
</mgrwt>
</event>
<event>
 5   1  0.1388354E+00  0.9198098E+02  0.7818608E-02  0.1298124E+00
          1   -1    0    0  501    0  0.00000000000E+00  0.00000000000E+00  0.34517520005E+03  0.34517520008E+03  0.46700000000E-02 0. -1.
         -1   -1    0    0    0  501 -0.00000000000E+00 -0.00000000000E+00 -0.61276846625E+01  0.61276864420E+01  0.46700000000E-02 0.  1.
         23    2    1    2    0    0  0.00000000000E+00  0.00000000000E+00  0.33904751539E+03  0.35130288652E+03  0.91980978411E+02 0.  0.
        -13    1    3    3    0    0 -0.19321163389E+02  0.37703565252E+02  0.10117561327E+03  0.10968765692E+03  0.10570000000E+00 0. -1.
         13    1    3    3    0    0  0.19321163389E+02 -0.37703565252E+02  0.23787190212E+03  0.24161522960E+03  0.10570000000E+00 0.  1.
<mgrwt>
<rscale>  0 0.91980978E+02</rscale>
<asrwt>0</asrwt>
<pdfrwt beam="1">  1        1 0.53103904E-01 0.91980978E+02</pdfrwt>
<pdfrwt beam="2">  1       -1 0.94272038E-03 0.91980978E+02</pdfrwt>
<totfact> 0.12846631E+05</totfact>
</mgrwt>
</event>
<event>
 5   1  0.1388354E+00  0.9118778E+02  0.7818608E-02  0.1300001E+00
          1   -1    0    0  501    0  0.00000000000E+00  0.00000000000E+00  0.17807207277E+02  0.17807207889E+02  0.46700000000E-02 0. -1.
         -1   -1    0    0    0  501 -0.00000000000E+00 -0.00000000000E+00 -0.11673941322E+03  0.11673941331E+03  0.46700000000E-02 0.  1.
         23    2    1    2    0    0  0.00000000000E+00  0.00000000000E+00 -0.98932205939E+02  0.13454662120E+03  0.91187783743E+02 0.  0.
        -13    1    3    3    0    0  0.40486092445E+02  0.35491866166E+01 -0.18974070194E+02  0.44852501818E+02  0.10570000000E+00 0.  1.
         13    1    3    3    0    0 -0.40486092445E+02 -0.35491866166E+01 -0.79958135745E+02  0.89694119381E+02  0.10570000000E+00 0. -1.
<mgrwt>
<rscale>  0 0.91187784E+02</rscale>
<asrwt>0</asrwt>
<pdfrwt beam="1">  1        1 0.27395705E-02 0.91187784E+02</pdfrwt>
<pdfrwt beam="2">  1       -1 0.17959909E-01 0.91187784E+02</pdfrwt>
<totfact> 0.78946452E+04</totfact>
</mgrwt>
</event>
<event>
 5   1  0.1388354E+00  0.9585859E+02  0.7818608E-02  0.1289254E+00
          1   -1    0    0  501    0  0.00000000000E+00  0.00000000000E+00  0.15733933503E+03  0.15733933510E+03  0.46700000000E-02 0. -1.
         -1   -1    0    0    0  501 -0.00000000000E+00 -0.00000000000E+00 -0.14600400994E+02  0.14600401740E+02  0.46700000000E-02 0.  1.
         23    2    1    2    0    0  0.00000000000E+00  0.00000000000E+00  0.14273893404E+03  0.17193973684E+03  0.95858592807E+02 0.  0.
        -13    1    3    3    0    0 -0.25528965412E+01  0.41910698235E+02  0.11282571422E+03  0.12038553430E+03  0.10570000000E+00 0. -1.
         13    1    3    3    0    0  0.25528965412E+01 -0.41910698235E+02  0.29913219820E+02  0.51554202542E+02  0.10570000000E+00 0.  1.
<mgrwt>
<rscale>  0 0.95858593E+02</rscale>
<asrwt>0</asrwt>
<pdfrwt beam="1">  1        1 0.24206052E-01 0.95858593E+02</pdfrwt>
<pdfrwt beam="2">  1       -1 0.22462156E-02 0.95858593E+02</pdfrwt>
<totfact> 0.98797496E+04</totfact>
</mgrwt>
</event>
<event>
 5   1  0.1388354E+00  0.9367035E+02  0.7818608E-02  0.1294199E+00
          1   -1    0    0  501    0  0.00000000000E+00  0.00000000000E+00  0.43445884153E+03  0.43445884156E+03  0.46700000000E-02 0. -1.
         -1   -1    0    0    0  501 -0.00000000000E+00 -0.00000000000E+00 -0.50488864403E+01  0.50488886001E+01  0.46700000000E-02 0.  1.
         23    2    1    2    0    0  0.00000000000E+00  0.00000000000E+00  0.42940995509E+03  0.43950773016E+03  0.93670354628E+02 0.  0.
        -13    1    3    3    0    0 -0.42838673597E+02  0.18588059321E+02  0.19788225496E+03  0.20331764780E+03  0.10570000000E+00 0.  1.
         13    1    3    3    0    0  0.42838673597E+02 -0.18588059321E+02  0.23152770013E+03  0.23619008236E+03  0.10570000000E+00 0. -1.
<mgrwt>
<rscale>  0 0.93670355E+02</rscale>
<asrwt>0</asrwt>
<pdfrwt beam="1">  1        1 0.66839816E-01 0.93670355E+02</pdfrwt>
<pdfrwt beam="2">  1       -1 0.77675200E-03 0.93670355E+02</pdfrwt>
<totfact> 0.12719641E+05</totfact>
</mgrwt>
</event>
<event>
 5   1  0.1388354E+00  0.9274720E+02  0.7818608E-02  0.1296332E+00
          1   -1    0    0  501    0  0.00000000000E+00  0.00000000000E+00  0.36493940473E+03  0.36493940476E+03  0.46700000000E-02 0. -1.
         -1   -1    0    0    0  501 -0.00000000000E+00 -0.00000000000E+00 -0.58927881340E+01  0.58927899845E+01  0.46700000000E-02 0.  1.
         23    2    1    2    0    0  0.00000000000E+00  0.00000000000E+00  0.35904661659E+03  0.37083219474E+03  0.92747203569E+02 0.  0.
        -13    1    3    3    0    0  0.39860332797E+02 -0.23137890554E+02  0.20002480706E+03  0.20526602914E+03  0.10570000000E+00 0. -1.
         13    1    3    3    0    0 -0.39860332797E+02  0.23137890554E+02  0.15902180954E+03  0.16556616560E+03  0.10570000000E+00 0.  1.
<mgrwt>
<rscale>  0 0.92747204E+02</rscale>
<asrwt>0</asrwt>
<pdfrwt beam="1">  1        1 0.56144555E-01 0.92747204E+02</pdfrwt>
<pdfrwt beam="2">  1       -1 0.90658244E-03 0.92747204E+02</pdfrwt>
<totfact> 0.12690684E+05</totfact>
</mgrwt>
</event>
<event>
 5   1  0.1388354E+00  0.9208158E+02  0.7818608E-02  0.1297888E+00
          1   -1    0    0  501    0  0.00000000000E+00  0.00000000000E+00  0.85470747298E+02  0.85470747426E+02  0.46700000000E-02 0. -1.
         -1   -1    0    0    0  501 -0.00000000000E+00 -0.00000000000E+00 -0.24800931275E+02  0.24800931715E+02  0.46700000000E-02 0.  1.
         23    2    1    2    0    0  0.00000000000E+00  0.00000000000E+00  0.60669816023E+02  0.11027167914E+03  0.92081576030E+02 0.  0.
        -13    1    3    3    0    0  0.19969588775E+02  0.37563644180E+02  0.92523231665E+01  0.43536519112E+02  0.10570000000E+00 0.  1.
         13    1    3    3    0    0 -0.19969588775E+02 -0.37563644180E+02  0.51417492857E+02  0.66735160029E+02  0.10570000000E+00 0. -1.
<mgrwt>
<rscale>  0 0.92081576E+02</rscale>
<asrwt>0</asrwt>
<pdfrwt beam="1">  1        1 0.13149346E-01 0.92081576E+02</pdfrwt>
<pdfrwt beam="2">  1       -1 0.38155279E-02 0.92081576E+02</pdfrwt>
<totfact> 0.99088487E+04</totfact>
</mgrwt>
</event>
<event>
 5   1  0.1388354E+00  0.8937353E+02  0.7818608E-02  0.1304376E+00
          1   -1    0    0  501    0  0.00000000000E+00  0.00000000000E+00  0.40961190038E+02  0.40961190304E+02  0.46700000000E-02 0. -1.
         -1   -1    0    0    0  501 -0.00000000000E+00 -0.00000000000E+00 -0.48751193315E+02  0.48751193538E+02  0.46700000000E-02 0.  1.
         23    2    1    2    0    0  0.00000000000E+00  0.00000000000E+00 -0.77900032769E+01  0.89712383842E+02  0.89373528875E+02 0.  0.
        -13    1    3    3    0    0 -0.87317372080E+01  0.38007274533E+02  0.18007433105E+02  0.42954335888E+02  0.10570000000E+00 0. -1.
         13    1    3    3    0    0  0.87317372080E+01 -0.38007274533E+02 -0.25797436382E+02  0.46758047954E+02  0.10570000000E+00 0.  1.
<mgrwt>
<rscale>  0 0.89373529E+02</rscale>
<asrwt>0</asrwt>
<pdfrwt beam="1">  1        1 0.63017216E-02 0.89373529E+02</pdfrwt>
<pdfrwt beam="2">  1       -1 0.75001836E-02 0.89373529E+02</pdfrwt>
<totfact> 0.96252981E+04</totfact>
</mgrwt>
</event>
<event>
 5   1  0.1388354E+00  0.9202525E+02  0.7818608E-02  0.1298020E+00
          1   -1    0    0  501    0  0.00000000000E+00  0.00000000000E+00  0.64930599865E+02  0.64930600033E+02  0.46700000000E-02 0. -1.
         -1   -1    0    0    0  501 -0.00000000000E+00 -0.00000000000E+00 -0.32606533895E+02  0.32606534229E+02  0.46700000000E-02 0.  1.
         23    2    1    2    0    0  0.00000000000E+00  0.00000000000E+00  0.32324065970E+02  0.97537134263E+02  0.92025253704E+02 0.  0.
        -13    1    3    3    0    0  0.29703934414E+02 -0.31575931230E+02  0.32506000210E+02  0.54185001383E+02  0.10570000000E+00 0.  1.
         13    1    3    3    0    0 -0.29703934414E+02  0.31575931230E+02 -0.18193423923E+00  0.43352132880E+02  0.10570000000E+00 0. -1.
<mgrwt>
<rscale>  0 0.92025254E+02</rscale>
<asrwt>0</asrwt>
<pdfrwt beam="1">  1        1 0.99893230E-02 0.92025254E+02</pdfrwt>
<pdfrwt beam="2">  1       -1 0.50163899E-02 0.92025254E+02</pdfrwt>
<totfact> 0.95064409E+04</totfact>
</mgrwt>
</event>
<event>
 5   1  0.1388354E+00  0.9791230E+02  0.7818608E-02  0.1284748E+00
          1   -1    0    0  501    0  0.00000000000E+00  0.00000000000E+00  0.74043914898E+01  0.74043929625E+01  0.46700000000E-02 0. -1.
         -1   -1    0    0    0  501 -0.00000000000E+00 -0.00000000000E+00 -0.32368690572E+03  0.32368690576E+03  0.46700000000E-02 0.  1.
         23    2    1    2    0    0  0.00000000000E+00  0.00000000000E+00 -0.31628251423E+03  0.33109129872E+03  0.97912304017E+02 0.  0.
        -13    1    3    3    0    0  0.16035273041E+02 -0.41610490748E+02 -0.22645532431E+03  0.23080422007E+03  0.10570000000E+00 0.  1.
         13    1    3    3    0    0 -0.16035273041E+02  0.41610490748E+02 -0.89827189926E+02  0.10028707865E+03  0.10570000000E+00 0. -1.
<mgrwt>
<rscale>  0 0.97912304E+02</rscale>
<asrwt>0</asrwt>
<pdfrwt beam="1">  1        1 0.11391375E-02 0.97912304E+02</pdfrwt>
<pdfrwt beam="2">  1       -1 0.49797975E-01 0.97912304E+02</pdfrwt>
<totfact> 0.48723012E+04</totfact>
</mgrwt>
</event>
<event>
 5   1  0.1388354E+00  0.9072809E+02  0.7818608E-02  0.1301098E+00
         -1   -1    0    0    0  501 -0.00000000000E+00  0.00000000000E+00  0.24307631875E+03  0.24307631880E+03  0.46700000000E-02 0.  1.
          1   -1    0    0  501    0  0.00000000000E+00 -0.00000000000E+00 -0.84660497327E+01  0.84660510207E+01  0.46700000000E-02 0. -1.
         23    2    1    2    0    0  0.00000000000E+00  0.00000000000E+00  0.23461026902E+03  0.25154236982E+03  0.90728085421E+02 0.  0.
        -13    1    3    3    0    0 -0.66484029592E+01 -0.43765662448E+02  0.14478643548E+03  0.15140263387E+03  0.10570000000E+00 0.  1.
         13    1    3    3    0    0  0.66484029592E+01  0.43765662448E+02  0.89823833541E+02  0.10013973595E+03  0.10570000000E+00 0. -1.
<mgrwt>
<rscale>  0 0.90728085E+02</rscale>
<asrwt>0</asrwt>
<pdfrwt beam="2">  1        1 0.13024694E-02 0.90728085E+02</pdfrwt>
<pdfrwt beam="1">  1       -1 0.37396354E-01 0.90728085E+02</pdfrwt>
<totfact> 0.66224616E+04</totfact>
</mgrwt>
</event>
<event>
 5   1  0.1388354E+00  0.8077353E+02  0.7818608E-02  0.1326870E+00
         -1   -1    0    0    0  501 -0.00000000000E+00  0.00000000000E+00  0.37920187120E+01  0.37920215876E+01  0.46700000000E-02 0.  1.
          1   -1    0    0  501    0  0.00000000000E+00 -0.00000000000E+00 -0.43013769177E+03  0.43013769179E+03  0.46700000000E-02 0. -1.
         23    2    1    2    0    0  0.00000000000E+00  0.00000000000E+00 -0.42634567306E+03  0.43392971338E+03  0.80773530450E+02 0.  0.
        -13    1    3    3    0    0  0.19855437083E+02 -0.35160840930E+02 -0.20916519170E+03  0.21302725579E+03  0.10570000000E+00 0.  1.
         13    1    3    3    0    0 -0.19855437083E+02  0.35160840930E+02 -0.21718048135E+03  0.22090245759E+03  0.10570000000E+00 0. -1.
<mgrwt>
<rscale>  0 0.80773530E+02</rscale>
<asrwt>0</asrwt>
<pdfrwt beam="2">  1        1 0.66174991E-01 0.80773530E+02</pdfrwt>
<pdfrwt beam="1">  1       -1 0.58338806E-03 0.80773530E+02</pdfrwt>
<totfact> 0.18780143E+05</totfact>
</mgrwt>
</event>
<event>
 5   1  0.1388354E+00  0.9108223E+02  0.7818608E-02  0.1300252E+00
          1   -1    0    0  501    0  0.00000000000E+00  0.00000000000E+00  0.10807961489E+03  0.10807961499E+03  0.46700000000E-02 0. -1.
         -1   -1    0    0    0  501 -0.00000000000E+00 -0.00000000000E+00 -0.19189495182E+02  0.19189495751E+02  0.46700000000E-02 0.  1.
         23    2    1    2    0    0  0.00000000000E+00  0.00000000000E+00  0.88890119711E+02  0.12726911074E+03  0.91082232996E+02 0.  0.
        -13    1    3    3    0    0 -0.39726158489E+02  0.65360220967E+01  0.14702118761E+02  0.42860829690E+02  0.10570000000E+00 0.  1.
         13    1    3    3    0    0  0.39726158489E+02 -0.65360220967E+01  0.74188000950E+02  0.84408281054E+02  0.10570000000E+00 0. -1.
<mgrwt>
<rscale>  0 0.91082233E+02</rscale>
<asrwt>0</asrwt>
<pdfrwt beam="1">  1        1 0.16627633E-01 0.91082233E+02</pdfrwt>
<pdfrwt beam="2">  1       -1 0.29522301E-02 0.91082233E+02</pdfrwt>
<totfact> 0.10612238E+05</totfact>
</mgrwt>
</event>
<event>
 5   1  0.1388354E+00  0.9419208E+02  0.7818608E-02  0.1293006E+00
         -1   -1    0    0    0  501 -0.00000000000E+00  0.00000000000E+00  0.91068504665E+01  0.91068516639E+01  0.46700000000E-02 0.  1.
          1   -1    0    0  501    0  0.00000000000E+00 -0.00000000000E+00 -0.24355696621E+03  0.24355696626E+03  0.46700000000E-02 0. -1.
         23    2    1    2    0    0  0.00000000000E+00  0.00000000000E+00 -0.23445011575E+03  0.25266381792E+03  0.94192080947E+02 0.  0.
        -13    1    3    3    0    0 -0.18970350156E+02 -0.31558806517E+02 -0.19598964669E+03  0.19941861808E+03  0.10570000000E+00 0. -1.
         13    1    3    3    0    0  0.18970350156E+02  0.31558806517E+02 -0.38460469053E+02  0.53245199841E+02  0.10570000000E+00 0.  1.
<mgrwt>
<rscale>  0 0.94192081E+02</rscale>
<asrwt>0</asrwt>
<pdfrwt beam="2">  1        1 0.37470298E-01 0.94192081E+02</pdfrwt>
<pdfrwt beam="1">  1       -1 0.14010542E-02 0.94192081E+02</pdfrwt>
<totfact> 0.11277182E+05</totfact>
</mgrwt>
</event>
<event>
 5   1  0.1388354E+00  0.9283327E+02  0.7818608E-02  0.1296132E+00
          1   -1    0    0  501    0  0.00000000000E+00  0.00000000000E+00  0.13271086983E+03  0.13271086991E+03  0.46700000000E-02 0. -1.
         -1   -1    0    0    0  501 -0.00000000000E+00 -0.00000000000E+00 -0.16234571427E+02  0.16234572098E+02  0.46700000000E-02 0.  1.
         23    2    1    2    0    0  0.00000000000E+00  0.00000000000E+00  0.11647629840E+03  0.14894544201E+03  0.92833273161E+02 0.  0.
        -13    1    3    3    0    0  0.22391532727E+01  0.39686993796E+02  0.19784375039E+02  0.44401621053E+02  0.10570000000E+00 0.  1.
         13    1    3    3    0    0 -0.22391532727E+01 -0.39686993796E+02  0.96691923360E+02  0.10454382095E+03  0.10570000000E+00 0. -1.
<mgrwt>
<rscale>  0 0.92833273E+02</rscale>
<asrwt>0</asrwt>
<pdfrwt beam="1">  1        1 0.20417057E-01 0.92833273E+02</pdfrwt>
<pdfrwt beam="2">  1       -1 0.24976264E-02 0.92833273E+02</pdfrwt>
<totfact> 0.10444625E+05</totfact>
</mgrwt>
</event>
<event>
 5   1  0.1388354E+00  0.9117501E+02  0.7818608E-02  0.1300031E+00
          1   -1    0    0  501    0  0.00000000000E+00  0.00000000000E+00  0.21123432805E+02  0.21123433321E+02  0.46700000000E-02 0. -1.
         -1   -1    0    0    0  501 -0.00000000000E+00 -0.00000000000E+00 -0.98384606638E+02  0.98384606748E+02  0.46700000000E-02 0.  1.
         23    2    1    2    0    0  0.00000000000E+00  0.00000000000E+00 -0.77261173832E+02  0.11950804007E+03  0.91175011156E+02 0.  0.
        -13    1    3    3    0    0  0.52655818131E+01  0.38187289026E+02 -0.70528382428E+02  0.80375738226E+02  0.10570000000E+00 0.  1.
         13    1    3    3    0    0 -0.52655818131E+01 -0.38187289026E+02 -0.67327914040E+01  0.39132301843E+02  0.10570000000E+00 0. -1.
<mgrwt>
<rscale>  0 0.91175011E+02</rscale>
<asrwt>0</asrwt>
<pdfrwt beam="1">  1        1 0.32497590E-02 0.91175011E+02</pdfrwt>
<pdfrwt beam="2">  1       -1 0.15136093E-01 0.91175011E+02</pdfrwt>
<totfact> 0.81620677E+04</totfact>
</mgrwt>
</event>
<event>
 5   1  0.1388354E+00  0.9357882E+02  0.7818608E-02  0.1294409E+00
          1   -1    0    0  501    0  0.00000000000E+00  0.00000000000E+00  0.52470000544E+02  0.52470000752E+02  0.46700000000E-02 0. -1.
         -1   -1    0    0    0  501 -0.00000000000E+00 -0.00000000000E+00 -0.41723822135E+02  0.41723822396E+02  0.46700000000E-02 0.  1.
         23    2    1    2    0    0  0.00000000000E+00  0.00000000000E+00  0.10746178409E+02  0.94193823149E+02  0.93578822225E+02 0.  0.
        -13    1    3    3    0    0 -0.32411720077E-01  0.18596341431E+02 -0.37844063966E+02  0.42166447741E+02  0.10570000000E+00 0.  1.
         13    1    3    3    0    0  0.32411720077E-01 -0.18596341431E+02  0.48590242376E+02  0.52027375407E+02  0.10570000000E+00 0. -1.
<mgrwt>
<rscale>  0 0.93578822E+02</rscale>
<asrwt>0</asrwt>
<pdfrwt beam="1">  1        1 0.80723078E-02 0.93578822E+02</pdfrwt>
<pdfrwt beam="2">  1       -1 0.64190496E-02 0.93578822E+02</pdfrwt>
<totfact> 0.87818306E+04</totfact>
</mgrwt>
</event>
<event>
 5   1  0.1388354E+00  0.9120229E+02  0.7818608E-02  0.1299966E+00
         -1   -1    0    0    0  501 -0.00000000000E+00  0.00000000000E+00  0.19518532375E+02  0.19518532933E+02  0.46700000000E-02 0.  1.
          1   -1    0    0  501    0  0.00000000000E+00 -0.00000000000E+00 -0.10653794615E+03  0.10653794625E+03  0.46700000000E-02 0. -1.
         23    2    1    2    0    0  0.00000000000E+00  0.00000000000E+00 -0.87019413778E+02  0.12605647919E+03  0.91202289286E+02 0.  0.
        -13    1    3    3    0    0 -0.40800627089E+02 -0.10950735745E+02 -0.19776568860E+02  0.46644759969E+02  0.10570000000E+00 0.  1.
         13    1    3    3    0    0  0.40800627089E+02  0.10950735745E+02 -0.67242844918E+02  0.79411719219E+02  0.10570000000E+00 0. -1.
<mgrwt>
<rscale>  0 0.91202289E+02</rscale>
<asrwt>0</asrwt>
<pdfrwt beam="2">  1        1 0.16390453E-01 0.91202289E+02</pdfrwt>
<pdfrwt beam="1">  1       -1 0.30028513E-02 0.91202289E+02</pdfrwt>
<totfact> 0.10548577E+05</totfact>
</mgrwt>
</event>
<event>
 5   1  0.1388354E+00  0.8972429E+02  0.7818608E-02  0.1303521E+00
          1   -1    0    0  501    0  0.00000000000E+00  0.00000000000E+00  0.54221797394E+01  0.54221817505E+01  0.46700000000E-02 0. -1.
         -1   -1    0    0    0  501 -0.00000000000E+00 -0.00000000000E+00 -0.37118129868E+03  0.37118129871E+03  0.46700000000E-02 0.  1.
         23    2    1    2    0    0  0.00000000000E+00  0.00000000000E+00 -0.36575911894E+03  0.37660348046E+03  0.89724291061E+02 0.  0.
        -13    1    3    3    0    0  0.22147538848E+02 -0.38780948401E+02 -0.20074933965E+03  0.20565695704E+03  0.10570000000E+00 0.  1.
         13    1    3    3    0    0 -0.22147538848E+02  0.38780948401E+02 -0.16500977929E+03  0.17094652342E+03  0.10570000000E+00 0. -1.
<mgrwt>
<rscale>  0 0.89724291E+02</rscale>
<asrwt>0</asrwt>
<pdfrwt beam="1">  1        1 0.83418195E-03 0.89724291E+02</pdfrwt>
<pdfrwt beam="2">  1       -1 0.57104795E-01 0.89724291E+02</pdfrwt>
<totfact> 0.57645734E+04</totfact>
</mgrwt>
</event>
<event>
 5   1  0.1388354E+00  0.9100865E+02  0.7818608E-02  0.1300427E+00
          1   -1    0    0  501    0  0.00000000000E+00  0.00000000000E+00  0.20865722968E+03  0.20865722974E+03  0.46700000000E-02 0. -1.
         -1   -1    0    0    0  501 -0.00000000000E+00 -0.00000000000E+00 -0.99236603876E+01  0.99236614864E+01  0.46700000000E-02 0.  1.
         23    2    1    2    0    0  0.00000000000E+00  0.00000000000E+00  0.19873356930E+03  0.21858089122E+03  0.91008650371E+02 0.  0.
        -13    1    3    3    0    0  0.30900645764E+02 -0.72424580952E+01  0.21048455232E+02  0.38083483927E+02  0.10570000000E+00 0.  1.
         13    1    3    3    0    0 -0.30900645764E+02  0.72424580952E+01  0.17768511406E+03  0.18049740729E+03  0.10570000000E+00 0. -1.
<mgrwt>
<rscale>  0 0.91008650E+02</rscale>
<asrwt>0</asrwt>
<pdfrwt beam="1">  1        1 0.32101110E-01 0.91008650E+02</pdfrwt>
<pdfrwt beam="2">  1       -1 0.15267172E-02 0.91008650E+02</pdfrwt>
<totfact> 0.11997743E+05</totfact>
</mgrwt>
</event>
<event>
 5   1  0.1388354E+00  0.9106601E+02  0.7818608E-02  0.1300291E+00
         -1   -1    0    0    0  501 -0.00000000000E+00  0.00000000000E+00  0.30693187642E+02  0.30693187997E+02  0.46700000000E-02 0.  1.
          1   -1    0    0  501    0  0.00000000000E+00 -0.00000000000E+00 -0.67547711019E+02  0.67547711180E+02  0.46700000000E-02 0. -1.
         23    2    1    2    0    0  0.00000000000E+00  0.00000000000E+00 -0.36854523377E+02  0.98240899177E+02  0.91066011101E+02 0.  0.
        -13    1    3    3    0    0 -0.22532932856E+02  0.62143234542E+01  0.23726880098E+02  0.33306559275E+02  0.10570000000E+00 0.  1.
         13    1    3    3    0    0  0.22532932856E+02 -0.62143234542E+01 -0.60581403475E+02  0.64934339902E+02  0.10570000000E+00 0. -1.
<mgrwt>
<rscale>  0 0.91066011E+02</rscale>
<asrwt>0</asrwt>
<pdfrwt beam="2">  1        1 0.10391956E-01 0.91066011E+02</pdfrwt>
<pdfrwt beam="1">  1       -1 0.47220289E-02 0.91066011E+02</pdfrwt>
<totfact> 0.98457281E+04</totfact>
</mgrwt>
</event>
<event>
 5   1  0.1388354E+00  0.8900294E+02  0.7818608E-02  0.1305284E+00
          1   -1    0    0  501    0  0.00000000000E+00  0.00000000000E+00  0.20567071680E+02  0.20567072211E+02  0.46700000000E-02 0. -1.
         -1   -1    0    0    0  501 -0.00000000000E+00 -0.00000000000E+00 -0.96288911502E+02  0.96288911615E+02  0.46700000000E-02 0.  1.
         23    2    1    2    0    0  0.00000000000E+00  0.00000000000E+00 -0.75721839821E+02  0.11685598383E+03  0.89002943378E+02 0.  0.
        -13    1    3    3    0    0  0.76577721250E+01  0.25966228261E+02 -0.84233788479E+02  0.88477278315E+02  0.10570000000E+00 0.  1.
         13    1    3    3    0    0 -0.76577721250E+01 -0.25966228261E+02  0.85119486578E+01  0.28378705511E+02  0.10570000000E+00 0. -1.
<mgrwt>
<rscale>  0 0.89002943E+02</rscale>
<asrwt>0</asrwt>
<pdfrwt beam="1">  1        1 0.31641650E-02 0.89002943E+02</pdfrwt>
<pdfrwt beam="2">  1       -1 0.14813678E-01 0.89002943E+02</pdfrwt>
<totfact> 0.87181500E+04</totfact>
</mgrwt>
</event>
<event>
 5   1  0.1388354E+00  0.8996384E+02  0.7818608E-02  0.1302939E+00
          1   -1    0    0  501    0  0.00000000000E+00  0.00000000000E+00  0.94400470146E+01  0.94400481698E+01  0.46700000000E-02 0. -1.
         -1   -1    0    0    0  501 -0.00000000000E+00 -0.00000000000E+00 -0.21433930841E+03  0.21433930846E+03  0.46700000000E-02 0.  1.
         23    2    1    2    0    0  0.00000000000E+00  0.00000000000E+00 -0.20489926140E+03  0.22377935663E+03  0.89963843480E+02 0.  0.
        -13    1    3    3    0    0 -0.64983471399E+01  0.37748386087E+02 -0.43786564787E+02  0.58175970951E+02  0.10570000000E+00 0. -1.
         13    1    3    3    0    0  0.64983471399E+01 -0.37748386087E+02 -0.16111269661E+03  0.16560338568E+03  0.10570000000E+00 0.  1.
<mgrwt>
<rscale>  0 0.89963843E+02</rscale>
<asrwt>0</asrwt>
<pdfrwt beam="1">  1        1 0.14523152E-02 0.89963843E+02</pdfrwt>
<pdfrwt beam="2">  1       -1 0.32975275E-01 0.89963843E+02</pdfrwt>
<totfact> 0.70443255E+04</totfact>
</mgrwt>
</event>
<event>
 5   1  0.1388354E+00  0.9157493E+02  0.7818608E-02  0.1299082E+00
          1   -1    0    0  501    0  0.00000000000E+00  0.00000000000E+00  0.25089377081E+02  0.25089377516E+02  0.46700000000E-02 0. -1.
         -1   -1    0    0    0  501 -0.00000000000E+00 -0.00000000000E+00 -0.83560932289E+02  0.83560932419E+02  0.46700000000E-02 0.  1.
         23    2    1    2    0    0  0.00000000000E+00  0.00000000000E+00 -0.58471555208E+02  0.10865030993E+03  0.91574926047E+02 0.  0.
        -13    1    3    3    0    0 -0.38644369488E+02  0.24179143993E+02 -0.24137807335E+02  0.51581617004E+02  0.10570000000E+00 0. -1.
         13    1    3    3    0    0  0.38644369488E+02 -0.24179143993E+02 -0.34333747873E+02  0.57068692931E+02  0.10570000000E+00 0.  1.
<mgrwt>
<rscale>  0 0.91574926E+02</rscale>
<asrwt>0</asrwt>
<pdfrwt beam="1">  1        1 0.38599043E-02 0.91574926E+02</pdfrwt>
<pdfrwt beam="2">  1       -1 0.12855528E-01 0.91574926E+02</pdfrwt>
<totfact> 0.83090500E+04</totfact>
</mgrwt>
</event>
<event>
 5   1  0.1388354E+00  0.9630276E+02  0.7818608E-02  0.1288269E+00
          1   -1    0    0  501    0  0.00000000000E+00  0.00000000000E+00  0.61276429216E+01  0.61276447011E+01  0.46700000000E-02 0.  1.
         -1   -1    0    0    0  501 -0.00000000000E+00 -0.00000000000E+00 -0.37837635400E+03  0.37837635403E+03  0.46700000000E-02 0. -1.
         23    2    1    2    0    0  0.00000000000E+00  0.00000000000E+00 -0.37224871107E+03  0.38450399873E+03  0.96302762887E+02 0.  0.
        -13    1    3    3    0    0  0.38538316342E+02 -0.28791699080E+02 -0.17776776896E+03  0.18416176209E+03  0.10570000000E+00 0.  1.
         13    1    3    3    0    0 -0.38538316342E+02  0.28791699080E+02 -0.19448094211E+03  0.20034223663E+03  0.10570000000E+00 0. -1.
<mgrwt>
<rscale>  0 0.96302763E+02</rscale>
<asrwt>0</asrwt>
<pdfrwt beam="1">  1        1 0.94271473E-03 0.96302763E+02</pdfrwt>
<pdfrwt beam="2">  1       -1 0.58211729E-01 0.96302763E+02</pdfrwt>
<totfact> 0.47443716E+04</totfact>
</mgrwt>
</event>
<event>
 5   1  0.1388354E+00  0.8824418E+02  0.7818608E-02  0.1307160E+00
          1   -1    0    0  501    0  0.00000000000E+00  0.00000000000E+00  0.13882503084E+03  0.13882503092E+03  0.46700000000E-02 0. -1.
         -1   -1    0    0    0  501 -0.00000000000E+00 -0.00000000000E+00 -0.14023110924E+02  0.14023111701E+02  0.46700000000E-02 0.  1.
         23    2    1    2    0    0  0.00000000000E+00  0.00000000000E+00  0.12480191992E+03  0.15284814262E+03  0.88244181043E+02 0.  0.
        -13    1    3    3    0    0  0.37391409023E+02 -0.19284739483E+01  0.10283405284E+03  0.10943806503E+03  0.10570000000E+00 0. -1.
         13    1    3    3    0    0 -0.37391409023E+02  0.19284739483E+01  0.21967867077E+02  0.43410077596E+02  0.10570000000E+00 0.  1.
<mgrwt>
<rscale>  0 0.88244181E+02</rscale>
<asrwt>0</asrwt>
<pdfrwt beam="1">  1        1 0.21357698E-01 0.88244181E+02</pdfrwt>
<pdfrwt beam="2">  1       -1 0.21574017E-02 0.88244181E+02</pdfrwt>
<totfact> 0.12074581E+05</totfact>
</mgrwt>
</event>
<event>
 5   1  0.1388354E+00  0.5932503E+02  0.7818608E-02  0.1400686E+00
          1   -1    0    0  501    0  0.00000000000E+00  0.00000000000E+00  0.80271718151E+02  0.80271718287E+02  0.46700000000E-02 0. -1.
         -1   -1    0    0    0  501 -0.00000000000E+00 -0.00000000000E+00 -0.10961079064E+02  0.10961080059E+02  0.46700000000E-02 0.  1.
         23    2    1    2    0    0  0.00000000000E+00  0.00000000000E+00  0.69310639087E+02  0.91232798345E+02  0.59325026787E+02 0.  0.
        -13    1    3    3    0    0  0.15290160920E+02 -0.17827406498E+02  0.62517439233E+02  0.66783581995E+02  0.10570000000E+00 0. -1.
         13    1    3    3    0    0 -0.15290160920E+02  0.17827406498E+02  0.67931998542E+01  0.24449216350E+02  0.10570000000E+00 0.  1.
<mgrwt>
<rscale>  0 0.59325027E+02</rscale>
<asrwt>0</asrwt>
<pdfrwt beam="1">  1        1 0.12349495E-01 0.59325027E+02</pdfrwt>
<pdfrwt beam="2">  1       -1 0.16863199E-02 0.59325027E+02</pdfrwt>
<totfact> 0.31685351E+05</totfact>
</mgrwt>
</event>
<event>
 5   1  0.1388354E+00  0.9160242E+02  0.7818608E-02  0.1299017E+00
         -1   -1    0    0    0  501 -0.00000000000E+00  0.00000000000E+00  0.17905270960E+02  0.17905271569E+02  0.46700000000E-02 0.  1.
          1   -1    0    0  501    0  0.00000000000E+00 -0.00000000000E+00 -0.11715829432E+03  0.11715829441E+03  0.46700000000E-02 0. -1.
         23    2    1    2    0    0  0.00000000000E+00  0.00000000000E+00 -0.99253023358E+02  0.13506356598E+03  0.91602424691E+02 0.  0.
        -13    1    3    3    0    0  0.17421318121E+02  0.77324526165E+01  0.11779618013E+02  0.22406778474E+02  0.10570000000E+00 0.  1.
         13    1    3    3    0    0 -0.17421318121E+02 -0.77324526165E+01 -0.11103264137E+03  0.11265678750E+03  0.10570000000E+00 0. -1.
<mgrwt>
<rscale>  0 0.91602425E+02</rscale>
<asrwt>0</asrwt>
<pdfrwt beam="2">  1        1 0.18024353E-01 0.91602425E+02</pdfrwt>
<pdfrwt beam="1">  1       -1 0.27546572E-02 0.91602425E+02</pdfrwt>
<totfact> 0.10594341E+05</totfact>
</mgrwt>
</event>
<event>
 5   1  0.1388354E+00  0.9140189E+02  0.7818608E-02  0.1299492E+00
         -1   -1    0    0    0  501 -0.00000000000E+00  0.00000000000E+00  0.27172500780E+02  0.27172501181E+02  0.46700000000E-02 0.  1.
          1   -1    0    0  501    0  0.00000000000E+00 -0.00000000000E+00 -0.76863610286E+02  0.76863610428E+02  0.46700000000E-02 0. -1.
         23    2    1    2    0    0  0.00000000000E+00  0.00000000000E+00 -0.49691109506E+02  0.10403611161E+03  0.91401893606E+02 0.  0.
        -13    1    3    3    0    0 -0.12493088378E+02 -0.87907381390E+01  0.24180345549E+02  0.28601654106E+02  0.10570000000E+00 0.  1.
         13    1    3    3    0    0  0.12493088378E+02  0.87907381390E+01 -0.73871455055E+02  0.75434457503E+02  0.10570000000E+00 0. -1.
<mgrwt>
<rscale>  0 0.91401894E+02</rscale>
<asrwt>0</asrwt>
<pdfrwt beam="2">  1        1 0.11825171E-01 0.91401894E+02</pdfrwt>
<pdfrwt beam="1">  1       -1 0.41803848E-02 0.91401894E+02</pdfrwt>
<totfact> 0.99435870E+04</totfact>
</mgrwt>
</event>
<event>
 5   1  0.1388354E+00  0.9177585E+02  0.7818608E-02  0.1298607E+00
          1   -1    0    0  501    0  0.00000000000E+00  0.00000000000E+00  0.11528235790E+03  0.11528235800E+03  0.46700000000E-02 0. -1.
         -1   -1    0    0    0  501 -0.00000000000E+00 -0.00000000000E+00 -0.18265601257E+02  0.18265601854E+02  0.46700000000E-02 0.  1.
         23    2    1    2    0    0  0.00000000000E+00  0.00000000000E+00  0.97016756647E+02  0.13354795985E+03  0.91775849276E+02 0.  0.
        -13    1    3    3    0    0  0.12957993046E+02 -0.32420172153E+02  0.51772039774E+01  0.35295775381E+02  0.10570000000E+00 0.  1.
         13    1    3    3    0    0 -0.12957993046E+02  0.32420172153E+02  0.91839552670E+02  0.98252184471E+02  0.10570000000E+00 0. -1.
<mgrwt>
<rscale>  0 0.91775849E+02</rscale>
<asrwt>0</asrwt>
<pdfrwt beam="1">  1        1 0.17735748E-01 0.91775849E+02</pdfrwt>
<pdfrwt beam="2">  1       -1 0.28100925E-02 0.91775849E+02</pdfrwt>
<totfact> 0.10510654E+05</totfact>
</mgrwt>
</event>
<event>
 5   1  0.1388354E+00  0.9048831E+02  0.7818608E-02  0.1301673E+00
          1   -1    0    0  501    0  0.00000000000E+00  0.00000000000E+00  0.29098752437E+02  0.29098752811E+02  0.46700000000E-02 0. -1.
         -1   -1    0    0    0  501 -0.00000000000E+00 -0.00000000000E+00 -0.70347818049E+02  0.70347818204E+02  0.46700000000E-02 0.  1.
         23    2    1    2    0    0  0.00000000000E+00  0.00000000000E+00 -0.41249065613E+02  0.99446571016E+02  0.90488314565E+02 0.  0.
        -13    1    3    3    0    0  0.34719060631E+02  0.20880420663E+02 -0.42758315057E+02  0.58904073010E+02  0.10570000000E+00 0.  1.
         13    1    3    3    0    0 -0.34719060631E+02 -0.20880420663E+02  0.15092494440E+01  0.40542498006E+02  0.10570000000E+00 0. -1.
<mgrwt>
<rscale>  0 0.90488315E+02</rscale>
<asrwt>0</asrwt>
<pdfrwt beam="1">  1        1 0.44767312E-02 0.90488315E+02</pdfrwt>
<pdfrwt beam="2">  1       -1 0.10822741E-01 0.90488315E+02</pdfrwt>
<totfact> 0.88156203E+04</totfact>
</mgrwt>
</event>
<event>
 5   1  0.1388354E+00  0.9117301E+02  0.7818608E-02  0.1300036E+00
         -1   -1    0    0    0  501 -0.00000000000E+00  0.00000000000E+00  0.24031374117E+02  0.24031374571E+02  0.46700000000E-02 0.  1.
          1   -1    0    0  501    0  0.00000000000E+00 -0.00000000000E+00 -0.86475681270E+02  0.86475681396E+02  0.46700000000E-02 0. -1.
         23    2    1    2    0    0  0.00000000000E+00  0.00000000000E+00 -0.62444307153E+02  0.11050705597E+03  0.91173010933E+02 0.  0.
        -13    1    3    3    0    0 -0.26352705112E+02 -0.36950646490E+02 -0.36407579578E+02  0.58183660644E+02  0.10570000000E+00 0. -1.
         13    1    3    3    0    0  0.26352705112E+02  0.36950646490E+02 -0.26036727574E+02  0.52323395322E+02  0.10570000000E+00 0.  1.
<mgrwt>
<rscale>  0 0.91173011E+02</rscale>
<asrwt>0</asrwt>
<pdfrwt beam="2">  1        1 0.13303951E-01 0.91173011E+02</pdfrwt>
<pdfrwt beam="1">  1       -1 0.36971345E-02 0.91173011E+02</pdfrwt>
<totfact> 0.10201222E+05</totfact>
</mgrwt>
</event>
<event>
 5   1  0.1388354E+00  0.9220409E+02  0.7818608E-02  0.1297600E+00
         -1   -1    0    0    0  501 -0.00000000000E+00  0.00000000000E+00  0.12370239618E+02  0.12370240499E+02  0.46700000000E-02 0.  1.
          1   -1    0    0  501    0  0.00000000000E+00 -0.00000000000E+00 -0.17181545877E+03  0.17181545883E+03  0.46700000000E-02 0. -1.
         23    2    1    2    0    0  0.00000000000E+00  0.00000000000E+00 -0.15944521915E+03  0.18418569933E+03  0.92204088456E+02 0.  0.
        -13    1    3    3    0    0  0.37104675427E+02  0.15795477079E+02 -0.12435128428E+03  0.13072684158E+03  0.10570000000E+00 0. -1.
         13    1    3    3    0    0 -0.37104675427E+02 -0.15795477079E+02 -0.35093934864E+02  0.53458857745E+02  0.10570000000E+00 0.  1.
<mgrwt>
<rscale>  0 0.92204088E+02</rscale>
<asrwt>0</asrwt>
<pdfrwt beam="2">  1        1 0.26433146E-01 0.92204088E+02</pdfrwt>
<pdfrwt beam="1">  1       -1 0.19031140E-02 0.92204088E+02</pdfrwt>
<totfact> 0.11158681E+05</totfact>
</mgrwt>
</event>
<event>
 5   1  0.1388354E+00  0.8859367E+02  0.7818608E-02  0.1306293E+00
          1   -1    0    0  501    0  0.00000000000E+00  0.00000000000E+00  0.26241876676E+03  0.26241876680E+03  0.46700000000E-02 0. -1.
         -1   -1    0    0    0  501 -0.00000000000E+00 -0.00000000000E+00 -0.74773978455E+01  0.74773993038E+01  0.46700000000E-02 0.  1.
         23    2    1    2    0    0  0.00000000000E+00  0.00000000000E+00  0.25494136891E+03  0.26989616611E+03  0.88593672993E+02 0.  0.
        -13    1    3    3    0    0 -0.34783209064E+02 -0.59735521778E+01  0.45916618300E+02  0.57912882565E+02  0.10570000000E+00 0.  1.
         13    1    3    3    0    0  0.34783209064E+02  0.59735521778E+01  0.20902475061E+03  0.21198328354E+03  0.10570000000E+00 0. -1.
<mgrwt>
<rscale>  0 0.88593673E+02</rscale>
<asrwt>0</asrwt>
<pdfrwt beam="1">  1        1 0.40372120E-01 0.88593673E+02</pdfrwt>
<pdfrwt beam="2">  1       -1 0.11503690E-02 0.88593673E+02</pdfrwt>
<totfact> 0.13477997E+05</totfact>
</mgrwt>
</event>
<event>
 5   1  0.1388354E+00  0.9161699E+02  0.7818608E-02  0.1298983E+00
         -1   -1    0    0    0  501 -0.00000000000E+00  0.00000000000E+00  0.56999038399E+01  0.56999057530E+01  0.46700000000E-02 0.  1.
          1   -1    0    0  501    0  0.00000000000E+00 -0.00000000000E+00 -0.36814965550E+03  0.36814965553E+03  0.46700000000E-02 0. -1.
         23    2    1    2    0    0  0.00000000000E+00  0.00000000000E+00 -0.36244975166E+03  0.37384956129E+03  0.91616985286E+02 0.  0.
        -13    1    3    3    0    0 -0.43072923586E+02  0.28441595531E+01 -0.24378427081E+03  0.24757654949E+03  0.10570000000E+00 0.  1.
         13    1    3    3    0    0  0.43072923586E+02 -0.28441595531E+01 -0.11866548086E+03  0.12627301180E+03  0.10570000000E+00 0. -1.
<mgrwt>
<rscale>  0 0.91616985E+02</rscale>
<asrwt>0</asrwt>
<pdfrwt beam="2">  1        1 0.56638390E-01 0.91616985E+02</pdfrwt>
<pdfrwt beam="1">  1       -1 0.87690872E-03 0.91616985E+02</pdfrwt>
<totfact> 0.13131716E+05</totfact>
</mgrwt>
</event>
<event>
 5   1  0.1388354E+00  0.9327703E+02  0.7818608E-02  0.1295104E+00
          1   -1    0    0  501    0  0.00000000000E+00  0.00000000000E+00  0.12271622602E+03  0.12271622611E+03  0.46700000000E-02 0. -1.
         -1   -1    0    0    0  501 -0.00000000000E+00 -0.00000000000E+00 -0.17725048655E+02  0.17725049270E+02  0.46700000000E-02 0.  1.
         23    2    1    2    0    0  0.00000000000E+00  0.00000000000E+00  0.10499117737E+03  0.14044127538E+03  0.93277030965E+02 0.  0.
        -13    1    3    3    0    0 -0.37606450578E+02  0.12509421388E+02  0.15479921138E+02  0.42548441563E+02  0.10570000000E+00 0.  1.
         13    1    3    3    0    0  0.37606450578E+02 -0.12509421388E+02  0.89511256229E+02  0.97892833817E+02  0.10570000000E+00 0. -1.
<mgrwt>
<rscale>  0 0.93277031E+02</rscale>
<asrwt>0</asrwt>
<pdfrwt beam="1">  1        1 0.18879419E-01 0.93277031E+02</pdfrwt>
<pdfrwt beam="2">  1       -1 0.27269306E-02 0.93277031E+02</pdfrwt>
<totfact> 0.10167141E+05</totfact>
</mgrwt>
</event>
<event>
 5   1  0.1388354E+00  0.8894605E+02  0.7818608E-02  0.1305424E+00
         -1   -1    0    0    0  501 -0.00000000000E+00  0.00000000000E+00  0.17304317705E+02  0.17304318335E+02  0.46700000000E-02 0.  1.
          1   -1    0    0  501    0  0.00000000000E+00 -0.00000000000E+00 -0.11429804906E+03  0.11429804916E+03  0.46700000000E-02 0. -1.
         23    2    1    2    0    0  0.00000000000E+00  0.00000000000E+00 -0.96993731358E+02  0.13160236749E+03  0.88946046607E+02 0.  0.
        -13    1    3    3    0    0  0.13932774704E+02  0.35649210886E+02 -0.82003615982E+02  0.90496368183E+02  0.10570000000E+00 0. -1.
         13    1    3    3    0    0 -0.13932774704E+02 -0.35649210886E+02 -0.14990115376E+02  0.41105999309E+02  0.10570000000E+00 0.  1.
<mgrwt>
<rscale>  0 0.88946047E+02</rscale>
<asrwt>0</asrwt>
<pdfrwt beam="2">  1        1 0.17584315E-01 0.88946047E+02</pdfrwt>
<pdfrwt beam="1">  1       -1 0.26622029E-02 0.88946047E+02</pdfrwt>
<totfact> 0.11425281E+05</totfact>
</mgrwt>
</event>
<event>
 5   1  0.1388354E+00  0.9115782E+02  0.7818608E-02  0.1300072E+00
         -1   -1    0    0    0  501 -0.00000000000E+00  0.00000000000E+00  0.13636766876E+02  0.13636767676E+02  0.46700000000E-02 0.  1.
          1   -1    0    0  501    0  0.00000000000E+00 -0.00000000000E+00 -0.15234086081E+03  0.15234086088E+03  0.46700000000E-02 0. -1.
         23    2    1    2    0    0  0.00000000000E+00  0.00000000000E+00 -0.13870409393E+03  0.16597762856E+03  0.91157816491E+02 0.  0.
        -13    1    3    3    0    0  0.16929860954E+02  0.32350033257E+02 -0.19678626420E+02  0.41477757340E+02  0.10570000000E+00 0.  1.
         13    1    3    3    0    0 -0.16929860954E+02 -0.32350033257E+02 -0.11902546751E+03  0.12449987122E+03  0.10570000000E+00 0. -1.
<mgrwt>
<rscale>  0 0.91157816E+02</rscale>
<asrwt>0</asrwt>
<pdfrwt beam="2">  1        1 0.23437054E-01 0.91157816E+02</pdfrwt>
<pdfrwt beam="1">  1       -1 0.20979643E-02 0.91157816E+02</pdfrwt>
<totfact> 0.11251627E+05</totfact>
</mgrwt>
</event>
<event>
 5   1  0.1388354E+00  0.9551013E+02  0.7818608E-02  0.1290031E+00
         -1   -1    0    0    0  501 -0.00000000000E+00  0.00000000000E+00  0.38151063407E+02  0.38151063693E+02  0.46700000000E-02 0.  1.
          1   -1    0    0  501    0  0.00000000000E+00 -0.00000000000E+00 -0.59776739586E+02  0.59776739769E+02  0.46700000000E-02 0. -1.
         23    2    1    2    0    0  0.00000000000E+00  0.00000000000E+00 -0.21625676180E+02  0.97927803461E+02  0.95510129413E+02 0.  0.
        -13    1    3    3    0    0  0.41261812005E+02 -0.30190190872E+01 -0.35267869249E+02  0.54364376020E+02  0.10570000000E+00 0. -1.
         13    1    3    3    0    0 -0.41261812005E+02  0.30190190872E+01  0.13642193069E+02  0.43563427441E+02  0.10570000000E+00 0.  1.
<mgrwt>
<rscale>  0 0.95510129E+02</rscale>
<asrwt>0</asrwt>
<pdfrwt beam="2">  1        1 0.91964214E-02 0.95510129E+02</pdfrwt>
<pdfrwt beam="1">  1       -1 0.58693944E-02 0.95510129E+02</pdfrwt>
<totfact> 0.84628543E+04</totfact>
</mgrwt>
</event>
<event>
 5   1  0.1388354E+00  0.7913482E+02  0.7818608E-02  0.1331525E+00
          1   -1    0    0  501    0  0.00000000000E+00  0.00000000000E+00  0.18775341200E+03  0.18775341206E+03  0.46700000000E-02 0. -1.
         -1   -1    0    0    0  501 -0.00000000000E+00 -0.00000000000E+00 -0.83384882976E+01  0.83384896053E+01  0.46700000000E-02 0.  1.
         23    2    1    2    0    0  0.00000000000E+00  0.00000000000E+00  0.17941492371E+03  0.19609190167E+03  0.79134815669E+02 0.  0.
        -13    1    3    3    0    0  0.26854059805E+02 -0.17149483823E+02  0.31577371172E+02  0.44859635153E+02  0.10570000000E+00 0.  1.
         13    1    3    3    0    0 -0.26854059805E+02  0.17149483823E+02  0.14783755253E+03  0.15123226651E+03  0.10570000000E+00 0. -1.
<mgrwt>
<rscale>  0 0.79134816E+02</rscale>
<asrwt>0</asrwt>
<pdfrwt beam="1">  1        1 0.28885138E-01 0.79134816E+02</pdfrwt>
<pdfrwt beam="2">  1       -1 0.12828446E-02 0.79134816E+02</pdfrwt>
<totfact> 0.17056070E+05</totfact>
</mgrwt>
</event>
<event>
 5   1  0.1388354E+00  0.8519890E+02  0.7818608E-02  0.1314913E+00
         -1   -1    0    0    0  501 -0.00000000000E+00  0.00000000000E+00  0.24423102834E+03  0.24423102839E+03  0.46700000000E-02 0.  1.
          1   -1    0    0  501    0  0.00000000000E+00 -0.00000000000E+00 -0.74303130714E+01  0.74303145389E+01  0.46700000000E-02 0. -1.
         23    2    1    2    0    0  0.00000000000E+00  0.00000000000E+00  0.23680071527E+03  0.25166134293E+03  0.85198901228E+02 0.  0.
        -13    1    3    3    0    0 -0.18819470092E+02  0.32165324840E+02  0.17936068194E+03  0.18319128247E+03  0.10570000000E+00 0.  1.
         13    1    3    3    0    0  0.18819470092E+02 -0.32165324840E+02  0.57440033337E+02  0.68470060456E+02  0.10570000000E+00 0. -1.
<mgrwt>
<rscale>  0 0.85198901E+02</rscale>
<asrwt>0</asrwt>
<pdfrwt beam="2">  1        1 0.11431254E-02 0.85198901E+02</pdfrwt>
<pdfrwt beam="1">  1       -1 0.37573998E-01 0.85198901E+02</pdfrwt>
<totfact> 0.77878191E+04</totfact>
</mgrwt>
</event>
<event>
 5   1  0.1388354E+00  0.9083543E+02  0.7818608E-02  0.1300841E+00
          1   -1    0    0  501    0  0.00000000000E+00  0.00000000000E+00  0.66659751435E+02  0.66659751599E+02  0.46700000000E-02 0. -1.
         -1   -1    0    0    0  501 -0.00000000000E+00 -0.00000000000E+00 -0.30944739616E+02  0.30944739968E+02  0.46700000000E-02 0.  1.
         23    2    1    2    0    0  0.00000000000E+00  0.00000000000E+00  0.35715011819E+02  0.97604491567E+02  0.90835426485E+02 0.  0.
        -13    1    3    3    0    0 -0.32456655000E+01 -0.40335841030E+02  0.40015639444E+02  0.56910253810E+02  0.10570000000E+00 0. -1.
         13    1    3    3    0    0  0.32456655000E+01  0.40335841030E+02 -0.43006276245E+01  0.40694237757E+02  0.10570000000E+00 0.  1.
<mgrwt>
<rscale>  0 0.90835426E+02</rscale>
<asrwt>0</asrwt>
<pdfrwt beam="1">  1        1 0.10255346E-01 0.90835426E+02</pdfrwt>
<pdfrwt beam="2">  1       -1 0.47607293E-02 0.90835426E+02</pdfrwt>
<totfact> 0.98947716E+04</totfact>
</mgrwt>
</event>
<event>
 5   1  0.1388354E+00  0.8821522E+02  0.7818608E-02  0.1307232E+00
         -1   -1    0    0    0  501 -0.00000000000E+00  0.00000000000E+00  0.11923038531E+03  0.11923038540E+03  0.46700000000E-02 0.  1.
          1   -1    0    0  501    0  0.00000000000E+00 -0.00000000000E+00 -0.16316991182E+02  0.16316991850E+02  0.46700000000E-02 0. -1.
         23    2    1    2    0    0  0.00000000000E+00  0.00000000000E+00  0.10291339413E+03  0.13554737725E+03  0.88215218579E+02 0.  0.
        -13    1    3    3    0    0  0.19947576493E+02  0.39069937709E+02  0.58515513502E+02  0.73133045427E+02  0.10570000000E+00 0.  1.
         13    1    3    3    0    0 -0.19947576493E+02 -0.39069937709E+02  0.44397880627E+02  0.62414331825E+02  0.10570000000E+00 0. -1.
<mgrwt>
<rscale>  0 0.88215219E+02</rscale>
<asrwt>0</asrwt>
<pdfrwt beam="2">  1        1 0.25103063E-02 0.88215219E+02</pdfrwt>
<pdfrwt beam="1">  1       -1 0.18343137E-01 0.88215219E+02</pdfrwt>
<totfact> 0.85629349E+04</totfact>
</mgrwt>
</event>
<event>
 5   1  0.1388354E+00  0.8735690E+02  0.7818608E-02  0.1309382E+00
          1   -1    0    0  501    0  0.00000000000E+00  0.00000000000E+00  0.13628898412E+03  0.13628898420E+03  0.46700000000E-02 0. -1.
         -1   -1    0    0    0  501 -0.00000000000E+00 -0.00000000000E+00 -0.13998247774E+02  0.13998248553E+02  0.46700000000E-02 0.  1.
         23    2    1    2    0    0  0.00000000000E+00  0.00000000000E+00  0.12229073634E+03  0.15028723275E+03  0.87356900885E+02 0.  0.
        -13    1    3    3    0    0  0.35583982892E+00 -0.27339808306E+02  0.25461163402E+01  0.27460619460E+02  0.10570000000E+00 0. -1.
         13    1    3    3    0    0 -0.35583982892E+00  0.27339808306E+02  0.11974462000E+03  0.12282661329E+03  0.10570000000E+00 0.  1.
<mgrwt>
<rscale>  0 0.87356901E+02</rscale>
<asrwt>0</asrwt>
<pdfrwt beam="1">  1        1 0.20967537E-01 0.87356901E+02</pdfrwt>
<pdfrwt beam="2">  1       -1 0.21535765E-02 0.87356901E+02</pdfrwt>
<totfact> 0.12366564E+05</totfact>
</mgrwt>
</event>
<event>
 5   1  0.1388354E+00  0.9156631E+02  0.7818608E-02  0.1299102E+00
         -1   -1    0    0    0  501 -0.00000000000E+00  0.00000000000E+00  0.23843456662E+03  0.23843456666E+03  0.46700000000E-02 0.  1.
          1   -1    0    0  501    0  0.00000000000E+00 -0.00000000000E+00 -0.87910787960E+01  0.87910800364E+01  0.46700000000E-02 0. -1.
         23    2    1    2    0    0  0.00000000000E+00  0.00000000000E+00  0.22964348782E+03  0.24722564670E+03  0.91566308690E+02 0.  0.
        -13    1    3    3    0    0  0.40907173889E+02 -0.15256901838E+02  0.15202994977E+03  0.15817486124E+03  0.10570000000E+00 0.  1.
         13    1    3    3    0    0 -0.40907173889E+02  0.15256901838E+02  0.77613538051E+02  0.89050785457E+02  0.10570000000E+00 0. -1.
<mgrwt>
<rscale>  0 0.91566309E+02</rscale>
<asrwt>0</asrwt>
<pdfrwt beam="2">  1        1 0.13524738E-02 0.91566309E+02</pdfrwt>
<pdfrwt beam="1">  1       -1 0.36682240E-01 0.91566309E+02</pdfrwt>
<totfact> 0.65064933E+04</totfact>
</mgrwt>
</event>
<event>
 5   1  0.1388354E+00  0.9136168E+02  0.7818608E-02  0.1299587E+00
         -1   -1    0    0    0  501 -0.00000000000E+00  0.00000000000E+00  0.16998440326E+02  0.16998440967E+02  0.46700000000E-02 0.  1.
          1   -1    0    0  501    0  0.00000000000E+00 -0.00000000000E+00 -0.12276063048E+03  0.12276063057E+03  0.46700000000E-02 0. -1.
         23    2    1    2    0    0  0.00000000000E+00  0.00000000000E+00 -0.10576219016E+03  0.13975907154E+03  0.91361683492E+02 0.  0.
        -13    1    3    3    0    0 -0.14428158153E+02  0.38833863040E+02 -0.23436697587E+02  0.47597590617E+02  0.10570000000E+00 0.  1.
         13    1    3    3    0    0  0.14428158153E+02 -0.38833863040E+02 -0.82325492569E+02  0.92161480921E+02  0.10570000000E+00 0. -1.
<mgrwt>
<rscale>  0 0.91361683E+02</rscale>
<asrwt>0</asrwt>
<pdfrwt beam="2">  1        1 0.18886250E-01 0.91361683E+02</pdfrwt>
<pdfrwt beam="1">  1       -1 0.26151448E-02 0.91361683E+02</pdfrwt>
<totfact> 0.10757430E+05</totfact>
</mgrwt>
</event>
<event>
 5   1  0.1388354E+00  0.8852222E+02  0.7818608E-02  0.1306470E+00
         -1   -1    0    0    0  501 -0.00000000000E+00  0.00000000000E+00  0.59863763602E+02  0.59863763784E+02  0.46700000000E-02 0.  1.
          1   -1    0    0  501    0  0.00000000000E+00 -0.00000000000E+00 -0.32725070400E+02  0.32725070733E+02  0.46700000000E-02 0. -1.
         23    2    1    2    0    0  0.00000000000E+00  0.00000000000E+00  0.27138693202E+02  0.92588834517E+02  0.88522220988E+02 0.  0.
        -13    1    3    3    0    0 -0.35392095616E+02  0.18733125042E+02 -0.61516455046E+01  0.40514001540E+02  0.10570000000E+00 0. -1.
         13    1    3    3    0    0  0.35392095616E+02 -0.18733125042E+02  0.33290338706E+02  0.52074832977E+02  0.10570000000E+00 0.  1.
<mgrwt>
<rscale>  0 0.88522221E+02</rscale>
<asrwt>0</asrwt>
<pdfrwt beam="2">  1        1 0.50346263E-02 0.88522221E+02</pdfrwt>
<pdfrwt beam="1">  1       -1 0.92098097E-02 0.88522221E+02</pdfrwt>
<totfact> 0.95605001E+04</totfact>
</mgrwt>
</event>
<event>
 5   1  0.1388354E+00  0.9086163E+02  0.7818608E-02  0.1300778E+00
         -1   -1    0    0    0  501 -0.00000000000E+00  0.00000000000E+00  0.49445534161E+03  0.49445534164E+03  0.46700000000E-02 0.  1.
          1   -1    0    0  501    0  0.00000000000E+00 -0.00000000000E+00 -0.41742059196E+01  0.41742085320E+01  0.46700000000E-02 0. -1.
         23    2    1    2    0    0  0.00000000000E+00  0.00000000000E+00  0.49028113569E+03  0.49862955017E+03  0.90861632624E+02 0.  0.
        -13    1    3    3    0    0 -0.40291788631E+02  0.20987405829E+02  0.24393245881E+03  0.24812689308E+03  0.10570000000E+00 0.  1.
         13    1    3    3    0    0  0.40291788631E+02 -0.20987405829E+02  0.24634867688E+03  0.25050265709E+03  0.10570000000E+00 0. -1.
<mgrwt>
<rscale>  0 0.90861633E+02</rscale>
<asrwt>0</asrwt>
<pdfrwt beam="2">  1        1 0.64218574E-03 0.90861633E+02</pdfrwt>
<pdfrwt beam="1">  1       -1 0.76070052E-01 0.90861633E+02</pdfrwt>
<totfact> 0.47797748E+04</totfact>
</mgrwt>
</event>
<event>
 5   1  0.1388354E+00  0.8989774E+02  0.7818608E-02  0.1303100E+00
          1   -1    0    0  501    0  0.00000000000E+00  0.00000000000E+00  0.11557671807E+02  0.11557672751E+02  0.46700000000E-02 0. -1.
         -1   -1    0    0    0  501 -0.00000000000E+00 -0.00000000000E+00 -0.17481035498E+03  0.17481035504E+03  0.46700000000E-02 0.  1.
         23    2    1    2    0    0  0.00000000000E+00  0.00000000000E+00 -0.16325268317E+03  0.18636802779E+03  0.89897737572E+02 0.  0.
        -13    1    3    3    0    0 -0.34994897257E+02 -0.21255159326E+02 -0.12007487462E+03  0.12686375100E+03  0.10570000000E+00 0.  1.
         13    1    3    3    0    0  0.34994897257E+02  0.21255159326E+02 -0.43177808555E+02  0.59504276788E+02  0.10570000000E+00 0. -1.
<mgrwt>
<rscale>  0 0.89897738E+02</rscale>
<asrwt>0</asrwt>
<pdfrwt beam="1">  1        1 0.17781036E-02 0.89897738E+02</pdfrwt>
<pdfrwt beam="2">  1       -1 0.26893899E-01 0.89897738E+02</pdfrwt>
<totfact> 0.74712986E+04</totfact>
</mgrwt>
</event>
<event>
 5   1  0.1388354E+00  0.9055345E+02  0.7818608E-02  0.1301517E+00
          1   -1    0    0  501    0  0.00000000000E+00  0.00000000000E+00  0.21063325237E+03  0.21063325242E+03  0.46700000000E-02 0. -1.
         -1   -1    0    0    0  501 -0.00000000000E+00 -0.00000000000E+00 -0.97324689180E+01  0.97324700384E+01  0.46700000000E-02 0.  1.
         23    2    1    2    0    0  0.00000000000E+00  0.00000000000E+00  0.20090078345E+03  0.22036572246E+03  0.90553447442E+02 0.  0.
        -13    1    3    3    0    0  0.44823014253E+02  0.63354742397E+01  0.98371601887E+02  0.10828769122E+03  0.10570000000E+00 0. -1.
         13    1    3    3    0    0 -0.44823014253E+02 -0.63354742397E+01  0.10252918156E+03  0.11207803123E+03  0.10570000000E+00 0.  1.
<mgrwt>
<rscale>  0 0.90553447E+02</rscale>
<asrwt>0</asrwt>
<pdfrwt beam="1">  1        1 0.32405115E-01 0.90553447E+02</pdfrwt>
<pdfrwt beam="2">  1       -1 0.14973030E-02 0.90553447E+02</pdfrwt>
<totfact> 0.12182142E+05</totfact>
</mgrwt>
</event>
<event>
 5   1  0.1388354E+00  0.9099174E+02  0.7818608E-02  0.1300468E+00
         -1   -1    0    0    0  501 -0.00000000000E+00  0.00000000000E+00  0.14982402373E+03  0.14982402380E+03  0.46700000000E-02 0.  1.
          1   -1    0    0  501    0  0.00000000000E+00 -0.00000000000E+00 -0.13815370004E+02  0.13815370793E+02  0.46700000000E-02 0. -1.
         23    2    1    2    0    0  0.00000000000E+00  0.00000000000E+00  0.13600865372E+03  0.16363939459E+03  0.90991744543E+02 0.  0.
        -13    1    3    3    0    0  0.91214632541E+01 -0.40929527858E+02  0.99741642732E+02  0.10819812295E+03  0.10570000000E+00 0.  1.
         13    1    3    3    0    0 -0.91214632541E+01  0.40929527858E+02  0.36267010992E+02  0.55441271643E+02  0.10570000000E+00 0. -1.
<mgrwt>
<rscale>  0 0.90991745E+02</rscale>
<asrwt>0</asrwt>
<pdfrwt beam="2">  1        1 0.21254415E-02 0.90991745E+02</pdfrwt>
<pdfrwt beam="1">  1       -1 0.23049851E-01 0.90991745E+02</pdfrwt>
<totfact> 0.75204867E+04</totfact>
</mgrwt>
</event>
<event>
 5   1  0.1388354E+00  0.9230829E+02  0.7818608E-02  0.1297356E+00
         -1   -1    0    0    0  501 -0.00000000000E+00  0.00000000000E+00  0.20981614945E+03  0.20981614951E+03  0.46700000000E-02 0.  1.
          1   -1    0    0  501    0  0.00000000000E+00 -0.00000000000E+00 -0.10152721364E+02  0.10152722438E+02  0.46700000000E-02 0. -1.
         23    2    1    2    0    0  0.00000000000E+00  0.00000000000E+00  0.19966342809E+03  0.21996887195E+03  0.92308288403E+02 0.  0.
        -13    1    3    3    0    0  0.30404739238E+02  0.81228822563E+01  0.18028209162E+03  0.18300839629E+03  0.10570000000E+00 0.  1.
         13    1    3    3    0    0 -0.30404739238E+02 -0.81228822563E+01  0.19381336475E+02  0.36960475651E+02  0.10570000000E+00 0. -1.
<mgrwt>
<rscale>  0 0.92308288E+02</rscale>
<asrwt>0</asrwt>
<pdfrwt beam="2">  1        1 0.15619573E-02 0.92308288E+02</pdfrwt>
<pdfrwt beam="1">  1       -1 0.32279406E-01 0.92308288E+02</pdfrwt>
<totfact> 0.66294223E+04</totfact>
</mgrwt>
</event>
<event>
 5   1  0.1388354E+00  0.9387705E+02  0.7818608E-02  0.1293725E+00
         -1   -1    0    0    0  501 -0.00000000000E+00  0.00000000000E+00  0.29683693068E+02  0.29683693435E+02  0.46700000000E-02 0.  1.
          1   -1    0    0  501    0  0.00000000000E+00 -0.00000000000E+00 -0.74223415692E+02  0.74223415839E+02  0.46700000000E-02 0. -1.
         23    2    1    2    0    0  0.00000000000E+00  0.00000000000E+00 -0.44539722624E+02  0.10390710927E+03  0.93877049731E+02 0.  0.
        -13    1    3    3    0    0  0.33522804041E+02 -0.19844115878E+02 -0.51252371645E+02  0.64376891021E+02  0.10570000000E+00 0. -1.
         13    1    3    3    0    0 -0.33522804041E+02  0.19844115878E+02  0.67126490212E+01  0.39530218253E+02  0.10570000000E+00 0.  1.
<mgrwt>
<rscale>  0 0.93877050E+02</rscale>
<asrwt>0</asrwt>
<pdfrwt beam="2">  1        1 0.11418987E-01 0.93877050E+02</pdfrwt>
<pdfrwt beam="1">  1       -1 0.45667221E-02 0.93877050E+02</pdfrwt>
<totfact> 0.91860758E+04</totfact>
</mgrwt>
</event>
<event>
 5   1  0.1388354E+00  0.7987344E+02  0.7818608E-02  0.1329411E+00
         -1   -1    0    0    0  501 -0.00000000000E+00  0.00000000000E+00  0.16747251904E+02  0.16747252555E+02  0.46700000000E-02 0.  1.
          1   -1    0    0  501    0  0.00000000000E+00 -0.00000000000E+00 -0.95236008507E+02  0.95236008621E+02  0.46700000000E-02 0. -1.
         23    2    1    2    0    0  0.00000000000E+00  0.00000000000E+00 -0.78488756603E+02  0.11198326118E+03  0.79873436576E+02 0.  0.
        -13    1    3    3    0    0  0.16154336183E+02 -0.14963487211E+02  0.74671754181E+01  0.23251632378E+02  0.10570000000E+00 0.  1.
         13    1    3    3    0    0 -0.16154336183E+02  0.14963487211E+02 -0.85955932021E+02  0.88731628798E+02  0.10570000000E+00 0. -1.
<mgrwt>
<rscale>  0 0.79873437E+02</rscale>
<asrwt>0</asrwt>
<pdfrwt beam="2">  1        1 0.14651693E-01 0.79873437E+02</pdfrwt>
<pdfrwt beam="1">  1       -1 0.25765004E-02 0.79873437E+02</pdfrwt>
<totfact> 0.14821666E+05</totfact>
</mgrwt>
</event>
<event>
 5   1  0.1388354E+00  0.9088393E+02  0.7818608E-02  0.1300725E+00
         -1   -1    0    0    0  501 -0.00000000000E+00  0.00000000000E+00  0.15168620654E+02  0.15168621373E+02  0.46700000000E-02 0.  1.
          1   -1    0    0  501    0  0.00000000000E+00 -0.00000000000E+00 -0.13613447071E+03  0.13613447079E+03  0.46700000000E-02 0. -1.
         23    2    1    2    0    0  0.00000000000E+00  0.00000000000E+00 -0.12096585006E+03  0.15130309217E+03  0.90883930475E+02 0.  0.
        -13    1    3    3    0    0  0.31572300943E+02 -0.29045720852E+02 -0.35538935178E+02  0.55708986463E+02  0.10570000000E+00 0.  1.
         13    1    3    3    0    0 -0.31572300943E+02  0.29045720852E+02 -0.85426914880E+02  0.95594105703E+02  0.10570000000E+00 0. -1.
<mgrwt>
<rscale>  0 0.90883930E+02</rscale>
<asrwt>0</asrwt>
<pdfrwt beam="2">  1        1 0.20943764E-01 0.90883930E+02</pdfrwt>
<pdfrwt beam="1">  1       -1 0.23336341E-02 0.90883930E+02</pdfrwt>
<totfact> 0.11113447E+05</totfact>
</mgrwt>
</event>
<event>
 5   1  0.1388354E+00  0.1080002E+03  0.7818608E-02  0.1264319E+00
         -1   -1    0    0    0  501 -0.00000000000E+00  0.00000000000E+00  0.43517107053E+02  0.43517107303E+02  0.46700000000E-02 0.  1.
          1   -1    0    0  501    0  0.00000000000E+00 -0.00000000000E+00 -0.67008377614E+02  0.67008377776E+02  0.46700000000E-02 0. -1.
         23    2    1    2    0    0  0.00000000000E+00  0.00000000000E+00 -0.23491270561E+02  0.11052548508E+03  0.10800019935E+03 0.  0.
        -13    1    3    3    0    0  0.24114561510E+02  0.79641256090E+01  0.37024302050E+02  0.44897098885E+02  0.10570000000E+00 0.  1.
         13    1    3    3    0    0 -0.24114561510E+02 -0.79641256090E+01 -0.60515572611E+02  0.65628386194E+02  0.10570000000E+00 0. -1.
<mgrwt>
<rscale>  0 0.10800020E+03</rscale>
<asrwt>0</asrwt>
<pdfrwt beam="2">  1        1 0.10308981E-01 0.10800020E+03</pdfrwt>
<pdfrwt beam="1">  1       -1 0.66949396E-02 0.10800020E+03</pdfrwt>
<totfact> 0.61016916E+04</totfact>
</mgrwt>
</event>
<event>
 5   1  0.1388354E+00  0.9166167E+02  0.7818608E-02  0.1298877E+00
          1   -1    0    0  501    0  0.00000000000E+00  0.00000000000E+00  0.52511082960E+03  0.52511082962E+03  0.46700000000E-02 0. -1.
         -1   -1    0    0    0  501 -0.00000000000E+00 -0.00000000000E+00 -0.40000404800E+01  0.40000432061E+01  0.46700000000E-02 0.  1.
         23    2    1    2    0    0  0.00000000000E+00  0.00000000000E+00  0.52111078912E+03  0.52911087283E+03  0.91661667050E+02 0.  0.
        -13    1    3    3    0    0  0.23297897875E+02  0.39466869906E+02  0.26152584289E+03  0.26551121169E+03  0.10570000000E+00 0. -1.
         13    1    3    3    0    0 -0.23297897875E+02 -0.39466869906E+02  0.25958494623E+03  0.26359966113E+03  0.10570000000E+00 0.  1.
<mgrwt>
<rscale>  0 0.91661667E+02</rscale>
<asrwt>0</asrwt>
<pdfrwt beam="1">  1        1 0.80786311E-01 0.91661667E+02</pdfrwt>
<pdfrwt beam="2">  1       -1 0.61539083E-03 0.91661667E+02</pdfrwt>
<totfact> 0.13807245E+05</totfact>
</mgrwt>
</event>
<event>
 5   1  0.1388354E+00  0.1023275E+03  0.7818608E-02  0.1275476E+00
          1   -1    0    0  501    0  0.00000000000E+00  0.00000000000E+00  0.41205234262E+02  0.41205234526E+02  0.46700000000E-02 0. -1.
         -1   -1    0    0    0  501 -0.00000000000E+00 -0.00000000000E+00 -0.63529011734E+02  0.63529011906E+02  0.46700000000E-02 0.  1.
         23    2    1    2    0    0  0.00000000000E+00  0.00000000000E+00 -0.22323777473E+02  0.10473424643E+03  0.10232747107E+03 0.  0.
        -13    1    3    3    0    0 -0.84342510787E+01 -0.27841535000E+02 -0.54240167887E+02  0.61549123855E+02  0.10570000000E+00 0.  1.
         13    1    3    3    0    0  0.84342510787E+01  0.27841535000E+02  0.31916390414E+02  0.43185122577E+02  0.10570000000E+00 0. -1.
<mgrwt>
<rscale>  0 0.10232747E+03</rscale>
<asrwt>0</asrwt>
<pdfrwt beam="1">  1        1 0.63392669E-02 0.10232747E+03</pdfrwt>
<pdfrwt beam="2">  1       -1 0.97736941E-02 0.10232747E+03</pdfrwt>
<totfact> 0.65543849E+04</totfact>
</mgrwt>
</event>
<event>
 5   1  0.1388354E+00  0.8670890E+02  0.7818608E-02  0.1311023E+00
         -1   -1    0    0    0  501 -0.00000000000E+00  0.00000000000E+00  0.92562687150E+01  0.92562698930E+01  0.46700000000E-02 0.  1.
          1   -1    0    0  501    0  0.00000000000E+00 -0.00000000000E+00 -0.20306327491E+03  0.20306327496E+03  0.46700000000E-02 0. -1.
         23    2    1    2    0    0  0.00000000000E+00  0.00000000000E+00 -0.19380700619E+03  0.21231954486E+03  0.86708900799E+02 0.  0.
        -13    1    3    3    0    0  0.63927178089E+01 -0.30215011490E+02 -0.22399261710E+02  0.38151695349E+02  0.10570000000E+00 0.  1.
         13    1    3    3    0    0 -0.63927178089E+01  0.30215011490E+02 -0.17140774448E+03  0.17416784951E+03  0.10570000000E+00 0. -1.
<mgrwt>
<rscale>  0 0.86708901E+02</rscale>
<asrwt>0</asrwt>
<pdfrwt beam="2">  1        1 0.31240501E-01 0.86708901E+02</pdfrwt>
<pdfrwt beam="1">  1       -1 0.14240416E-02 0.86708901E+02</pdfrwt>
<totfact> 0.13581931E+05</totfact>
</mgrwt>
</event>
<event>
 5   1  0.1388354E+00  0.9019776E+02  0.7818608E-02  0.1302373E+00
          1   -1    0    0  501    0  0.00000000000E+00  0.00000000000E+00  0.14738436859E+02  0.14738437599E+02  0.46700000000E-02 0. -1.
         -1   -1    0    0    0  501 -0.00000000000E+00 -0.00000000000E+00 -0.13800032069E+03  0.13800032077E+03  0.46700000000E-02 0.  1.
         23    2    1    2    0    0  0.00000000000E+00  0.00000000000E+00 -0.12326188383E+03  0.15273875837E+03  0.90197762182E+02 0.  0.
        -13    1    3    3    0    0  0.24516445034E+02  0.12648873612E+02 -0.12163654773E+01  0.27614141273E+02  0.10570000000E+00 0. -1.
         13    1    3    3    0    0 -0.24516445034E+02 -0.12648873612E+02 -0.12204551836E+03  0.12512461710E+03  0.10570000000E+00 0.  1.
<mgrwt>
<rscale>  0 0.90197762E+02</rscale>
<asrwt>0</asrwt>
<pdfrwt beam="1">  1        1 0.22674520E-02 0.90197762E+02</pdfrwt>
<pdfrwt beam="2">  1       -1 0.21230818E-01 0.90197762E+02</pdfrwt>
<totfact> 0.78385577E+04</totfact>
</mgrwt>
</event>
<event>
 5   1  0.1388354E+00  0.9683672E+02  0.7818608E-02  0.1287092E+00
          1   -1    0    0  501    0  0.00000000000E+00  0.00000000000E+00  0.23296952866E+02  0.23296953334E+02  0.46700000000E-02 0. -1.
         -1   -1    0    0    0  501 -0.00000000000E+00 -0.00000000000E+00 -0.10062849898E+03  0.10062849909E+03  0.46700000000E-02 0.  1.
         23    2    1    2    0    0  0.00000000000E+00  0.00000000000E+00 -0.77331546116E+02  0.12392545242E+03  0.96836716868E+02 0.  0.
        -13    1    3    3    0    0  0.45708705986E+01  0.47091539588E+02 -0.25501255294E+02  0.53747847891E+02  0.10570000000E+00 0. -1.
         13    1    3    3    0    0 -0.45708705986E+01 -0.47091539588E+02 -0.51830290822E+02  0.70177604533E+02  0.10570000000E+00 0.  1.
<mgrwt>
<rscale>  0 0.96836717E+02</rscale>
<asrwt>0</asrwt>
<pdfrwt beam="1">  1        1 0.35841467E-02 0.96836717E+02</pdfrwt>
<pdfrwt beam="2">  1       -1 0.15481307E-01 0.96836717E+02</pdfrwt>
<totfact> 0.69579297E+04</totfact>
</mgrwt>
</event>
<event>
 5   1  0.1388354E+00  0.8455399E+02  0.7818608E-02  0.1316603E+00
          1   -1    0    0  501    0  0.00000000000E+00  0.00000000000E+00  0.26430891413E+03  0.26430891417E+03  0.46700000000E-02 0. -1.
         -1   -1    0    0    0  501 -0.00000000000E+00 -0.00000000000E+00 -0.67623293049E+01  0.67623309174E+01  0.46700000000E-02 0.  1.
         23    2    1    2    0    0  0.00000000000E+00  0.00000000000E+00  0.25754658483E+03  0.27107124509E+03  0.84553986062E+02 0.  0.
        -13    1    3    3    0    0  0.21737076290E+02 -0.36109141782E+02  0.13938783838E+03  0.14562057296E+03  0.10570000000E+00 0. -1.
         13    1    3    3    0    0 -0.21737076290E+02  0.36109141782E+02  0.11815874644E+03  0.12545067214E+03  0.10570000000E+00 0.  1.
<mgrwt>
<rscale>  0 0.84553986E+02</rscale>
<asrwt>0</asrwt>
<pdfrwt beam="1">  1        1 0.40662912E-01 0.84553986E+02</pdfrwt>
<pdfrwt beam="2">  1       -1 0.10403584E-02 0.84553986E+02</pdfrwt>
<totfact> 0.15276180E+05</totfact>
</mgrwt>
</event>
<event>
 5   1  0.1388354E+00  0.9701639E+02  0.7818608E-02  0.1286698E+00
          1   -1    0    0  501    0  0.00000000000E+00  0.00000000000E+00  0.21046319475E+03  0.21046319480E+03  0.46700000000E-02 0. -1.
         -1   -1    0    0    0  501 -0.00000000000E+00 -0.00000000000E+00 -0.11180315760E+02  0.11180316735E+02  0.46700000000E-02 0.  1.
         23    2    1    2    0    0  0.00000000000E+00  0.00000000000E+00  0.19928287899E+03  0.22164351154E+03  0.97016392162E+02 0.  0.
        -13    1    3    3    0    0 -0.30823489133E+02  0.17565644657E+02  0.17521969527E+03  0.17877525594E+03  0.10570000000E+00 0. -1.
         13    1    3    3    0    0  0.30823489133E+02 -0.17565644657E+02  0.24063183724E+02  0.42868255598E+02  0.10570000000E+00 0.  1.
<mgrwt>
<rscale>  0 0.97016392E+02</rscale>
<asrwt>0</asrwt>
<pdfrwt beam="1">  1        1 0.32378955E-01 0.97016392E+02</pdfrwt>
<pdfrwt beam="2">  1       -1 0.17200486E-02 0.97016392E+02</pdfrwt>
<totfact> 0.10119270E+05</totfact>
</mgrwt>
</event>
<event>
 5   1  0.1388354E+00  0.8749391E+02  0.7818608E-02  0.1309037E+00
          1   -1    0    0  501    0  0.00000000000E+00  0.00000000000E+00  0.68010997975E+02  0.68010998136E+02  0.46700000000E-02 0. -1.
         -1   -1    0    0    0  501 -0.00000000000E+00 -0.00000000000E+00 -0.28139511295E+02  0.28139511682E+02  0.46700000000E-02 0.  1.
         23    2    1    2    0    0  0.00000000000E+00  0.00000000000E+00  0.39871486680E+02  0.96150509818E+02  0.87493914578E+02 0.  0.
        -13    1    3    3    0    0 -0.29763119900E+02  0.29348796779E+02  0.57517635223E+01  0.42193472655E+02  0.10570000000E+00 0.  1.
         13    1    3    3    0    0  0.29763119900E+02 -0.29348796779E+02  0.34119723158E+02  0.53957037163E+02  0.10570000000E+00 0. -1.
<mgrwt>
<rscale>  0 0.87493915E+02</rscale>
<asrwt>0</asrwt>
<pdfrwt beam="1">  1        1 0.10463231E-01 0.87493915E+02</pdfrwt>
<pdfrwt beam="2">  1       -1 0.43291556E-02 0.87493915E+02</pdfrwt>
<totfact> 0.11002515E+05</totfact>
</mgrwt>
</event>
<event>
 5   1  0.1388354E+00  0.9074487E+02  0.7818608E-02  0.1301058E+00
         -1   -1    0    0    0  501 -0.00000000000E+00  0.00000000000E+00  0.24344226224E+02  0.24344226672E+02  0.46700000000E-02 0.  1.
          1   -1    0    0  501    0  0.00000000000E+00 -0.00000000000E+00 -0.84564524136E+02  0.84564524265E+02  0.46700000000E-02 0. -1.
         23    2    1    2    0    0  0.00000000000E+00  0.00000000000E+00 -0.60220297912E+02  0.10890875094E+03  0.90744871755E+02 0.  0.
        -13    1    3    3    0    0  0.90663903143E+01  0.38318563491E+02 -0.57164072043E+02  0.69413644526E+02  0.10570000000E+00 0. -1.
         13    1    3    3    0    0 -0.90663903143E+01 -0.38318563491E+02 -0.30562258689E+01  0.39495106410E+02  0.10570000000E+00 0.  1.
<mgrwt>
<rscale>  0 0.90744872E+02</rscale>
<asrwt>0</asrwt>
<pdfrwt beam="2">  1        1 0.13009927E-01 0.90744872E+02</pdfrwt>
<pdfrwt beam="1">  1       -1 0.37452657E-02 0.90744872E+02</pdfrwt>
<totfact> 0.10296589E+05</totfact>
</mgrwt>
</event>
<event>
 5   1  0.1388354E+00  0.8867368E+02  0.7818608E-02  0.1306096E+00
         -1   -1    0    0    0  501 -0.00000000000E+00  0.00000000000E+00  0.23613889250E+03  0.23613889255E+03  0.46700000000E-02 0.  1.
          1   -1    0    0  501    0  0.00000000000E+00 -0.00000000000E+00 -0.83245724482E+01  0.83245737581E+01  0.46700000000E-02 0. -1.
         23    2    1    2    0    0  0.00000000000E+00  0.00000000000E+00  0.22781432005E+03  0.24446346631E+03  0.88673682324E+02 0.  0.
        -13    1    3    3    0    0 -0.14827593905E+02  0.41185896868E+02  0.94489449911E+02  0.10413646316E+03  0.10570000000E+00 0. -1.
         13    1    3    3    0    0  0.14827593905E+02 -0.41185896868E+02  0.13332487014E+03  0.14032700315E+03  0.10570000000E+00 0.  1.
<mgrwt>
<rscale>  0 0.88673682E+02</rscale>
<asrwt>0</asrwt>
<pdfrwt beam="2">  1        1 0.12807036E-02 0.88673682E+02</pdfrwt>
<pdfrwt beam="1">  1       -1 0.36329060E-01 0.88673682E+02</pdfrwt>
<totfact> 0.70966469E+04</totfact>
</mgrwt>
</event>
<event>
 5   1  0.1388354E+00  0.9143230E+02  0.7818608E-02  0.1299420E+00
          1   -1    0    0  501    0  0.00000000000E+00  0.00000000000E+00  0.26620573567E+02  0.26620573976E+02  0.46700000000E-02 0. -1.
         -1   -1    0    0    0  501 -0.00000000000E+00 -0.00000000000E+00 -0.78509435566E+02  0.78509435705E+02  0.46700000000E-02 0.  1.
         23    2    1    2    0    0  0.00000000000E+00  0.00000000000E+00 -0.51888862000E+02  0.10513000968E+03  0.91432297007E+02 0.  0.
        -13    1    3    3    0    0 -0.13993044316E+02  0.26882045659E+02 -0.65299367876E+02  0.71989362308E+02  0.10570000000E+00 0.  1.
         13    1    3    3    0    0  0.13993044316E+02 -0.26882045659E+02  0.13410505876E+02  0.33140647374E+02  0.10570000000E+00 0. -1.
<mgrwt>
<rscale>  0 0.91432297E+02</rscale>
<asrwt>0</asrwt>
<pdfrwt beam="1">  1        1 0.40954729E-02 0.91432297E+02</pdfrwt>
<pdfrwt beam="2">  1       -1 0.12078375E-01 0.91432297E+02</pdfrwt>
<totfact> 0.84312984E+04</totfact>
</mgrwt>
</event>
<event>
 5   1  0.1388354E+00  0.7704747E+02  0.7818608E-02  0.1337645E+00
          1   -1    0    0  501    0  0.00000000000E+00  0.00000000000E+00  0.54974250146E+02  0.54974250344E+02  0.46700000000E-02 0. -1.
         -1   -1    0    0    0  501 -0.00000000000E+00 -0.00000000000E+00 -0.26995877642E+02  0.26995878046E+02  0.46700000000E-02 0.  1.
         23    2    1    2    0    0  0.00000000000E+00  0.00000000000E+00  0.27978372504E+02  0.81970128390E+02  0.77047469915E+02 0.  0.
        -13    1    3    3    0    0 -0.12794738674E+02  0.29941762842E+02  0.35892236482E+02  0.48461101019E+02  0.10570000000E+00 0. -1.
         13    1    3    3    0    0  0.12794738674E+02 -0.29941762842E+02 -0.79138639778E+01  0.33509027371E+02  0.10570000000E+00 0.  1.
<mgrwt>
<rscale>  0 0.77047470E+02</rscale>
<asrwt>0</asrwt>
<pdfrwt beam="1">  1        1 0.84575770E-02 0.77047470E+02</pdfrwt>
<pdfrwt beam="2">  1       -1 0.41532120E-02 0.77047470E+02</pdfrwt>
<totfact> 0.15104822E+05</totfact>
</mgrwt>
</event>
<event>
 5   1  0.1388354E+00  0.9714829E+02  0.7818608E-02  0.1286410E+00
          1   -1    0    0  501    0  0.00000000000E+00  0.00000000000E+00  0.29290855906E+02  0.29290856278E+02  0.46700000000E-02 0. -1.
         -1   -1    0    0    0  501 -0.00000000000E+00 -0.00000000000E+00 -0.80552360157E+02  0.80552360293E+02  0.46700000000E-02 0.  1.
         23    2    1    2    0    0  0.00000000000E+00  0.00000000000E+00 -0.51261504252E+02  0.10984321657E+03  0.97148290816E+02 0.  0.
        -13    1    3    3    0    0 -0.33887074721E+01  0.25661944431E+02 -0.72104382301E+02  0.76609867836E+02  0.10570000000E+00 0.  1.
         13    1    3    3    0    0  0.33887074721E+01 -0.25661944431E+02  0.20842878049E+02  0.33233348735E+02  0.10570000000E+00 0. -1.
<mgrwt>
<rscale>  0 0.97148291E+02</rscale>
<asrwt>0</asrwt>
<pdfrwt beam="1">  1        1 0.45062856E-02 0.97148291E+02</pdfrwt>
<pdfrwt beam="2">  1       -1 0.12392671E-01 0.97148291E+02</pdfrwt>
<totfact> 0.71859202E+04</totfact>
</mgrwt>
</event>
<event>
 5   1  0.1388354E+00  0.9114890E+02  0.7818608E-02  0.1300093E+00
         -1   -1    0    0    0  501 -0.00000000000E+00  0.00000000000E+00  0.46541505228E+02  0.46541505462E+02  0.46700000000E-02 0.  1.
          1   -1    0    0  501    0  0.00000000000E+00 -0.00000000000E+00 -0.44627487875E+02  0.44627488119E+02  0.46700000000E-02 0. -1.
         23    2    1    2    0    0  0.00000000000E+00  0.00000000000E+00  0.19140173533E+01  0.91168993581E+02  0.91148899764E+02 0.  0.
        -13    1    3    3    0    0 -0.39406732574E+02  0.14546040687E+02 -0.16725730159E+02  0.45213262365E+02  0.10570000000E+00 0. -1.
         13    1    3    3    0    0  0.39406732574E+02 -0.14546040687E+02  0.18639747512E+02  0.45955731217E+02  0.10570000000E+00 0.  1.
<mgrwt>
<rscale>  0 0.91148900E+02</rscale>
<asrwt>0</asrwt>
<pdfrwt beam="2">  1        1 0.68657674E-02 0.91148900E+02</pdfrwt>
<pdfrwt beam="1">  1       -1 0.71602316E-02 0.91148900E+02</pdfrwt>
<totfact> 0.92255889E+04</totfact>
</mgrwt>
</event>
<event>
 5   1  0.1388354E+00  0.9146919E+02  0.7818608E-02  0.1299332E+00
          1   -1    0    0  501    0  0.00000000000E+00  0.00000000000E+00  0.12750181912E+03  0.12750181920E+03  0.46700000000E-02 0. -1.
         -1   -1    0    0    0  501 -0.00000000000E+00 -0.00000000000E+00 -0.16404890067E+02  0.16404890731E+02  0.46700000000E-02 0.  1.
         23    2    1    2    0    0  0.00000000000E+00  0.00000000000E+00  0.11109692905E+03  0.14390670994E+03  0.91469194376E+02 0.  0.
        -13    1    3    3    0    0 -0.35516955967E+02  0.41397075114E+01  0.10687867493E+02  0.37320678229E+02  0.10570000000E+00 0.  1.
         13    1    3    3    0    0  0.35516955967E+02 -0.41397075114E+01  0.10040906156E+03  0.10658603171E+03  0.10570000000E+00 0. -1.
<mgrwt>
<rscale>  0 0.91469194E+02</rscale>
<asrwt>0</asrwt>
<pdfrwt beam="1">  1        1 0.19615664E-01 0.91469194E+02</pdfrwt>
<pdfrwt beam="2">  1       -1 0.25238294E-02 0.91469194E+02</pdfrwt>
<totfact> 0.10795064E+05</totfact>
</mgrwt>
</event>
<event>
 5   1  0.1388354E+00  0.8769127E+02  0.7818608E-02  0.1308541E+00
          1   -1    0    0  501    0  0.00000000000E+00  0.00000000000E+00  0.16256566849E+03  0.16256566855E+03  0.46700000000E-02 0. -1.
         -1   -1    0    0    0  501 -0.00000000000E+00 -0.00000000000E+00 -0.11825618560E+02  0.11825619482E+02  0.46700000000E-02 0.  1.
         23    2    1    2    0    0  0.00000000000E+00  0.00000000000E+00  0.15074004993E+03  0.17439128804E+03  0.87691269183E+02 0.  0.
        -13    1    3    3    0    0 -0.28168433990E+02 -0.26293258069E+02  0.11697288298E+03  0.12315625286E+03  0.10570000000E+00 0. -1.
         13    1    3    3    0    0  0.28168433990E+02  0.26293258069E+02  0.33767166944E+02  0.51235035174E+02  0.10570000000E+00 0.  1.
<mgrwt>
<rscale>  0 0.87691269E+02</rscale>
<asrwt>0</asrwt>
<pdfrwt beam="1">  1        1 0.25010103E-01 0.87691269E+02</pdfrwt>
<pdfrwt beam="2">  1       -1 0.18193260E-02 0.87691269E+02</pdfrwt>
<totfact> 0.12637367E+05</totfact>
</mgrwt>
</event>
<event>
 5   1  0.1388354E+00  0.9306148E+02  0.7818608E-02  0.1295603E+00
          1   -1    0    0  501    0  0.00000000000E+00  0.00000000000E+00  0.22941794233E+02  0.22941794708E+02  0.46700000000E-02 0. -1.
         -1   -1    0    0    0  501 -0.00000000000E+00 -0.00000000000E+00 -0.94374027574E+02  0.94374027689E+02  0.46700000000E-02 0.  1.
         23    2    1    2    0    0  0.00000000000E+00  0.00000000000E+00 -0.71432233341E+02  0.11731582240E+03  0.93061475514E+02 0.  0.
        -13    1    3    3    0    0  0.24386112945E+02  0.14473232557E+02  0.10789603174E+02  0.30341121837E+02  0.10570000000E+00 0. -1.
         13    1    3    3    0    0 -0.24386112945E+02 -0.14473232557E+02 -0.82221836515E+02  0.86974700560E+02  0.10570000000E+00 0.  1.
<mgrwt>
<rscale>  0 0.93061476E+02</rscale>
<asrwt>0</asrwt>
<pdfrwt beam="1">  1        1 0.35295069E-02 0.93061476E+02</pdfrwt>
<pdfrwt beam="2">  1       -1 0.14519081E-01 0.93061476E+02</pdfrwt>
<totfact> 0.78019628E+04</totfact>
</mgrwt>
</event>
<event>
 5   1  0.1388354E+00  0.9254397E+02  0.7818608E-02  0.1296805E+00
          1   -1    0    0  501    0  0.00000000000E+00  0.00000000000E+00  0.13189734377E+03  0.13189734386E+03  0.46700000000E-02 0. -1.
         -1   -1    0    0    0  501 -0.00000000000E+00 -0.00000000000E+00 -0.16233054392E+02  0.16233055064E+02  0.46700000000E-02 0.  1.
         23    2    1    2    0    0  0.00000000000E+00  0.00000000000E+00  0.11566428938E+03  0.14813039892E+03  0.92543974663E+02 0.  0.
        -13    1    3    3    0    0 -0.28887974905E+02 -0.34596363152E+02  0.74594094070E+02  0.87153390526E+02  0.10570000000E+00 0. -1.
         13    1    3    3    0    0  0.28887974905E+02  0.34596363152E+02  0.41070195312E+02  0.60977008396E+02  0.10570000000E+00 0.  1.
<mgrwt>
<rscale>  0 0.92543975E+02</rscale>
<asrwt>0</asrwt>
<pdfrwt beam="1">  1        1 0.20291899E-01 0.92543975E+02</pdfrwt>
<pdfrwt beam="2">  1       -1 0.24973931E-02 0.92543975E+02</pdfrwt>
<totfact> 0.10521816E+05</totfact>
</mgrwt>
</event>
<event>
 5   1  0.1388354E+00  0.9323757E+02  0.7818608E-02  0.1295196E+00
         -1   -1    0    0    0  501 -0.00000000000E+00  0.00000000000E+00  0.10532244822E+02  0.10532245857E+02  0.46700000000E-02 0.  1.
          1   -1    0    0  501    0  0.00000000000E+00 -0.00000000000E+00 -0.20634833824E+03  0.20634833830E+03  0.46700000000E-02 0. -1.
         23    2    1    2    0    0  0.00000000000E+00  0.00000000000E+00 -0.19581609342E+03  0.21688058415E+03  0.93237574720E+02 0.  0.
        -13    1    3    3    0    0 -0.16496715994E+01  0.45144178939E+02 -0.71124274056E+02  0.84257888895E+02  0.10570000000E+00 0. -1.
         13    1    3    3    0    0  0.16496715994E+01 -0.45144178939E+02 -0.12469181936E+03  0.13262269526E+03  0.10570000000E+00 0.  1.
<mgrwt>
<rscale>  0 0.93237575E+02</rscale>
<asrwt>0</asrwt>
<pdfrwt beam="2">  1        1 0.31745895E-01 0.93237575E+02</pdfrwt>
<pdfrwt beam="1">  1       -1 0.16203456E-02 0.93237575E+02</pdfrwt>
<totfact> 0.11218683E+05</totfact>
</mgrwt>
</event>
<event>
 5   1  0.1388354E+00  0.9215181E+02  0.7818608E-02  0.1297723E+00
         -1   -1    0    0    0  501 -0.00000000000E+00  0.00000000000E+00  0.51168232740E+02  0.51168232953E+02  0.46700000000E-02 0.  1.
          1   -1    0    0  501    0  0.00000000000E+00 -0.00000000000E+00 -0.41490369152E+02  0.41490369415E+02  0.46700000000E-02 0. -1.
         23    2    1    2    0    0  0.00000000000E+00  0.00000000000E+00  0.96778635881E+01  0.92658602368E+02  0.92151807086E+02 0.  0.
        -13    1    3    3    0    0  0.25399742713E+02  0.36884632890E+02  0.15731543554E+02  0.47466995991E+02  0.10570000000E+00 0.  1.
         13    1    3    3    0    0 -0.25399742713E+02 -0.36884632890E+02 -0.60536799662E+01  0.45191606377E+02  0.10570000000E+00 0. -1.
<mgrwt>
<rscale>  0 0.92151807E+02</rscale>
<asrwt>0</asrwt>
<pdfrwt beam="2">  1        1 0.63831338E-02 0.92151807E+02</pdfrwt>
<pdfrwt beam="1">  1       -1 0.78720358E-02 0.92151807E+02</pdfrwt>
<totfact> 0.88469521E+04</totfact>
</mgrwt>
</event>
<event>
 5   1  0.1388354E+00  0.8933393E+02  0.7818608E-02  0.1304473E+00
         -1   -1    0    0    0  501 -0.00000000000E+00  0.00000000000E+00  0.53692353354E+02  0.53692353557E+02  0.46700000000E-02 0.  1.
          1   -1    0    0  501    0  0.00000000000E+00 -0.00000000000E+00 -0.37158697390E+02  0.37158697683E+02  0.46700000000E-02 0. -1.
         23    2    1    2    0    0  0.00000000000E+00  0.00000000000E+00  0.16533655964E+02  0.90851051240E+02  0.89333933821E+02 0.  0.
        -13    1    3    3    0    0 -0.33155888478E+02 -0.29928885045E+02  0.85465622941E+01  0.45476433461E+02  0.10570000000E+00 0.  1.
         13    1    3    3    0    0  0.33155888478E+02  0.29928885045E+02  0.79870936703E+01  0.45374617779E+02  0.10570000000E+00 0. -1.
<mgrwt>
<rscale>  0 0.89333934E+02</rscale>
<asrwt>0</asrwt>
<pdfrwt beam="2">  1        1 0.57167227E-02 0.89333934E+02</pdfrwt>
<pdfrwt beam="1">  1       -1 0.82603621E-02 0.89333934E+02</pdfrwt>
<totfact> 0.94978508E+04</totfact>
</mgrwt>
</event>
<event>
 5   1  0.1388354E+00  0.9110761E+02  0.7818608E-02  0.1300191E+00
          1   -1    0    0  501    0  0.00000000000E+00  0.00000000000E+00  0.16421018638E+03  0.16421018645E+03  0.46700000000E-02 0. -1.
         -1   -1    0    0    0  501 -0.00000000000E+00 -0.00000000000E+00 -0.12637151601E+02  0.12637152464E+02  0.46700000000E-02 0.  1.
         23    2    1    2    0    0  0.00000000000E+00  0.00000000000E+00  0.15157303478E+03  0.17684733892E+03  0.91107608947E+02 0.  0.
        -13    1    3    3    0    0 -0.44153118648E+02 -0.89502843036E+01  0.88884499999E+02  0.99649741535E+02  0.10570000000E+00 0.  1.
         13    1    3    3    0    0  0.44153118648E+02  0.89502843036E+01  0.62688534784E+02  0.77197597381E+02  0.10570000000E+00 0. -1.
<mgrwt>
<rscale>  0 0.91107609E+02</rscale>
<asrwt>0</asrwt>
<pdfrwt beam="1">  1        1 0.25263106E-01 0.91107609E+02</pdfrwt>
<pdfrwt beam="2">  1       -1 0.19441772E-02 0.91107609E+02</pdfrwt>
<totfact> 0.11426509E+05</totfact>
</mgrwt>
</event>
<event>
 5   1  0.1388354E+00  0.9075445E+02  0.7818608E-02  0.1301035E+00
          1   -1    0    0  501    0  0.00000000000E+00  0.00000000000E+00  0.43019806457E+02  0.43019806711E+02  0.46700000000E-02 0. -1.
         -1   -1    0    0    0  501 -0.00000000000E+00 -0.00000000000E+00 -0.47863824312E+02  0.47863824540E+02  0.46700000000E-02 0.  1.
         23    2    1    2    0    0  0.00000000000E+00  0.00000000000E+00 -0.48440178546E+01  0.90883631250E+02  0.90754448487E+02 0.  0.
        -13    1    3    3    0    0 -0.33372416042E+02 -0.21780219156E+02 -0.24155094154E+02  0.46600170011E+02  0.10570000000E+00 0. -1.
         13    1    3    3    0    0  0.33372416042E+02  0.21780219156E+02  0.19311076300E+02  0.44283461239E+02  0.10570000000E+00 0.  1.
<mgrwt>
<rscale>  0 0.90754448E+02</rscale>
<asrwt>0</asrwt>
<pdfrwt beam="1">  1        1 0.66184318E-02 0.90754448E+02</pdfrwt>
<pdfrwt beam="2">  1       -1 0.73636653E-02 0.90754448E+02</pdfrwt>
<totfact> 0.92873231E+04</totfact>
</mgrwt>
</event>
<event>
 5   1  0.1388354E+00  0.9087784E+02  0.7818608E-02  0.1300740E+00
          1   -1    0    0  501    0  0.00000000000E+00  0.00000000000E+00  0.12430836453E+03  0.12430836462E+03  0.46700000000E-02 0. -1.
         -1   -1    0    0    0  501 -0.00000000000E+00 -0.00000000000E+00 -0.16609463102E+02  0.16609463758E+02  0.46700000000E-02 0.  1.
         23    2    1    2    0    0  0.00000000000E+00  0.00000000000E+00  0.10769890143E+03  0.14091782838E+03  0.90877835503E+02 0.  0.
        -13    1    3    3    0    0  0.35443138652E+02  0.23735392124E+02  0.78125548388E+02  0.89012344089E+02  0.10570000000E+00 0. -1.
         13    1    3    3    0    0 -0.35443138652E+02 -0.23735392124E+02  0.29573353045E+02  0.51905484292E+02  0.10570000000E+00 0.  1.
<mgrwt>
<rscale>  0 0.90877836E+02</rscale>
<asrwt>0</asrwt>
<pdfrwt beam="1">  1        1 0.19124364E-01 0.90877836E+02</pdfrwt>
<pdfrwt beam="2">  1       -1 0.25553020E-02 0.90877836E+02</pdfrwt>
<totfact> 0.10937431E+05</totfact>
</mgrwt>
</event>
<event>
 5   1  0.1388354E+00  0.9372408E+02  0.7818608E-02  0.1294076E+00
         -1   -1    0    0    0  501 -0.00000000000E+00  0.00000000000E+00  0.10249388630E+03  0.10249388641E+03  0.46700000000E-02 0.  1.
          1   -1    0    0  501    0  0.00000000000E+00 -0.00000000000E+00 -0.21426161564E+02  0.21426162073E+02  0.46700000000E-02 0. -1.
         23    2    1    2    0    0  0.00000000000E+00  0.00000000000E+00  0.81067724740E+02  0.12392004848E+03  0.93724075998E+02 0.  0.
        -13    1    3    3    0    0 -0.23201193475E+02 -0.18286785556E+02  0.88631718784E+02  0.93425342664E+02  0.10570000000E+00 0.  1.
         13    1    3    3    0    0  0.23201193475E+02  0.18286785556E+02 -0.75639940443E+01  0.30494705820E+02  0.10570000000E+00 0. -1.
<mgrwt>
<rscale>  0 0.93724076E+02</rscale>
<asrwt>0</asrwt>
<pdfrwt beam="2">  1        1 0.32963326E-02 0.93724076E+02</pdfrwt>
<pdfrwt beam="1">  1       -1 0.15768290E-01 0.93724076E+02</pdfrwt>
<totfact> 0.75437858E+04</totfact>
</mgrwt>
</event>
<event>
 5   1  0.1388354E+00  0.9161476E+02  0.7818608E-02  0.1298988E+00
          1   -1    0    0  501    0  0.00000000000E+00  0.00000000000E+00  0.18696717215E+03  0.18696717221E+03  0.46700000000E-02 0. -1.
         -1   -1    0    0    0  501 -0.00000000000E+00 -0.00000000000E+00 -0.11222910156E+02  0.11222911127E+02  0.46700000000E-02 0.  1.
         23    2    1    2    0    0  0.00000000000E+00  0.00000000000E+00  0.17574426199E+03  0.19819008333E+03  0.91614755955E+02 0.  0.
        -13    1    3    3    0    0 -0.46078254977E+01 -0.43710645707E+02  0.59962047769E+02  0.74345887237E+02  0.10570000000E+00 0.  1.
         13    1    3    3    0    0  0.46078254977E+01  0.43710645707E+02  0.11578221422E+03  0.12384419610E+03  0.10570000000E+00 0. -1.
<mgrwt>
<rscale>  0 0.91614756E+02</rscale>
<asrwt>0</asrwt>
<pdfrwt beam="1">  1        1 0.28764178E-01 0.91614756E+02</pdfrwt>
<pdfrwt beam="2">  1       -1 0.17266018E-02 0.91614756E+02</pdfrwt>
<totfact> 0.11537885E+05</totfact>
</mgrwt>
</event>
<event>
 5   1  0.1388354E+00  0.9002278E+02  0.7818608E-02  0.1302797E+00
         -1   -1    0    0    0  501 -0.00000000000E+00  0.00000000000E+00  0.20940017438E+02  0.20940017959E+02  0.46700000000E-02 0.  1.
          1   -1    0    0  501    0  0.00000000000E+00 -0.00000000000E+00 -0.96753757026E+02  0.96753757138E+02  0.46700000000E-02 0. -1.
         23    2    1    2    0    0  0.00000000000E+00  0.00000000000E+00 -0.75813739588E+02  0.11769377510E+03  0.90022783707E+02 0.  0.
        -13    1    3    3    0    0  0.40183643309E+02  0.10883454765E+02 -0.60279438173E+02  0.73258423517E+02  0.10570000000E+00 0.  1.
         13    1    3    3    0    0 -0.40183643309E+02 -0.10883454765E+02 -0.15534301414E+02  0.44435351581E+02  0.10570000000E+00 0. -1.
<mgrwt>
<rscale>  0 0.90022784E+02</rscale>
<asrwt>0</asrwt>
<pdfrwt beam="2">  1        1 0.14885193E-01 0.90022784E+02</pdfrwt>
<pdfrwt beam="1">  1       -1 0.32215412E-02 0.90022784E+02</pdfrwt>
<totfact> 0.10755091E+05</totfact>
</mgrwt>
</event>
<event>
 5   1  0.1388354E+00  0.9177115E+02  0.7818608E-02  0.1298618E+00
         -1   -1    0    0    0  501 -0.00000000000E+00  0.00000000000E+00  0.22779934125E+02  0.22779934604E+02  0.46700000000E-02 0.  1.
          1   -1    0    0  501    0  0.00000000000E+00 -0.00000000000E+00 -0.92427221047E+02  0.92427221165E+02  0.46700000000E-02 0. -1.
         23    2    1    2    0    0  0.00000000000E+00  0.00000000000E+00 -0.69647286922E+02  0.11520715577E+03  0.91771151048E+02 0.  0.
        -13    1    3    3    0    0  0.38356664000E+02 -0.72246721570E+01 -0.45369632354E+01  0.39294080583E+02  0.10570000000E+00 0.  1.
         13    1    3    3    0    0 -0.38356664000E+02  0.72246721570E+01 -0.65110323687E+02  0.75913075185E+02  0.10570000000E+00 0. -1.
<mgrwt>
<rscale>  0 0.91771151E+02</rscale>
<asrwt>0</asrwt>
<pdfrwt beam="2">  1        1 0.14219572E-01 0.91771151E+02</pdfrwt>
<pdfrwt beam="1">  1       -1 0.35046053E-02 0.91771151E+02</pdfrwt>
<totfact> 0.10128903E+05</totfact>
</mgrwt>
</event>
<event>
 5   1  0.1388354E+00  0.9039120E+02  0.7818608E-02  0.1301907E+00
         -1   -1    0    0    0  501 -0.00000000000E+00  0.00000000000E+00  0.16211789055E+03  0.16211789062E+03  0.46700000000E-02 0.  1.
          1   -1    0    0  501    0  0.00000000000E+00 -0.00000000000E+00 -0.12599733744E+02  0.12599734610E+02  0.46700000000E-02 0. -1.
         23    2    1    2    0    0  0.00000000000E+00  0.00000000000E+00  0.14951815680E+03  0.17471762523E+03  0.90391201730E+02 0.  0.
        -13    1    3    3    0    0  0.31060789545E+02  0.32536734730E+02  0.66285231851E+02  0.80107146298E+02  0.10570000000E+00 0. -1.
         13    1    3    3    0    0 -0.31060789545E+02 -0.32536734730E+02  0.83232924953E+02  0.94610478927E+02  0.10570000000E+00 0.  1.
<mgrwt>
<rscale>  0 0.90391202E+02</rscale>
<asrwt>0</asrwt>
<pdfrwt beam="2">  1        1 0.19384207E-02 0.90391202E+02</pdfrwt>
<pdfrwt beam="1">  1       -1 0.24941214E-01 0.90391202E+02</pdfrwt>
<totfact> 0.75073846E+04</totfact>
</mgrwt>
</event>
<event>
 5   1  0.1388354E+00  0.9944843E+02  0.7818608E-02  0.1281460E+00
          1   -1    0    0  501    0  0.00000000000E+00  0.00000000000E+00  0.67979124017E+02  0.67979124177E+02  0.46700000000E-02 0. -1.
         -1   -1    0    0    0  501 -0.00000000000E+00 -0.00000000000E+00 -0.36371420219E+02  0.36371420519E+02  0.46700000000E-02 0.  1.
         23    2    1    2    0    0  0.00000000000E+00  0.00000000000E+00  0.31607703797E+02  0.10435054470E+03  0.99448425020E+02 0.  0.
        -13    1    3    3    0    0  0.40009576534E+01 -0.38769714508E+02 -0.16595146613E+02  0.42361639355E+02  0.10570000000E+00 0.  1.
         13    1    3    3    0    0 -0.40009576534E+01  0.38769714508E+02  0.48202850411E+02  0.61988905341E+02  0.10570000000E+00 0. -1.
<mgrwt>
<rscale>  0 0.99448425E+02</rscale>
<asrwt>0</asrwt>
<pdfrwt beam="1">  1        1 0.10458327E-01 0.99448425E+02</pdfrwt>
<pdfrwt beam="2">  1       -1 0.55956032E-02 0.99448425E+02</pdfrwt>
<totfact> 0.77153824E+04</totfact>
</mgrwt>
</event>
<event>
 5   1  0.1388354E+00  0.9229259E+02  0.7818608E-02  0.1297393E+00
          1   -1    0    0  501    0  0.00000000000E+00  0.00000000000E+00  0.10570849698E+03  0.10570849709E+03  0.46700000000E-02 0. -1.
         -1   -1    0    0    0  501 -0.00000000000E+00 -0.00000000000E+00 -0.20144835683E+02  0.20144836224E+02  0.46700000000E-02 0.  1.
         23    2    1    2    0    0  0.00000000000E+00  0.00000000000E+00  0.85563661299E+02  0.12585333331E+03  0.92292585673E+02 0.  0.
        -13    1    3    3    0    0  0.27561557825E+02  0.34501605451E+02  0.24513766167E+02  0.50506793133E+02  0.10570000000E+00 0. -1.
         13    1    3    3    0    0 -0.27561557825E+02 -0.34501605451E+02  0.61049895132E+02  0.75346540176E+02  0.10570000000E+00 0.  1.
<mgrwt>
<rscale>  0 0.92292586E+02</rscale>
<asrwt>0</asrwt>
<pdfrwt beam="1">  1        1 0.16262845E-01 0.92292586E+02</pdfrwt>
<pdfrwt beam="2">  1       -1 0.30992056E-02 0.92292586E+02</pdfrwt>
<totfact> 0.10198816E+05</totfact>
</mgrwt>
</event>
<event>
 5   1  0.1388354E+00  0.9240733E+02  0.7818608E-02  0.1297125E+00
          1   -1    0    0  501    0  0.00000000000E+00  0.00000000000E+00  0.30240171662E+02  0.30240172022E+02  0.46700000000E-02 0. -1.
         -1   -1    0    0    0  501 -0.00000000000E+00 -0.00000000000E+00 -0.70594136665E+02  0.70594136820E+02  0.46700000000E-02 0.  1.
         23    2    1    2    0    0  0.00000000000E+00  0.00000000000E+00 -0.40353965004E+02  0.10083430884E+03  0.92407333844E+02 0.  0.
        -13    1    3    3    0    0 -0.24275249311E+02  0.13906885984E+02  0.19946889140E+02  0.34359551303E+02  0.10570000000E+00 0. -1.
         13    1    3    3    0    0  0.24275249311E+02 -0.13906885984E+02 -0.60300854144E+02  0.66474757539E+02  0.10570000000E+00 0.  1.
<mgrwt>
<rscale>  0 0.92407334E+02</rscale>
<asrwt>0</asrwt>
<pdfrwt beam="1">  1        1 0.46523342E-02 0.92407334E+02</pdfrwt>
<pdfrwt beam="2">  1       -1 0.10860636E-01 0.92407334E+02</pdfrwt>
<totfact> 0.83513309E+04</totfact>
</mgrwt>
</event>
<event>
 5   1  0.1388354E+00  0.8356122E+02  0.7818608E-02  0.1319239E+00
         -1   -1    0    0    0  501 -0.00000000000E+00  0.00000000000E+00  0.13910190252E+03  0.13910190259E+03  0.46700000000E-02 0.  1.
          1   -1    0    0  501    0  0.00000000000E+00 -0.00000000000E+00 -0.12549212276E+02  0.12549213144E+02  0.46700000000E-02 0. -1.
         23    2    1    2    0    0  0.00000000000E+00  0.00000000000E+00  0.12655269024E+03  0.15165111574E+03  0.83561220059E+02 0.  0.
        -13    1    3    3    0    0 -0.20194903964E+02 -0.15188614213E+02  0.28911671461E+01  0.25434192886E+02  0.10570000000E+00 0. -1.
         13    1    3    3    0    0  0.20194903964E+02  0.15188614213E+02  0.12366152309E+03  0.12621692285E+03  0.10570000000E+00 0.  1.
<mgrwt>
<rscale>  0 0.83561220E+02</rscale>
<asrwt>0</asrwt>
<pdfrwt beam="2">  1        1 0.19306481E-02 0.83561220E+02</pdfrwt>
<pdfrwt beam="1">  1       -1 0.21400293E-01 0.83561220E+02</pdfrwt>
<totfact> 0.95332868E+04</totfact>
</mgrwt>
</event>
<event>
 5   1  0.1388354E+00  0.7649542E+02  0.7818608E-02  0.1339302E+00
          1   -1    0    0  501    0  0.00000000000E+00  0.00000000000E+00  0.33769074401E+02  0.33769074724E+02  0.46700000000E-02 0. -1.
         -1   -1    0    0    0  501 -0.00000000000E+00 -0.00000000000E+00 -0.43320321760E+02  0.43320322012E+02  0.46700000000E-02 0.  1.
         23    2    1    2    0    0  0.00000000000E+00  0.00000000000E+00 -0.95512473591E+01  0.77089396735E+02  0.76495416614E+02 0.  0.
        -13    1    3    3    0    0  0.24076299901E+02 -0.24662965218E+02 -0.21485871652E+02  0.40615070151E+02  0.10570000000E+00 0.  1.
         13    1    3    3    0    0 -0.24076299901E+02  0.24662965218E+02  0.11934624293E+02  0.36474326584E+02  0.10570000000E+00 0. -1.
<mgrwt>
<rscale>  0 0.76495417E+02</rscale>
<asrwt>0</asrwt>
<pdfrwt beam="1">  1        1 0.51952423E-02 0.76495417E+02</pdfrwt>
<pdfrwt beam="2">  1       -1 0.66646649E-02 0.76495417E+02</pdfrwt>
<totfact> 0.14454671E+05</totfact>
</mgrwt>
</event>
<event>
 5   1  0.1388354E+00  0.1107687E+03  0.7818608E-02  0.1259153E+00
         -1   -1    0    0    0  501 -0.00000000000E+00  0.00000000000E+00  0.10465332241E+03  0.10465332251E+03  0.46700000000E-02 0.  1.
          1   -1    0    0  501    0  0.00000000000E+00 -0.00000000000E+00 -0.29310377877E+02  0.29310378249E+02  0.46700000000E-02 0. -1.
         23    2    1    2    0    0  0.00000000000E+00  0.00000000000E+00  0.75342944531E+02  0.13396370076E+03  0.11076874032E+03 0.  0.
        -13    1    3    3    0    0 -0.18380638011E+02 -0.11333788201E+02  0.99352225613E+02  0.10167191606E+03  0.10570000000E+00 0.  1.
         13    1    3    3    0    0  0.18380638011E+02  0.11333788201E+02 -0.24009281082E+02  0.32291784702E+02  0.10570000000E+00 0. -1.
<mgrwt>
<rscale>  0 0.11076874E+03</rscale>
<asrwt>0</asrwt>
<pdfrwt beam="2">  1        1 0.45092888E-02 0.11076874E+03</pdfrwt>
<pdfrwt beam="1">  1       -1 0.16100512E-01 0.11076874E+03</pdfrwt>
<totfact> 0.48774495E+04</totfact>
</mgrwt>
</event>
<event>
 5   1  0.1388354E+00  0.9085829E+02  0.7818608E-02  0.1300786E+00
         -1   -1    0    0    0  501 -0.00000000000E+00  0.00000000000E+00  0.24274162328E+02  0.24274162777E+02  0.46700000000E-02 0.  1.
          1   -1    0    0  501    0  0.00000000000E+00 -0.00000000000E+00 -0.85020737740E+02  0.85020737868E+02  0.46700000000E-02 0. -1.
         23    2    1    2    0    0  0.00000000000E+00  0.00000000000E+00 -0.60746575412E+02  0.10929490065E+03  0.90858290115E+02 0.  0.
        -13    1    3    3    0    0 -0.56621325740E+01 -0.43755689234E+02 -0.43394595510E+02  0.61884749152E+02  0.10570000000E+00 0. -1.
         13    1    3    3    0    0  0.56621325740E+01  0.43755689234E+02 -0.17351979902E+02  0.47410151493E+02  0.10570000000E+00 0.  1.
<mgrwt>
<rscale>  0 0.90858290E+02</rscale>
<asrwt>0</asrwt>
<pdfrwt beam="2">  1        1 0.13080113E-01 0.90858290E+02</pdfrwt>
<pdfrwt beam="1">  1       -1 0.37344866E-02 0.90858290E+02</pdfrwt>
<totfact> 0.10270288E+05</totfact>
</mgrwt>
</event>
<event>
 5   1  0.1388354E+00  0.9127339E+02  0.7818608E-02  0.1299797E+00
          1   -1    0    0  501    0  0.00000000000E+00  0.00000000000E+00  0.12579749386E+03  0.12579749394E+03  0.46700000000E-02 0. -1.
         -1   -1    0    0    0  501 -0.00000000000E+00 -0.00000000000E+00 -0.16556037968E+02  0.16556038626E+02  0.46700000000E-02 0.  1.
         23    2    1    2    0    0  0.00000000000E+00  0.00000000000E+00  0.10924145589E+03  0.14235353257E+03  0.91273394537E+02 0.  0.
        -13    1    3    3    0    0 -0.41655005117E+02  0.18201909115E+02  0.60907449796E+02  0.76001168149E+02  0.10570000000E+00 0.  1.
         13    1    3    3    0    0  0.41655005117E+02 -0.18201909115E+02  0.48334006092E+02  0.66352364421E+02  0.10570000000E+00 0. -1.
<mgrwt>
<rscale>  0 0.91273395E+02</rscale>
<asrwt>0</asrwt>
<pdfrwt beam="1">  1        1 0.19353461E-01 0.91273395E+02</pdfrwt>
<pdfrwt beam="2">  1       -1 0.25470827E-02 0.91273395E+02</pdfrwt>
<totfact> 0.10832163E+05</totfact>
</mgrwt>
</event>
<event>
 5   1  0.1388354E+00  0.9096071E+02  0.7818608E-02  0.1300542E+00
         -1   -1    0    0    0  501 -0.00000000000E+00  0.00000000000E+00  0.11782385277E+03  0.11782385287E+03  0.46700000000E-02 0.  1.
          1   -1    0    0  501    0  0.00000000000E+00 -0.00000000000E+00 -0.17555550803E+02  0.17555551425E+02  0.46700000000E-02 0. -1.
         23    2    1    2    0    0  0.00000000000E+00  0.00000000000E+00  0.10026830197E+03  0.13537940429E+03  0.90960709794E+02 0.  0.
        -13    1    3    3    0    0  0.40343818366E+02 -0.21419789758E+01  0.19048398951E+02  0.44666144107E+02  0.10570000000E+00 0. -1.
         13    1    3    3    0    0 -0.40343818366E+02  0.21419789758E+01  0.81219903020E+02  0.90713260185E+02  0.10570000000E+00 0.  1.
<mgrwt>
<rscale>  0 0.90960710E+02</rscale>
<asrwt>0</asrwt>
<pdfrwt beam="2">  1        1 0.27008541E-02 0.90960710E+02</pdfrwt>
<pdfrwt beam="1">  1       -1 0.18126746E-01 0.90960710E+02</pdfrwt>
<totfact> 0.79308718E+04</totfact>
</mgrwt>
</event>
<event>
 5   1  0.1388354E+00  0.9109078E+02  0.7818608E-02  0.1300232E+00
         -1   -1    0    0    0  501 -0.00000000000E+00  0.00000000000E+00  0.15939163652E+03  0.15939163659E+03  0.46700000000E-02 0.  1.
          1   -1    0    0  501    0  0.00000000000E+00 -0.00000000000E+00 -0.13014374673E+02  0.13014375511E+02  0.46700000000E-02 0. -1.
         23    2    1    2    0    0  0.00000000000E+00  0.00000000000E+00  0.14637726184E+03  0.17240601210E+03  0.91090780116E+02 0.  0.
        -13    1    3    3    0    0 -0.20235004242E+02 -0.30196793907E+02  0.21249395768E+02  0.42105222383E+02  0.10570000000E+00 0. -1.
         13    1    3    3    0    0  0.20235004242E+02  0.30196793907E+02  0.12512786608E+03  0.13030078971E+03  0.10570000000E+00 0.  1.
<mgrwt>
<rscale>  0 0.91090780E+02</rscale>
<asrwt>0</asrwt>
<pdfrwt beam="2">  1        1 0.20022114E-02 0.91090780E+02</pdfrwt>
<pdfrwt beam="1">  1       -1 0.24521793E-01 0.91090780E+02</pdfrwt>
<totfact> 0.73892939E+04</totfact>
</mgrwt>
</event>
<event>
 5   1  0.1388354E+00  0.8479729E+02  0.7818608E-02  0.1315964E+00
         -1   -1    0    0    0  501 -0.00000000000E+00  0.00000000000E+00  0.90387813242E+01  0.90387825306E+01  0.46700000000E-02 0.  1.
          1   -1    0    0  501    0  0.00000000000E+00 -0.00000000000E+00 -0.19888133041E+03  0.19888133046E+03  0.46700000000E-02 0. -1.
         23    2    1    2    0    0  0.00000000000E+00  0.00000000000E+00 -0.18984254909E+03  0.20792011300E+03  0.84797287366E+02 0.  0.
        -13    1    3    3    0    0  0.21552868514E+02  0.27285398576E+02 -0.15440937395E+03  0.15827597750E+03  0.10570000000E+00 0. -1.
         13    1    3    3    0    0 -0.21552868514E+02 -0.27285398576E+02 -0.35433175135E+02  0.49644135498E+02  0.10570000000E+00 0.  1.
<mgrwt>
<rscale>  0 0.84797287E+02</rscale>
<asrwt>0</asrwt>
<pdfrwt beam="2">  1        1 0.30597125E-01 0.84797287E+02</pdfrwt>
<pdfrwt beam="1">  1       -1 0.13905820E-02 0.84797287E+02</pdfrwt>
<totfact> 0.14355213E+05</totfact>
</mgrwt>
</event>
<event>
 5   1  0.1388354E+00  0.9056447E+02  0.7818608E-02  0.1301490E+00
          1   -1    0    0  501    0  0.00000000000E+00  0.00000000000E+00  0.11602855298E+03  0.11602855308E+03  0.46700000000E-02 0. -1.
         -1   -1    0    0    0  501 -0.00000000000E+00 -0.00000000000E+00 -0.17672208399E+02  0.17672209016E+02  0.46700000000E-02 0.  1.
         23    2    1    2    0    0  0.00000000000E+00  0.00000000000E+00  0.98356344585E+02  0.13370076209E+03  0.90564470210E+02 0.  0.
        -13    1    3    3    0    0 -0.31844881588E+02  0.25052230847E+02  0.19330557074E+02  0.44893121556E+02  0.10570000000E+00 0.  1.
         13    1    3    3    0    0  0.31844881588E+02 -0.25052230847E+02  0.79025787511E+02  0.88807640539E+02  0.10570000000E+00 0. -1.
<mgrwt>
<rscale>  0 0.90564470E+02</rscale>
<asrwt>0</asrwt>
<pdfrwt beam="1">  1        1 0.17850547E-01 0.90564470E+02</pdfrwt>
<pdfrwt beam="2">  1       -1 0.27188013E-02 0.90564470E+02</pdfrwt>
<totfact> 0.10908886E+05</totfact>
</mgrwt>
</event>
<event>
 5   1  0.1388354E+00  0.8897980E+02  0.7818608E-02  0.1305341E+00
         -1   -1    0    0    0  501 -0.00000000000E+00  0.00000000000E+00  0.59259697041E+02  0.59259697225E+02  0.46700000000E-02 0.  1.
          1   -1    0    0  501    0  0.00000000000E+00 -0.00000000000E+00 -0.33401301770E+02  0.33401302096E+02  0.46700000000E-02 0. -1.
         23    2    1    2    0    0  0.00000000000E+00  0.00000000000E+00  0.25858395272E+02  0.92660999321E+02  0.88979796523E+02 0.  0.
        -13    1    3    3    0    0  0.26762907738E+02  0.28871306793E+02  0.34511833836E+02  0.52353447200E+02  0.10570000000E+00 0.  1.
         13    1    3    3    0    0 -0.26762907738E+02 -0.28871306793E+02 -0.86534385642E+01  0.40307552121E+02  0.10570000000E+00 0. -1.
<mgrwt>
<rscale>  0 0.88979797E+02</rscale>
<asrwt>0</asrwt>
<pdfrwt beam="2">  1        1 0.51386620E-02 0.88979797E+02</pdfrwt>
<pdfrwt beam="1">  1       -1 0.91168763E-02 0.88979797E+02</pdfrwt>
<totfact> 0.94511646E+04</totfact>
</mgrwt>
</event>
<event>
 5   1  0.1388354E+00  0.9079965E+02  0.7818608E-02  0.1300927E+00
          1   -1    0    0  501    0  0.00000000000E+00  0.00000000000E+00  0.18295864405E+03  0.18295864411E+03  0.46700000000E-02 0. -1.
         -1   -1    0    0    0  501 -0.00000000000E+00 -0.00000000000E+00 -0.11265628278E+02  0.11265629246E+02  0.46700000000E-02 0.  1.
         23    2    1    2    0    0  0.00000000000E+00  0.00000000000E+00  0.17169301577E+03  0.19422427335E+03  0.90799651405E+02 0.  0.
        -13    1    3    3    0    0  0.30022633330E+02  0.31472982537E+02  0.58020385663E+02  0.72514022553E+02  0.10570000000E+00 0. -1.
         13    1    3    3    0    0 -0.30022633330E+02 -0.31472982537E+02  0.11367263011E+03  0.12171025080E+03  0.10570000000E+00 0.  1.
<mgrwt>
<rscale>  0 0.90799651E+02</rscale>
<asrwt>0</asrwt>
<pdfrwt beam="1">  1        1 0.28147484E-01 0.90799651E+02</pdfrwt>
<pdfrwt beam="2">  1       -1 0.17331736E-02 0.90799651E+02</pdfrwt>
<totfact> 0.11769180E+05</totfact>
</mgrwt>
</event>
<event>
 5   1  0.1388354E+00  0.8732898E+02  0.7818608E-02  0.1309452E+00
          1   -1    0    0  501    0  0.00000000000E+00  0.00000000000E+00  0.22202424406E+03  0.22202424411E+03  0.46700000000E-02 0. -1.
         -1   -1    0    0    0  501 -0.00000000000E+00 -0.00000000000E+00 -0.85872936919E+01  0.85872949617E+01  0.46700000000E-02 0.  1.
         23    2    1    2    0    0  0.00000000000E+00  0.00000000000E+00  0.21343695037E+03  0.23061153907E+03  0.87328976692E+02 0.  0.
        -13    1    3    3    0    0 -0.25867010996E+02 -0.32942514465E+02  0.74133117193E+02  0.85147177019E+02  0.10570000000E+00 0.  1.
         13    1    3    3    0    0  0.25867010996E+02  0.32942514465E+02  0.13930383317E+03  0.14546436205E+03  0.10570000000E+00 0. -1.
<mgrwt>
<rscale>  0 0.87328977E+02</rscale>
<asrwt>0</asrwt>
<pdfrwt beam="1">  1        1 0.34157570E-01 0.87328977E+02</pdfrwt>
<pdfrwt beam="2">  1       -1 0.13211225E-02 0.87328977E+02</pdfrwt>
<totfact> 0.13557696E+05</totfact>
</mgrwt>
</event>
<event>
 5   1  0.1388354E+00  0.9139015E+02  0.7818608E-02  0.1299520E+00
         -1   -1    0    0    0  501 -0.00000000000E+00  0.00000000000E+00  0.41922082443E+02  0.41922082703E+02  0.46700000000E-02 0.  1.
          1   -1    0    0  501    0  0.00000000000E+00 -0.00000000000E+00 -0.49807635859E+02  0.49807636077E+02  0.46700000000E-02 0. -1.
         23    2    1    2    0    0  0.00000000000E+00  0.00000000000E+00 -0.78855534152E+01  0.91729718781E+02  0.91390149113E+02 0.  0.
        -13    1    3    3    0    0  0.68233462556E+01 -0.16789855424E+02 -0.46045881135E+02  0.49484256499E+02  0.10570000000E+00 0. -1.
         13    1    3    3    0    0 -0.68233462556E+01  0.16789855424E+02  0.38160327719E+02  0.42245462282E+02  0.10570000000E+00 0.  1.
<mgrwt>
<rscale>  0 0.91390149E+02</rscale>
<asrwt>0</asrwt>
<pdfrwt beam="2">  1        1 0.76627132E-02 0.91390149E+02</pdfrwt>
<pdfrwt beam="1">  1       -1 0.64495512E-02 0.91390149E+02</pdfrwt>
<totfact> 0.93098733E+04</totfact>
</mgrwt>
</event>
<event>
 5   1  0.1388354E+00  0.8235401E+02  0.7818608E-02  0.1322501E+00
         -1   -1    0    0    0  501 -0.00000000000E+00  0.00000000000E+00  0.54404963414E+02  0.54404963615E+02  0.46700000000E-02 0.  1.
          1   -1    0    0  501    0  0.00000000000E+00 -0.00000000000E+00 -0.31165277147E+02  0.31165277497E+02  0.46700000000E-02 0. -1.
         23    2    1    2    0    0  0.00000000000E+00  0.00000000000E+00  0.23239686267E+02  0.85570241112E+02  0.82354011112E+02 0.  0.
        -13    1    3    3    0    0  0.91495236742E+01  0.15682688500E+02 -0.26781227777E+02  0.32355924276E+02  0.10570000000E+00 0. -1.
         13    1    3    3    0    0 -0.91495236742E+01 -0.15682688500E+02  0.50020914044E+02  0.53214316836E+02  0.10570000000E+00 0.  1.
<mgrwt>
<rscale>  0 0.82354011E+02</rscale>
<asrwt>0</asrwt>
<pdfrwt beam="2">  1        1 0.47946581E-02 0.82354011E+02</pdfrwt>
<pdfrwt beam="1">  1       -1 0.83699943E-02 0.82354011E+02</pdfrwt>
<totfact> 0.11639016E+05</totfact>
</mgrwt>
</event>
<event>
 5   1  0.1388354E+00  0.9143285E+02  0.7818608E-02  0.1299418E+00
          1   -1    0    0  501    0  0.00000000000E+00  0.00000000000E+00  0.35350724837E+02  0.35350725146E+02  0.46700000000E-02 0. -1.
         -1   -1    0    0    0  501 -0.00000000000E+00 -0.00000000000E+00 -0.59121606908E+02  0.59121607093E+02  0.46700000000E-02 0.  1.
         23    2    1    2    0    0  0.00000000000E+00  0.00000000000E+00 -0.23770882071E+02  0.94472332238E+02  0.91432853637E+02 0.  0.
        -13    1    3    3    0    0 -0.37418393534E+01  0.22288047957E+02 -0.52945915572E+02  0.57567695731E+02  0.10570000000E+00 0.  1.
         13    1    3    3    0    0  0.37418393534E+01 -0.22288047957E+02  0.29175033501E+02  0.36904636508E+02  0.10570000000E+00 0. -1.
<mgrwt>
<rscale>  0 0.91432854E+02</rscale>
<asrwt>0</asrwt>
<pdfrwt beam="1">  1        1 0.54385731E-02 0.91432854E+02</pdfrwt>
<pdfrwt beam="2">  1       -1 0.90956319E-02 0.91432854E+02</pdfrwt>
<totfact> 0.88254206E+04</totfact>
</mgrwt>
</event>
<event>
 5   1  0.1388354E+00  0.9188603E+02  0.7818608E-02  0.1298348E+00
          1   -1    0    0  501    0  0.00000000000E+00  0.00000000000E+00  0.64338918365E+02  0.64338918535E+02  0.46700000000E-02 0. -1.
         -1   -1    0    0    0  501 -0.00000000000E+00 -0.00000000000E+00 -0.32806898927E+02  0.32806899259E+02  0.46700000000E-02 0.  1.
         23    2    1    2    0    0  0.00000000000E+00  0.00000000000E+00  0.31532019438E+02  0.97145817794E+02  0.91886025406E+02 0.  0.
        -13    1    3    3    0    0  0.27149103517E+02  0.33910206397E+02  0.31581359409E+02  0.53706325087E+02  0.10570000000E+00 0. -1.
         13    1    3    3    0    0 -0.27149103517E+02 -0.33910206397E+02 -0.49339971140E-01  0.43439492707E+02  0.10570000000E+00 0.  1.
<mgrwt>
<rscale>  0 0.91886025E+02</rscale>
<asrwt>0</asrwt>
<pdfrwt beam="1">  1        1 0.98982951E-02 0.91886025E+02</pdfrwt>
<pdfrwt beam="2">  1       -1 0.50472153E-02 0.91886025E+02</pdfrwt>
<totfact> 0.95330194E+04</totfact>
</mgrwt>
</event>
<event>
 5   1  0.1388354E+00  0.8488965E+02  0.7818608E-02  0.1315721E+00
         -1   -1    0    0    0  501 -0.00000000000E+00  0.00000000000E+00  0.12047303339E+02  0.12047304244E+02  0.46700000000E-02 0.  1.
          1   -1    0    0  501    0  0.00000000000E+00 -0.00000000000E+00 -0.14954078344E+03  0.14954078351E+03  0.46700000000E-02 0. -1.
         23    2    1    2    0    0  0.00000000000E+00  0.00000000000E+00 -0.13749348010E+03  0.16158808776E+03  0.84889652107E+02 0.  0.
        -13    1    3    3    0    0  0.34964612289E+02 -0.12068465316E+02 -0.29119933042E+02  0.47076041045E+02  0.10570000000E+00 0.  1.
         13    1    3    3    0    0 -0.34964612289E+02  0.12068465316E+02 -0.10837354706E+03  0.11451204671E+03  0.10570000000E+00 0. -1.
<mgrwt>
<rscale>  0 0.84889652E+02</rscale>
<asrwt>0</asrwt>
<pdfrwt beam="2">  1        1 0.23006273E-01 0.84889652E+02</pdfrwt>
<pdfrwt beam="1">  1       -1 0.18534315E-02 0.84889652E+02</pdfrwt>
<totfact> 0.13576727E+05</totfact>
</mgrwt>
</event>
<event>
 5   1  0.1388354E+00  0.9135648E+02  0.7818608E-02  0.1299600E+00
          1   -1    0    0  501    0  0.00000000000E+00  0.00000000000E+00  0.99850532148E+01  0.99850543069E+01  0.46700000000E-02 0. -1.
         -1   -1    0    0    0  501 -0.00000000000E+00 -0.00000000000E+00 -0.20896248606E+03  0.20896248611E+03  0.46700000000E-02 0.  1.
         23    2    1    2    0    0  0.00000000000E+00  0.00000000000E+00 -0.19897743284E+03  0.21894754042E+03  0.91356481291E+02 0.  0.
        -13    1    3    3    0    0 -0.45303086362E+02 -0.56426921969E+01 -0.95869183114E+02  0.10618437292E+03  0.10570000000E+00 0. -1.
         13    1    3    3    0    0  0.45303086362E+02  0.56426921969E+01 -0.10310824973E+03  0.11276316750E+03  0.10570000000E+00 0.  1.
<mgrwt>
<rscale>  0 0.91356481E+02</rscale>
<asrwt>0</asrwt>
<pdfrwt beam="1">  1        1 0.15361623E-02 0.91356481E+02</pdfrwt>
<pdfrwt beam="2">  1       -1 0.32148072E-01 0.91356481E+02</pdfrwt>
<totfact> 0.68194366E+04</totfact>
</mgrwt>
</event>
<event>
 5   1  0.1388354E+00  0.9095664E+02  0.7818608E-02  0.1300551E+00
          1   -1    0    0  501    0  0.00000000000E+00  0.00000000000E+00  0.29529857574E+03  0.29529857578E+03  0.46700000000E-02 0. -1.
         -1   -1    0    0    0  501 -0.00000000000E+00 -0.00000000000E+00 -0.70040215000E+01  0.70040230569E+01  0.46700000000E-02 0.  1.
         23    2    1    2    0    0  0.00000000000E+00  0.00000000000E+00  0.28829455424E+03  0.30230259884E+03  0.90956644932E+02 0.  0.
        -13    1    3    3    0    0  0.11738166800E+01  0.43578275871E+02  0.18720318580E+03  0.19221209098E+03  0.10570000000E+00 0. -1.
         13    1    3    3    0    0 -0.11738166800E+01 -0.43578275871E+02  0.10109136844E+03  0.11009050785E+03  0.10570000000E+00 0.  1.
<mgrwt>
<rscale>  0 0.90956645E+02</rscale>
<asrwt>0</asrwt>
<pdfrwt beam="1">  1        1 0.45430543E-01 0.90956645E+02</pdfrwt>
<pdfrwt beam="2">  1       -1 0.10775421E-02 0.90956645E+02</pdfrwt>
<totfact> 0.12856170E+05</totfact>
</mgrwt>
</event>
<event>
 5   1  0.1388354E+00  0.9192399E+02  0.7818608E-02  0.1298258E+00
          1   -1    0    0  501    0  0.00000000000E+00  0.00000000000E+00  0.13361441667E+02  0.13361442483E+02  0.46700000000E-02 0. -1.
         -1   -1    0    0    0  501 -0.00000000000E+00 -0.00000000000E+00 -0.15810456123E+03  0.15810456130E+03  0.46700000000E-02 0.  1.
         23    2    1    2    0    0  0.00000000000E+00  0.00000000000E+00 -0.14474311957E+03  0.17146600378E+03  0.91923989209E+02 0.  0.
        -13    1    3    3    0    0  0.17367462389E+02  0.19965122024E+02 -0.14246967286E+03  0.14490636185E+03  0.10570000000E+00 0.  1.
         13    1    3    3    0    0 -0.17367462389E+02 -0.19965122024E+02 -0.22734467065E+01  0.26559641935E+02  0.10570000000E+00 0. -1.
<mgrwt>
<rscale>  0 0.91923989E+02</rscale>
<asrwt>0</asrwt>
<pdfrwt beam="1">  1        1 0.20556066E-02 0.91923989E+02</pdfrwt>
<pdfrwt beam="2">  1       -1 0.24323777E-01 0.91923989E+02</pdfrwt>
<totfact> 0.72306103E+04</totfact>
</mgrwt>
</event>
<event>
 5   1  0.1388354E+00  0.9163119E+02  0.7818608E-02  0.1298949E+00
         -1   -1    0    0    0  501 -0.00000000000E+00  0.00000000000E+00  0.15302072830E+02  0.15302073543E+02  0.46700000000E-02 0.  1.
          1   -1    0    0  501    0  0.00000000000E+00 -0.00000000000E+00 -0.13717544970E+03  0.13717544978E+03  0.46700000000E-02 0. -1.
         23    2    1    2    0    0  0.00000000000E+00  0.00000000000E+00 -0.12187337687E+03  0.15247752332E+03  0.91631190808E+02 0.  0.
        -13    1    3    3    0    0 -0.40827740356E+01 -0.44562746326E+02 -0.44585884889E+02  0.63169768939E+02  0.10570000000E+00 0.  1.
         13    1    3    3    0    0  0.40827740356E+01  0.44562746326E+02 -0.77287491980E+02  0.89307754383E+02  0.10570000000E+00 0. -1.
<mgrwt>
<rscale>  0 0.91631191E+02</rscale>
<asrwt>0</asrwt>
<pdfrwt beam="2">  1        1 0.21103915E-01 0.91631191E+02</pdfrwt>
<pdfrwt beam="1">  1       -1 0.23541652E-02 0.91631191E+02</pdfrwt>
<totfact> 0.10884888E+05</totfact>
</mgrwt>
</event>
<event>
 5   1  0.1388354E+00  0.9079912E+02  0.7818608E-02  0.1300928E+00
         -1   -1    0    0    0  501 -0.00000000000E+00  0.00000000000E+00  0.87470453221E+02  0.87470453346E+02  0.46700000000E-02 0.  1.
          1   -1    0    0  501    0  0.00000000000E+00 -0.00000000000E+00 -0.23563613083E+02  0.23563613546E+02  0.46700000000E-02 0. -1.
         23    2    1    2    0    0  0.00000000000E+00  0.00000000000E+00  0.63906840138E+02  0.11103406689E+03  0.90799117804E+02 0.  0.
        -13    1    3    3    0    0 -0.11993187990E+00 -0.45233216304E+02  0.36697484617E+02  0.58247530338E+02  0.10570000000E+00 0.  1.
         13    1    3    3    0    0  0.11993187990E+00  0.45233216304E+02  0.27209355522E+02  0.52786536553E+02  0.10570000000E+00 0. -1.
<mgrwt>
<rscale>  0 0.90799118E+02</rscale>
<asrwt>0</asrwt>
<pdfrwt beam="2">  1        1 0.36251713E-02 0.90799118E+02</pdfrwt>
<pdfrwt beam="1">  1       -1 0.13456993E-01 0.90799118E+02</pdfrwt>
<totfact> 0.84252614E+04</totfact>
</mgrwt>
</event>
<event>
 5   1  0.1388354E+00  0.9103247E+02  0.7818608E-02  0.1300371E+00
          1   -1    0    0  501    0  0.00000000000E+00  0.00000000000E+00  0.23677391098E+03  0.23677391103E+03  0.46700000000E-02 0. -1.
         -1   -1    0    0    0  501 -0.00000000000E+00 -0.00000000000E+00 -0.87498126736E+01  0.87498139199E+01  0.46700000000E-02 0.  1.
         23    2    1    2    0    0  0.00000000000E+00  0.00000000000E+00  0.22802409831E+03  0.24552372495E+03  0.91032467301E+02 0.  0.
        -13    1    3    3    0    0 -0.13490684094E+02 -0.40878378987E+02  0.15389595101E+03  0.15980305171E+03  0.10570000000E+00 0. -1.
         13    1    3    3    0    0  0.13490684094E+02  0.40878378987E+02  0.74128147293E+02  0.85720673233E+02  0.10570000000E+00 0.  1.
<mgrwt>
<rscale>  0 0.91032467E+02</rscale>
<asrwt>0</asrwt>
<pdfrwt beam="1">  1        1 0.36426757E-01 0.91032467E+02</pdfrwt>
<pdfrwt beam="2">  1       -1 0.13461251E-02 0.91032467E+02</pdfrwt>
<totfact> 0.12288622E+05</totfact>
</mgrwt>
</event>
<event>
 5   1  0.1388354E+00  0.9051178E+02  0.7818608E-02  0.1301617E+00
         -1   -1    0    0    0  501 -0.00000000000E+00  0.00000000000E+00  0.13087200970E+02  0.13087201803E+02  0.46700000000E-02 0.  1.
          1   -1    0    0  501    0  0.00000000000E+00 -0.00000000000E+00 -0.15649605957E+03  0.15649605964E+03  0.46700000000E-02 0. -1.
         23    2    1    2    0    0  0.00000000000E+00  0.00000000000E+00 -0.14340885860E+03  0.16958326145E+03  0.90511777338E+02 0.  0.
        -13    1    3    3    0    0 -0.32245107417E+02 -0.29850539926E+02 -0.91995019698E+02  0.10195046105E+03  0.10570000000E+00 0.  1.
         13    1    3    3    0    0  0.32245107417E+02  0.29850539926E+02 -0.51413838904E+02  0.67632800397E+02  0.10570000000E+00 0. -1.
<mgrwt>
<rscale>  0 0.90511777E+02</rscale>
<asrwt>0</asrwt>
<pdfrwt beam="2">  1        1 0.24076316E-01 0.90511777E+02</pdfrwt>
<pdfrwt beam="1">  1       -1 0.20134157E-02 0.90511777E+02</pdfrwt>
<totfact> 0.11526410E+05</totfact>
</mgrwt>
</event>
<event>
 5   1  0.1388354E+00  0.9059036E+02  0.7818608E-02  0.1301428E+00
         -1   -1    0    0    0  501 -0.00000000000E+00  0.00000000000E+00  0.56096089476E+01  0.56096108915E+01  0.46700000000E-02 0.  1.
          1   -1    0    0  501    0  0.00000000000E+00 -0.00000000000E+00 -0.36573899777E+03  0.36573899780E+03  0.46700000000E-02 0. -1.
         23    2    1    2    0    0  0.00000000000E+00  0.00000000000E+00 -0.36012938882E+03  0.37134860869E+03  0.90590355355E+02 0.  0.
        -13    1    3    3    0    0 -0.36743874631E+02 -0.22494309934E+02 -0.12274381982E+03  0.13008521353E+03  0.10570000000E+00 0.  1.
         13    1    3    3    0    0  0.36743874631E+02  0.22494309934E+02 -0.23738556900E+03  0.24126339516E+03  0.10570000000E+00 0. -1.
<mgrwt>
<rscale>  0 0.90590355E+02</rscale>
<asrwt>0</asrwt>
<pdfrwt beam="2">  1        1 0.56267520E-01 0.90590355E+02</pdfrwt>
<pdfrwt beam="1">  1       -1 0.86301720E-03 0.90590355E+02</pdfrwt>
<totfact> 0.13515544E+05</totfact>
</mgrwt>
</event>
<event>
 5   1  0.1388354E+00  0.8933117E+02  0.7818608E-02  0.1304479E+00
          1   -1    0    0  501    0  0.00000000000E+00  0.00000000000E+00  0.15586533122E+03  0.15586533129E+03  0.46700000000E-02 0. -1.
         -1   -1    0    0    0  501 -0.00000000000E+00 -0.00000000000E+00 -0.12799602648E+02  0.12799603500E+02  0.46700000000E-02 0.  1.
         23    2    1    2    0    0  0.00000000000E+00  0.00000000000E+00  0.14306572857E+03  0.16866493479E+03  0.89331167774E+02 0.  0.
        -13    1    3    3    0    0  0.66119594789E+01  0.35105021474E+02  0.12215761305E+03  0.12727361918E+03  0.10570000000E+00 0. -1.
         13    1    3    3    0    0 -0.66119594789E+01 -0.35105021474E+02  0.20908115528E+02  0.41391315614E+02  0.10570000000E+00 0.  1.
<mgrwt>
<rscale>  0 0.89331168E+02</rscale>
<asrwt>0</asrwt>
<pdfrwt beam="1">  1        1 0.23979281E-01 0.89331168E+02</pdfrwt>
<pdfrwt beam="2">  1       -1 0.19691698E-02 0.89331168E+02</pdfrwt>
<totfact> 0.11931653E+05</totfact>
</mgrwt>
</event>
<event>
 5   1  0.1388354E+00  0.9107769E+02  0.7818608E-02  0.1300263E+00
         -1   -1    0    0    0  501 -0.00000000000E+00  0.00000000000E+00  0.19878373232E+02  0.19878373781E+02  0.46700000000E-02 0.  1.
          1   -1    0    0  501    0  0.00000000000E+00 -0.00000000000E+00 -0.10432373698E+03  0.10432373709E+03  0.46700000000E-02 0. -1.
         23    2    1    2    0    0  0.00000000000E+00  0.00000000000E+00 -0.84445363751E+02  0.12420211087E+03  0.91077685989E+02 0.  0.
        -13    1    3    3    0    0 -0.11004189051E+02  0.39936973529E+02 -0.68014931161E+02  0.79637278109E+02  0.10570000000E+00 0. -1.
         13    1    3    3    0    0  0.11004189051E+02 -0.39936973529E+02 -0.16430432590E+02  0.44564832759E+02  0.10570000000E+00 0.  1.
<mgrwt>
<rscale>  0 0.91077686E+02</rscale>
<asrwt>0</asrwt>
<pdfrwt beam="2">  1        1 0.16049805E-01 0.91077686E+02</pdfrwt>
<pdfrwt beam="1">  1       -1 0.30582114E-02 0.91077686E+02</pdfrwt>
<totfact> 0.10550562E+05</totfact>
</mgrwt>
</event>
<event>
 5   1  0.1388354E+00  0.9261040E+02  0.7818608E-02  0.1296651E+00
          1   -1    0    0  501    0  0.00000000000E+00  0.00000000000E+00  0.20055592376E+03  0.20055592381E+03  0.46700000000E-02 0. -1.
         -1   -1    0    0    0  501 -0.00000000000E+00 -0.00000000000E+00 -0.10691140126E+02  0.10691141146E+02  0.46700000000E-02 0.  1.
         23    2    1    2    0    0  0.00000000000E+00  0.00000000000E+00  0.18986478363E+03  0.21124706496E+03  0.92610401088E+02 0.  0.
        -13    1    3    3    0    0  0.41838398188E+02 -0.15262207426E+02  0.66009702417E+02  0.79628377631E+02  0.10570000000E+00 0.  1.
         13    1    3    3    0    0 -0.41838398188E+02  0.15262207426E+02  0.12385508122E+03  0.13161868733E+03  0.10570000000E+00 0. -1.
<mgrwt>
<rscale>  0 0.92610401E+02</rscale>
<asrwt>0</asrwt>
<pdfrwt beam="1">  1        1 0.30854757E-01 0.92610401E+02</pdfrwt>
<pdfrwt beam="2">  1       -1 0.16447909E-02 0.92610401E+02</pdfrwt>
<totfact> 0.11360801E+05</totfact>
</mgrwt>
</event>
<event>
 5   1  0.1388354E+00  0.8980532E+02  0.7818608E-02  0.1303324E+00
          1   -1    0    0  501    0  0.00000000000E+00  0.00000000000E+00  0.22897237707E+02  0.22897238184E+02  0.46700000000E-02 0. -1.
         -1   -1    0    0    0  501 -0.00000000000E+00 -0.00000000000E+00 -0.88056432442E+02  0.88056432565E+02  0.46700000000E-02 0.  1.
         23    2    1    2    0    0  0.00000000000E+00  0.00000000000E+00 -0.65159194734E+02  0.11095367075E+03  0.89805324977E+02 0.  0.
        -13    1    3    3    0    0 -0.23727538130E+02 -0.22993404733E+02  0.49871556814E+01  0.33415200452E+02  0.10570000000E+00 0. -1.
         13    1    3    3    0    0  0.23727538130E+02  0.22993404733E+02 -0.70146350416E+02  0.77538470297E+02  0.10570000000E+00 0.  1.
<mgrwt>
<rscale>  0 0.89805325E+02</rscale>
<asrwt>0</asrwt>
<pdfrwt beam="1">  1        1 0.35226521E-02 0.89805325E+02</pdfrwt>
<pdfrwt beam="2">  1       -1 0.13547143E-01 0.89805325E+02</pdfrwt>
<totfact> 0.86562013E+04</totfact>
</mgrwt>
</event>
<event>
 5   1  0.1388354E+00  0.9098872E+02  0.7818608E-02  0.1300475E+00
         -1   -1    0    0    0  501 -0.00000000000E+00  0.00000000000E+00  0.15523826278E+03  0.15523826285E+03  0.46700000000E-02 0.  1.
          1   -1    0    0  501    0  0.00000000000E+00 -0.00000000000E+00 -0.13332644556E+02  0.13332645374E+02  0.46700000000E-02 0. -1.
         23    2    1    2    0    0  0.00000000000E+00  0.00000000000E+00  0.14190561822E+03  0.16857090822E+03  0.90988716971E+02 0.  0.
        -13    1    3    3    0    0  0.13355548471E+02  0.25754044713E+02  0.60282334216E+01  0.29630934253E+02  0.10570000000E+00 0. -1.
         13    1    3    3    0    0 -0.13355548471E+02 -0.25754044713E+02  0.13587738480E+03  0.13893997397E+03  0.10570000000E+00 0.  1.
<mgrwt>
<rscale>  0 0.90988717E+02</rscale>
<asrwt>0</asrwt>
<pdfrwt beam="2">  1        1 0.20511761E-02 0.90988717E+02</pdfrwt>
<pdfrwt beam="1">  1       -1 0.23882810E-01 0.90988717E+02</pdfrwt>
<totfact> 0.74582357E+04</totfact>
</mgrwt>
</event>
<event>
 5   1  0.1388354E+00  0.8252594E+02  0.7818608E-02  0.1322032E+00
          1   -1    0    0  501    0  0.00000000000E+00  0.00000000000E+00  0.11021520727E+03  0.11021520736E+03  0.46700000000E-02 0. -1.
         -1   -1    0    0    0  501 -0.00000000000E+00 -0.00000000000E+00 -0.15448254435E+02  0.15448255141E+02  0.46700000000E-02 0.  1.
         23    2    1    2    0    0  0.00000000000E+00  0.00000000000E+00  0.94766952831E+02  0.12566346251E+03  0.82525938104E+02 0.  0.
        -13    1    3    3    0    0 -0.14029142384E+02  0.37730087345E+02  0.61192838253E+02  0.73245825499E+02  0.10570000000E+00 0. -1.
         13    1    3    3    0    0  0.14029142384E+02 -0.37730087345E+02  0.33574114578E+02  0.52417637006E+02  0.10570000000E+00 0.  1.
<mgrwt>
<rscale>  0 0.82525938E+02</rscale>
<asrwt>0</asrwt>
<pdfrwt beam="1">  1        1 0.16956186E-01 0.82525938E+02</pdfrwt>
<pdfrwt beam="2">  1       -1 0.23766545E-02 0.82525938E+02</pdfrwt>
<totfact> 0.13896291E+05</totfact>
</mgrwt>
</event>
<event>
 5   1  0.1388354E+00  0.9141807E+02  0.7818608E-02  0.1299454E+00
         -1   -1    0    0    0  501 -0.00000000000E+00  0.00000000000E+00  0.32101695251E+02  0.32101695590E+02  0.46700000000E-02 0.  1.
          1   -1    0    0  501    0  0.00000000000E+00 -0.00000000000E+00 -0.65084280838E+02  0.65084281006E+02  0.46700000000E-02 0. -1.
         23    2    1    2    0    0  0.00000000000E+00  0.00000000000E+00 -0.32982585587E+02  0.97185976596E+02  0.91418067661E+02 0.  0.
        -13    1    3    3    0    0  0.18851285461E+01 -0.40502354443E+02 -0.38925094446E+02  0.56206481612E+02  0.10570000000E+00 0. -1.
         13    1    3    3    0    0 -0.18851285461E+01  0.40502354443E+02  0.59425088591E+01  0.40979494984E+02  0.10570000000E+00 0.  1.
<mgrwt>
<rscale>  0 0.91418068E+02</rscale>
<asrwt>0</asrwt>
<pdfrwt beam="2">  1        1 0.10012966E-01 0.91418068E+02</pdfrwt>
<pdfrwt beam="1">  1       -1 0.49387224E-02 0.91418068E+02</pdfrwt>
<totfact> 0.96859080E+04</totfact>
</mgrwt>
</event>
<event>
 5   1  0.1388354E+00  0.9741938E+02  0.7818608E-02  0.1285818E+00
         -1   -1    0    0    0  501 -0.00000000000E+00  0.00000000000E+00  0.25786862592E+02  0.25786863015E+02  0.46700000000E-02 0.  1.
          1   -1    0    0  501    0  0.00000000000E+00 -0.00000000000E+00 -0.92009407907E+02  0.92009408025E+02  0.46700000000E-02 0. -1.
         23    2    1    2    0    0  0.00000000000E+00  0.00000000000E+00 -0.66222545315E+02  0.11779627104E+03  0.97419381866E+02 0.  0.
        -13    1    3    3    0    0 -0.26408409613E+02  0.21010535841E+02  0.93608875202E+01  0.35021195044E+02  0.10570000000E+00 0.  1.
         13    1    3    3    0    0  0.26408409613E+02 -0.21010535841E+02 -0.75583432835E+02  0.82775075997E+02  0.10570000000E+00 0. -1.
<mgrwt>
<rscale>  0 0.97419382E+02</rscale>
<asrwt>0</asrwt>
<pdfrwt beam="2">  1        1 0.14155293E-01 0.97419382E+02</pdfrwt>
<pdfrwt beam="1">  1       -1 0.39672097E-02 0.97419382E+02</pdfrwt>
<totfact> 0.85893194E+04</totfact>
</mgrwt>
</event>
<event>
 5   1  0.1388354E+00  0.9132410E+02  0.7818608E-02  0.1299677E+00
          1   -1    0    0  501    0  0.00000000000E+00  0.00000000000E+00  0.26459756685E+02  0.26459757097E+02  0.46700000000E-02 0. -1.
         -1   -1    0    0    0  501 -0.00000000000E+00 -0.00000000000E+00 -0.78799768358E+02  0.78799768497E+02  0.46700000000E-02 0.  1.
         23    2    1    2    0    0  0.00000000000E+00  0.00000000000E+00 -0.52340011673E+02  0.10525952559E+03  0.91324098169E+02 0.  0.
        -13    1    3    3    0    0  0.45080235743E+02  0.72512594134E+01 -0.26689487036E+02  0.52888073405E+02  0.10570000000E+00 0. -1.
         13    1    3    3    0    0 -0.45080235743E+02 -0.72512594134E+01 -0.25650524638E+02  0.52371452189E+02  0.10570000000E+00 0.  1.
<mgrwt>
<rscale>  0 0.91324098E+02</rscale>
<asrwt>0</asrwt>
<pdfrwt beam="1">  1        1 0.40707319E-02 0.91324098E+02</pdfrwt>
<pdfrwt beam="2">  1       -1 0.12123041E-01 0.91324098E+02</pdfrwt>
<totfact> 0.84516585E+04</totfact>
</mgrwt>
</event>
<event>
 5   1  0.1388354E+00  0.9224123E+02  0.7818608E-02  0.1297513E+00
         -1   -1    0    0    0  501 -0.00000000000E+00  0.00000000000E+00  0.15937786884E+03  0.15937786890E+03  0.46700000000E-02 0.  1.
          1   -1    0    0  501    0  0.00000000000E+00 -0.00000000000E+00 -0.13346339917E+02  0.13346340734E+02  0.46700000000E-02 0. -1.
         23    2    1    2    0    0  0.00000000000E+00  0.00000000000E+00  0.14603152892E+03  0.17272420964E+03  0.92241233497E+02 0.  0.
        -13    1    3    3    0    0  0.82036559781E+01  0.36056570280E+02  0.12462839596E+03  0.12999855570E+03  0.10570000000E+00 0.  1.
         13    1    3    3    0    0 -0.82036559781E+01 -0.36056570280E+02  0.21403132960E+02  0.42725653942E+02  0.10570000000E+00 0. -1.
<mgrwt>
<rscale>  0 0.92241233E+02</rscale>
<asrwt>0</asrwt>
<pdfrwt beam="2">  1        1 0.20532829E-02 0.92241233E+02</pdfrwt>
<pdfrwt beam="1">  1       -1 0.24519675E-01 0.92241233E+02</pdfrwt>
<totfact> 0.71521264E+04</totfact>
</mgrwt>
</event>
<event>
 5   1  0.1388354E+00  0.9097981E+02  0.7818608E-02  0.1300496E+00
         -1   -1    0    0    0  501 -0.00000000000E+00  0.00000000000E+00  0.64450667489E+02  0.64450667659E+02  0.46700000000E-02 0.  1.
          1   -1    0    0  501    0  0.00000000000E+00 -0.00000000000E+00 -0.32107213652E+02  0.32107213992E+02  0.46700000000E-02 0. -1.
         23    2    1    2    0    0  0.00000000000E+00  0.00000000000E+00  0.32343453837E+02  0.96557881650E+02  0.90979808214E+02 0.  0.
        -13    1    3    3    0    0  0.20448149715E+02 -0.36326331638E+02 -0.31543669060E+01  0.41805387214E+02  0.10570000000E+00 0. -1.
         13    1    3    3    0    0 -0.20448149715E+02  0.36326331638E+02  0.35497820743E+02  0.54752494437E+02  0.10570000000E+00 0.  1.
<mgrwt>
<rscale>  0 0.90979808E+02</rscale>
<asrwt>0</asrwt>
<pdfrwt beam="2">  1        1 0.49395714E-02 0.90979808E+02</pdfrwt>
<pdfrwt beam="1">  1       -1 0.99154873E-02 0.90979808E+02</pdfrwt>
<totfact> 0.88173944E+04</totfact>
</mgrwt>
</event>
<event>
 5   1  0.1388354E+00  0.9174243E+02  0.7818608E-02  0.1298686E+00
          1   -1    0    0  501    0  0.00000000000E+00  0.00000000000E+00  0.10272008290E+02  0.10272009352E+02  0.46700000000E-02 0. -1.
         -1   -1    0    0    0  501 -0.00000000000E+00 -0.00000000000E+00 -0.20484488456E+03  0.20484488461E+03  0.46700000000E-02 0.  1.
         23    2    1    2    0    0  0.00000000000E+00  0.00000000000E+00 -0.19457287627E+03  0.21511689397E+03  0.91742432326E+02 0.  0.
        -13    1    3    3    0    0 -0.97822800118E+01  0.29155852625E+02 -0.17480786723E+02  0.35374366729E+02  0.10570000000E+00 0. -1.
         13    1    3    3    0    0  0.97822800118E+01 -0.29155852625E+02 -0.17709208955E+03  0.17974252724E+03  0.10570000000E+00 0.  1.
<mgrwt>
<rscale>  0 0.91742432E+02</rscale>
<asrwt>0</asrwt>
<pdfrwt beam="1">  1        1 0.15803092E-02 0.91742432E+02</pdfrwt>
<pdfrwt beam="2">  1       -1 0.31514595E-01 0.91742432E+02</pdfrwt>
<totfact> 0.67843288E+04</totfact>
</mgrwt>
</event>
<event>
 5   1  0.1388354E+00  0.9271889E+02  0.7818608E-02  0.1296398E+00
          1   -1    0    0  501    0  0.00000000000E+00  0.00000000000E+00  0.30303907663E+02  0.30303908023E+02  0.46700000000E-02 0. -1.
         -1   -1    0    0    0  501 -0.00000000000E+00 -0.00000000000E+00 -0.70921490983E+02  0.70921491137E+02  0.46700000000E-02 0.  1.
         23    2    1    2    0    0  0.00000000000E+00  0.00000000000E+00 -0.40617583320E+02  0.10122539916E+03  0.92718894300E+02 0.  0.
        -13    1    3    3    0    0 -0.12517244406E+02  0.26692171085E+02 -0.59368767162E+02  0.66285858912E+02  0.10570000000E+00 0.  1.
         13    1    3    3    0    0  0.12517244406E+02 -0.26692171085E+02  0.18751183842E+02  0.34939540248E+02  0.10570000000E+00 0. -1.
<mgrwt>
<rscale>  0 0.92718894E+02</rscale>
<asrwt>0</asrwt>
<pdfrwt beam="1">  1        1 0.46621397E-02 0.92718894E+02</pdfrwt>
<pdfrwt beam="2">  1       -1 0.10910999E-01 0.92718894E+02</pdfrwt>
<totfact> 0.82736038E+04</totfact>
</mgrwt>
</event>
<event>
 5   1  0.1388354E+00  0.9356053E+02  0.7818608E-02  0.1294451E+00
          1   -1    0    0  501    0  0.00000000000E+00  0.00000000000E+00  0.32376828010E+02  0.32376828346E+02  0.46700000000E-02 0. -1.
         -1   -1    0    0    0  501 -0.00000000000E+00 -0.00000000000E+00 -0.67591332500E+02  0.67591332661E+02  0.46700000000E-02 0.  1.
         23    2    1    2    0    0  0.00000000000E+00  0.00000000000E+00 -0.35214504490E+02  0.99968161007E+02  0.93560525270E+02 0.  0.
        -13    1    3    3    0    0  0.37717680212E+02 -0.34039882548E+01  0.11735715866E+02  0.39647808716E+02  0.10570000000E+00 0. -1.
         13    1    3    3    0    0 -0.37717680212E+02  0.34039882548E+01 -0.46950220356E+02  0.60320352291E+02  0.10570000000E+00 0.  1.
<mgrwt>
<rscale>  0 0.93560525E+02</rscale>
<asrwt>0</asrwt>
<pdfrwt beam="1">  1        1 0.49810505E-02 0.93560525E+02</pdfrwt>
<pdfrwt beam="2">  1       -1 0.10398667E-01 0.93560525E+02</pdfrwt>
<totfact> 0.81487163E+04</totfact>
</mgrwt>
</event>
<event>
 5   1  0.1388354E+00  0.9236920E+02  0.7818608E-02  0.1297214E+00
         -1   -1    0    0    0  501 -0.00000000000E+00  0.00000000000E+00  0.11643294683E+03  0.11643294693E+03  0.46700000000E-02 0.  1.
          1   -1    0    0  501    0  0.00000000000E+00 -0.00000000000E+00 -0.18319705577E+02  0.18319706172E+02  0.46700000000E-02 0. -1.
         23    2    1    2    0    0  0.00000000000E+00  0.00000000000E+00  0.98113241256E+02  0.13475265310E+03  0.92369201616E+02 0.  0.
        -13    1    3    3    0    0  0.39331372756E+01 -0.44030499083E+02  0.29546644181E+02  0.53171136654E+02  0.10570000000E+00 0. -1.
         13    1    3    3    0    0 -0.39331372756E+01  0.44030499083E+02  0.68566597075E+02  0.81581516443E+02  0.10570000000E+00 0.  1.
<mgrwt>
<rscale>  0 0.92369202E+02</rscale>
<asrwt>0</asrwt>
<pdfrwt beam="2">  1        1 0.28184162E-02 0.92369202E+02</pdfrwt>
<pdfrwt beam="1">  1       -1 0.17912761E-01 0.92369202E+02</pdfrwt>
<totfact> 0.76401361E+04</totfact>
</mgrwt>
</event>
<event>
 5   1  0.1388354E+00  0.8675505E+02  0.7818608E-02  0.1310906E+00
          1   -1    0    0  501    0  0.00000000000E+00  0.00000000000E+00  0.33391908530E+03  0.33391908533E+03  0.46700000000E-02 0. -1.
         -1   -1    0    0    0  501 -0.00000000000E+00 -0.00000000000E+00 -0.56349254096E+01  0.56349273448E+01  0.46700000000E-02 0.  1.
         23    2    1    2    0    0  0.00000000000E+00  0.00000000000E+00  0.32828415989E+03  0.33955401268E+03  0.86755045332E+02 0.  0.
        -13    1    3    3    0    0  0.42076655403E+02  0.86147544945E+01  0.14035402685E+03  0.14677848259E+03  0.10570000000E+00 0.  1.
         13    1    3    3    0    0 -0.42076655403E+02 -0.86147544945E+01  0.18793013304E+03  0.19277553009E+03  0.10570000000E+00 0. -1.
<mgrwt>
<rscale>  0 0.86755045E+02</rscale>
<asrwt>0</asrwt>
<pdfrwt beam="1">  1        1 0.51372154E-01 0.86755045E+02</pdfrwt>
<pdfrwt beam="2">  1       -1 0.86691198E-03 0.86755045E+02</pdfrwt>
<totfact> 0.14914189E+05</totfact>
</mgrwt>
</event>
<event>
 5   1  0.1388354E+00  0.9126470E+02  0.7818608E-02  0.1299818E+00
         -1   -1    0    0    0  501 -0.00000000000E+00  0.00000000000E+00  0.17098447284E+03  0.17098447290E+03  0.46700000000E-02 0.  1.
          1   -1    0    0  501    0  0.00000000000E+00 -0.00000000000E+00 -0.12178364790E+02  0.12178365686E+02  0.46700000000E-02 0. -1.
         23    2    1    2    0    0  0.00000000000E+00  0.00000000000E+00  0.15880610805E+03  0.18316283859E+03  0.91264700110E+02 0.  0.
        -13    1    3    3    0    0  0.22388575251E+01 -0.32508448909E+02  0.14351494470E+03  0.14716780306E+03  0.10570000000E+00 0.  1.
         13    1    3    3    0    0 -0.22388575251E+01  0.32508448909E+02  0.15291163348E+02  0.35995035526E+02  0.10570000000E+00 0. -1.
<mgrwt>
<rscale>  0 0.91264700E+02</rscale>
<asrwt>0</asrwt>
<pdfrwt beam="2">  1        1 0.18735945E-02 0.91264700E+02</pdfrwt>
<pdfrwt beam="1">  1       -1 0.26305305E-01 0.91264700E+02</pdfrwt>
<totfact> 0.72250281E+04</totfact>
</mgrwt>
</event>
<event>
 5   1  0.1388354E+00  0.8996621E+02  0.7818608E-02  0.1302934E+00
         -1   -1    0    0    0  501 -0.00000000000E+00  0.00000000000E+00  0.71785517337E+02  0.71785517489E+02  0.46700000000E-02 0.  1.
          1   -1    0    0  501    0  0.00000000000E+00 -0.00000000000E+00 -0.28187856569E+02  0.28187856955E+02  0.46700000000E-02 0. -1.
         23    2    1    2    0    0  0.00000000000E+00  0.00000000000E+00  0.43597660768E+02  0.99973374444E+02  0.89966213510E+02 0.  0.
        -13    1    3    3    0    0  0.33281986058E+02 -0.29784797640E+02  0.15851509162E+02  0.47393103735E+02  0.10570000000E+00 0. -1.
         13    1    3    3    0    0 -0.33281986058E+02  0.29784797640E+02  0.27746151606E+02  0.52580270709E+02  0.10570000000E+00 0.  1.
<mgrwt>
<rscale>  0 0.89966214E+02</rscale>
<asrwt>0</asrwt>
<pdfrwt beam="2">  1        1 0.43365934E-02 0.89966214E+02</pdfrwt>
<pdfrwt beam="1">  1       -1 0.11043926E-01 0.89966214E+02</pdfrwt>
<totfact> 0.89173305E+04</totfact>
</mgrwt>
</event>
<event>
 5   1  0.1388354E+00  0.9109234E+02  0.7818608E-02  0.1300228E+00
          1   -1    0    0  501    0  0.00000000000E+00  0.00000000000E+00  0.84515376909E+02  0.84515377038E+02  0.46700000000E-02 0. -1.
         -1   -1    0    0    0  501 -0.00000000000E+00 -0.00000000000E+00 -0.24545277185E+02  0.24545277630E+02  0.46700000000E-02 0.  1.
         23    2    1    2    0    0  0.00000000000E+00  0.00000000000E+00  0.59970099724E+02  0.10906065467E+03  0.91092335219E+02 0.  0.
        -13    1    3    3    0    0  0.18530816006E+02  0.18743368026E+02 -0.14486724281E+02  0.30076258739E+02  0.10570000000E+00 0.  1.
         13    1    3    3    0    0 -0.18530816006E+02 -0.18743368026E+02  0.74456824005E+02  0.78984395929E+02  0.10570000000E+00 0. -1.
<mgrwt>
<rscale>  0 0.91092335E+02</rscale>
<asrwt>0</asrwt>
<pdfrwt beam="1">  1        1 0.13002366E-01 0.91092335E+02</pdfrwt>
<pdfrwt beam="2">  1       -1 0.37761965E-02 0.91092335E+02</pdfrwt>
<totfact> 0.10188500E+05</totfact>
</mgrwt>
</event>
<event>
 5   1  0.1388354E+00  0.9130003E+02  0.7818608E-02  0.1299734E+00
         -1   -1    0    0    0  501 -0.00000000000E+00  0.00000000000E+00  0.55726286106E+02  0.55726286301E+02  0.46700000000E-02 0.  1.
          1   -1    0    0  501    0  0.00000000000E+00 -0.00000000000E+00 -0.37395703382E+02  0.37395703674E+02  0.46700000000E-02 0. -1.
         23    2    1    2    0    0  0.00000000000E+00  0.00000000000E+00  0.18330582723E+02  0.93121989975E+02  0.91300026035E+02 0.  0.
        -13    1    3    3    0    0  0.40673994694E+02 -0.20610590260E+01  0.30199408754E+02  0.50701452349E+02  0.10570000000E+00 0.  1.
         13    1    3    3    0    0 -0.40673994694E+02  0.20610590260E+01 -0.11868826031E+02  0.42420537626E+02  0.10570000000E+00 0. -1.
<mgrwt>
<rscale>  0 0.91300026E+02</rscale>
<asrwt>0</asrwt>
<pdfrwt beam="2">  1        1 0.57531852E-02 0.91300026E+02</pdfrwt>
<pdfrwt beam="1">  1       -1 0.85732748E-02 0.91300026E+02</pdfrwt>
<totfact> 0.89393326E+04</totfact>
</mgrwt>
</event>
<event>
 5   1  0.1388354E+00  0.9120121E+02  0.7818608E-02  0.1299969E+00
          1   -1    0    0  501    0  0.00000000000E+00  0.00000000000E+00  0.43544738595E+03  0.43544738598E+03  0.46700000000E-02 0. -1.
         -1   -1    0    0    0  501 -0.00000000000E+00 -0.00000000000E+00 -0.47753527515E+01  0.47753550350E+01  0.46700000000E-02 0.  1.
         23    2    1    2    0    0  0.00000000000E+00  0.00000000000E+00  0.43067203320E+03  0.44022274101E+03  0.91201214483E+02 0.  0.
        -13    1    3    3    0    0  0.45178118500E+02  0.14115331353E+00  0.18545500282E+03  0.19087863045E+03  0.10570000000E+00 0.  1.
         13    1    3    3    0    0 -0.45178118500E+02 -0.14115331353E+00  0.24521703037E+03  0.24934411057E+03  0.10570000000E+00 0. -1.
<mgrwt>
<rscale>  0 0.91201214E+02</rscale>
<asrwt>0</asrwt>
<pdfrwt beam="1">  1        1 0.66991920E-01 0.91201214E+02</pdfrwt>
<pdfrwt beam="2">  1       -1 0.73466968E-03 0.91201214E+02</pdfrwt>
<totfact> 0.13660247E+05</totfact>
</mgrwt>
</event>
<event>
 5   1  0.1388354E+00  0.9150265E+02  0.7818608E-02  0.1299253E+00
         -1   -1    0    0    0  501 -0.00000000000E+00  0.00000000000E+00  0.11290585085E+02  0.11290586051E+02  0.46700000000E-02 0.  1.
          1   -1    0    0  501    0  0.00000000000E+00 -0.00000000000E+00 -0.18539193972E+03  0.18539193978E+03  0.46700000000E-02 0. -1.
         23    2    1    2    0    0  0.00000000000E+00  0.00000000000E+00 -0.17410135464E+03  0.19668252583E+03  0.91502646306E+02 0.  0.
        -13    1    3    3    0    0 -0.43213312244E+02 -0.35593524708E+01 -0.55671818318E+02  0.70565018759E+02  0.10570000000E+00 0.  1.
         13    1    3    3    0    0  0.43213312244E+02  0.35593524708E+01 -0.11842953632E+03  0.12611750707E+03  0.10570000000E+00 0. -1.
<mgrwt>
<rscale>  0 0.91502646E+02</rscale>
<asrwt>0</asrwt>
<pdfrwt beam="2">  1        1 0.28521835E-01 0.91502646E+02</pdfrwt>
<pdfrwt beam="1">  1       -1 0.17370133E-02 0.91502646E+02</pdfrwt>
<totfact> 0.11557097E+05</totfact>
</mgrwt>
</event>
<event>
 5   1  0.1388354E+00  0.9179886E+02  0.7818608E-02  0.1298553E+00
          1   -1    0    0  501    0  0.00000000000E+00  0.00000000000E+00  0.41330784645E+02  0.41330784908E+02  0.46700000000E-02 0. -1.
         -1   -1    0    0    0  501 -0.00000000000E+00 -0.00000000000E+00 -0.50973088154E+02  0.50973088368E+02  0.46700000000E-02 0.  1.
         23    2    1    2    0    0  0.00000000000E+00  0.00000000000E+00 -0.96423035092E+01  0.92303873276E+02  0.91798861675E+02 0.  0.
        -13    1    3    3    0    0 -0.20973589560E+02 -0.17764111068E+02 -0.41783295218E+02  0.50013098613E+02  0.10570000000E+00 0.  1.
         13    1    3    3    0    0  0.20973589560E+02  0.17764111068E+02  0.32140991709E+02  0.42290774663E+02  0.10570000000E+00 0. -1.
<mgrwt>
<rscale>  0 0.91798862E+02</rscale>
<asrwt>0</asrwt>
<pdfrwt beam="1">  1        1 0.63585823E-02 0.91798862E+02</pdfrwt>
<pdfrwt beam="2">  1       -1 0.78420136E-02 0.91798862E+02</pdfrwt>
<totfact> 0.89381826E+04</totfact>
</mgrwt>
</event>
<event>
 5   1  0.1388354E+00  0.8779815E+02  0.7818608E-02  0.1308273E+00
         -1   -1    0    0    0  501 -0.00000000000E+00  0.00000000000E+00  0.48132365423E+02  0.48132365649E+02  0.46700000000E-02 0.  1.
          1   -1    0    0  501    0  0.00000000000E+00 -0.00000000000E+00 -0.40038104865E+02  0.40038105137E+02  0.46700000000E-02 0. -1.
         23    2    1    2    0    0  0.00000000000E+00  0.00000000000E+00  0.80942605580E+01  0.88170470787E+02  0.87798148413E+02 0.  0.
        -13    1    3    3    0    0  0.29641630300E+02  0.25199255020E+02  0.24467786804E+02  0.45959900610E+02  0.10570000000E+00 0.  1.
         13    1    3    3    0    0 -0.29641630300E+02 -0.25199255020E+02 -0.16373526246E+02  0.42210570177E+02  0.10570000000E+00 0. -1.
<mgrwt>
<rscale>  0 0.87798148E+02</rscale>
<asrwt>0</asrwt>
<pdfrwt beam="2">  1        1 0.61597085E-02 0.87798148E+02</pdfrwt>
<pdfrwt beam="1">  1       -1 0.74049793E-02 0.87798148E+02</pdfrwt>
<totfact> 0.10083925E+05</totfact>
</mgrwt>
</event>
<event>
 5   1  0.1388354E+00  0.7852460E+02  0.7818608E-02  0.1333291E+00
          1   -1    0    0  501    0  0.00000000000E+00  0.00000000000E+00  0.25496981424E+03  0.25496981428E+03  0.46700000000E-02 0. -1.
         -1   -1    0    0    0  501 -0.00000000000E+00 -0.00000000000E+00 -0.60459236038E+01  0.60459254074E+01  0.46700000000E-02 0.  1.
         23    2    1    2    0    0  0.00000000000E+00  0.00000000000E+00  0.24892389064E+03  0.26101573969E+03  0.78524601474E+02 0.  0.
        -13    1    3    3    0    0 -0.38915998226E+02 -0.10822970753E+01  0.10754843683E+03  0.11437789874E+03  0.10570000000E+00 0. -1.
         13    1    3    3    0    0  0.38915998226E+02  0.10822970753E+01  0.14137545381E+03  0.14663784095E+03  0.10570000000E+00 0.  1.
<mgrwt>
<rscale>  0 0.78524601E+02</rscale>
<asrwt>0</asrwt>
<pdfrwt beam="1">  1        1 0.39226114E-01 0.78524601E+02</pdfrwt>
<pdfrwt beam="2">  1       -1 0.93014250E-03 0.78524601E+02</pdfrwt>
<totfact> 0.18440944E+05</totfact>
</mgrwt>
</event>
<event>
 5   1  0.1388354E+00  0.9467343E+02  0.7818608E-02  0.1291913E+00
          1   -1    0    0  501    0  0.00000000000E+00  0.00000000000E+00  0.47858453571E+02  0.47858453798E+02  0.46700000000E-02 0. -1.
         -1   -1    0    0    0  501 -0.00000000000E+00 -0.00000000000E+00 -0.46820661773E+02  0.46820662006E+02  0.46700000000E-02 0.  1.
         23    2    1    2    0    0  0.00000000000E+00  0.00000000000E+00  0.10377917977E+01  0.94679115804E+02  0.94673427939E+02 0.  0.
        -13    1    3    3    0    0  0.68475034362E+00  0.12372463883E+02 -0.45169804811E+02  0.46838757293E+02  0.10570000000E+00 0.  1.
         13    1    3    3    0    0 -0.68475034362E+00 -0.12372463883E+02  0.46207596609E+02  0.47840358511E+02  0.10570000000E+00 0. -1.
<mgrwt>
<rscale>  0 0.94673428E+02</rscale>
<asrwt>0</asrwt>
<pdfrwt beam="1">  1        1 0.73628390E-02 0.94673428E+02</pdfrwt>
<pdfrwt beam="2">  1       -1 0.72031788E-02 0.94673428E+02</pdfrwt>
<totfact> 0.83796931E+04</totfact>
</mgrwt>
</event>
<event>
 5   1  0.1388354E+00  0.9290432E+02  0.7818608E-02  0.1295967E+00
          1   -1    0    0  501    0  0.00000000000E+00  0.00000000000E+00  0.75482855120E+02  0.75482855264E+02  0.46700000000E-02 0. -1.
         -1   -1    0    0    0  501 -0.00000000000E+00 -0.00000000000E+00 -0.28586668571E+02  0.28586668953E+02  0.46700000000E-02 0.  1.
         23    2    1    2    0    0  0.00000000000E+00  0.00000000000E+00  0.46896186549E+02  0.10406952422E+03  0.92904324754E+02 0.  0.
        -13    1    3    3    0    0 -0.13723076246E+02 -0.53090633295E+01 -0.25907012919E+02  0.29794185104E+02  0.10570000000E+00 0.  1.
         13    1    3    3    0    0  0.13723076246E+02  0.53090633295E+01  0.72803199468E+02  0.74275339113E+02  0.10570000000E+00 0. -1.
<mgrwt>
<rscale>  0 0.92904325E+02</rscale>
<asrwt>0</asrwt>
<pdfrwt beam="1">  1        1 0.11612747E-01 0.92904325E+02</pdfrwt>
<pdfrwt beam="2">  1       -1 0.43979491E-02 0.92904325E+02</pdfrwt>
<totfact> 0.94795167E+04</totfact>
</mgrwt>
</event>
<event>
 5   1  0.1388354E+00  0.9027660E+02  0.7818608E-02  0.1302183E+00
          1   -1    0    0  501    0  0.00000000000E+00  0.00000000000E+00  0.21565302016E+03  0.21565302021E+03  0.46700000000E-02 0. -1.
         -1   -1    0    0    0  501 -0.00000000000E+00 -0.00000000000E+00 -0.94478901395E+01  0.94478912936E+01  0.46700000000E-02 0.  1.
         23    2    1    2    0    0  0.00000000000E+00  0.00000000000E+00  0.20620513002E+03  0.22510091150E+03  0.90276601138E+02 0.  0.
        -13    1    3    3    0    0 -0.13646387780E+01 -0.42341926680E+02  0.64253080391E+02  0.76962136835E+02  0.10570000000E+00 0.  1.
         13    1    3    3    0    0  0.13646387780E+01  0.42341926680E+02  0.14195204963E+03  0.14813877467E+03  0.10570000000E+00 0. -1.
<mgrwt>
<rscale>  0 0.90276601E+02</rscale>
<asrwt>0</asrwt>
<pdfrwt beam="1">  1        1 0.33177390E-01 0.90276601E+02</pdfrwt>
<pdfrwt beam="2">  1       -1 0.14535216E-02 0.90276601E+02</pdfrwt>
<totfact> 0.12338704E+05</totfact>
</mgrwt>
</event>
<event>
 5   1  0.1388354E+00  0.9379644E+02  0.7818608E-02  0.1293910E+00
          1   -1    0    0  501    0  0.00000000000E+00  0.00000000000E+00  0.31758445547E+02  0.31758445890E+02  0.46700000000E-02 0. -1.
         -1   -1    0    0    0  501 -0.00000000000E+00 -0.00000000000E+00 -0.69255374049E+02  0.69255374206E+02  0.46700000000E-02 0.  1.
         23    2    1    2    0    0  0.00000000000E+00  0.00000000000E+00 -0.37496928502E+02  0.10101382010E+03  0.93796440249E+02 0.  0.
        -13    1    3    3    0    0  0.36589080531E+01 -0.31004304552E+02  0.18941264820E+02  0.36516259315E+02  0.10570000000E+00 0. -1.
         13    1    3    3    0    0 -0.36589080531E+01  0.31004304552E+02 -0.56438193322E+02  0.64497560782E+02  0.10570000000E+00 0.  1.
<mgrwt>
<rscale>  0 0.93796440E+02</rscale>
<asrwt>0</asrwt>
<pdfrwt beam="1">  1        1 0.48859147E-02 0.93796440E+02</pdfrwt>
<pdfrwt beam="2">  1       -1 0.10654673E-01 0.93796440E+02</pdfrwt>
<totfact> 0.80644913E+04</totfact>
</mgrwt>
</event>
<event>
 5   1  0.1388354E+00  0.9116177E+02  0.7818608E-02  0.1300062E+00
         -1   -1    0    0    0  501 -0.00000000000E+00  0.00000000000E+00  0.26182427240E+03  0.26182427244E+03  0.46700000000E-02 0.  1.
          1   -1    0    0  501    0  0.00000000000E+00 -0.00000000000E+00 -0.79351579069E+01  0.79351592811E+01  0.46700000000E-02 0. -1.
         23    2    1    2    0    0  0.00000000000E+00  0.00000000000E+00  0.25388911450E+03  0.26975943173E+03  0.91161771294E+02 0.  0.
        -13    1    3    3    0    0  0.20519448248E+02  0.38476964556E+02  0.16621091614E+03  0.17183598103E+03  0.10570000000E+00 0.  1.
         13    1    3    3    0    0 -0.20519448248E+02 -0.38476964556E+02  0.87678198353E+02  0.97923450699E+02  0.10570000000E+00 0. -1.
<mgrwt>
<rscale>  0 0.91161771E+02</rscale>
<asrwt>0</asrwt>
<pdfrwt beam="2">  1        1 0.12207935E-02 0.91161771E+02</pdfrwt>
<pdfrwt beam="1">  1       -1 0.40280662E-01 0.91161771E+02</pdfrwt>
<totfact> 0.63766355E+04</totfact>
</mgrwt>
</event>
<event>
 5   1  0.1388354E+00  0.9145178E+02  0.7818608E-02  0.1299374E+00
          1   -1    0    0  501    0  0.00000000000E+00  0.00000000000E+00  0.12812800034E+03  0.12812800042E+03  0.46700000000E-02 0. -1.
         -1   -1    0    0    0  501 -0.00000000000E+00 -0.00000000000E+00 -0.16318501460E+02  0.16318502129E+02  0.46700000000E-02 0.  1.
         23    2    1    2    0    0  0.00000000000E+00  0.00000000000E+00  0.11180949888E+03  0.14444650255E+03  0.91451779973E+02 0.  0.
        -13    1    3    3    0    0  0.42683081735E+02 -0.16356354936E+02  0.57819789584E+02  0.73705597163E+02  0.10570000000E+00 0.  1.
         13    1    3    3    0    0 -0.42683081735E+02  0.16356354936E+02  0.53989709296E+02  0.70740905391E+02  0.10570000000E+00 0. -1.
<mgrwt>
<rscale>  0 0.91451780E+02</rscale>
<asrwt>0</asrwt>
<pdfrwt beam="1">  1        1 0.19712000E-01 0.91451780E+02</pdfrwt>
<pdfrwt beam="2">  1       -1 0.25105388E-02 0.91451780E+02</pdfrwt>
<totfact> 0.10810025E+05</totfact>
</mgrwt>
</event>
<event>
 5   1  0.1388354E+00  0.9297561E+02  0.7818608E-02  0.1295802E+00
          1   -1    0    0  501    0  0.00000000000E+00  0.00000000000E+00  0.23528707649E+03  0.23528707653E+03  0.46700000000E-02 0.  1.
         -1   -1    0    0    0  501 -0.00000000000E+00 -0.00000000000E+00 -0.91850181203E+01  0.91850193075E+01  0.46700000000E-02 0. -1.
         23    2    1    2    0    0  0.00000000000E+00  0.00000000000E+00  0.22610205837E+03  0.24447209584E+03  0.92975614260E+02 0.  0.
        -13    1    3    3    0    0  0.50116353251E+01  0.41175790856E+02  0.16824025378E+03  0.17327826294E+03  0.10570000000E+00 0.  1.
         13    1    3    3    0    0 -0.50116353251E+01 -0.41175790856E+02  0.57861804584E+02  0.71193832904E+02  0.10570000000E+00 0. -1.
<mgrwt>
<rscale>  0 0.92975614E+02</rscale>
<asrwt>0</asrwt>
<pdfrwt beam="1">  1        1 0.36198015E-01 0.92975614E+02</pdfrwt>
<pdfrwt beam="2">  1       -1 0.14130797E-02 0.92975614E+02</pdfrwt>
<totfact> 0.11598422E+05</totfact>
</mgrwt>
</event>
<event>
 5   1  0.1388354E+00  0.9147966E+02  0.7818608E-02  0.1299308E+00
          1   -1    0    0  501    0  0.00000000000E+00  0.00000000000E+00  0.54201486868E+02  0.54201487069E+02  0.46700000000E-02 0. -1.
         -1   -1    0    0    0  501 -0.00000000000E+00 -0.00000000000E+00 -0.38599161445E+02  0.38599161728E+02  0.46700000000E-02 0.  1.
         23    2    1    2    0    0  0.00000000000E+00  0.00000000000E+00  0.15602325423E+02  0.92800648797E+02  0.91479658168E+02 0.  0.
        -13    1    3    3    0    0  0.13419147203E+00  0.41022369069E+02 -0.12721342991E+02  0.42949930284E+02  0.10570000000E+00 0.  1.
         13    1    3    3    0    0 -0.13419147203E+00 -0.41022369069E+02  0.28323668414E+02  0.49850718513E+02  0.10570000000E+00 0. -1.
<mgrwt>
<rscale>  0 0.91479658E+02</rscale>
<asrwt>0</asrwt>
<pdfrwt beam="1">  1        1 0.83386903E-02 0.91479658E+02</pdfrwt>
<pdfrwt beam="2">  1       -1 0.59383326E-02 0.91479658E+02</pdfrwt>
<totfact> 0.94032873E+04</totfact>
</mgrwt>
</event>
<event>
 5   1  0.1388354E+00  0.9063133E+02  0.7818608E-02  0.1301330E+00
         -1   -1    0    0    0  501 -0.00000000000E+00  0.00000000000E+00  0.62481398140E+01  0.62481415592E+01  0.46700000000E-02 0.  1.
          1   -1    0    0  501    0  0.00000000000E+00 -0.00000000000E+00 -0.32865928801E+03  0.32865928805E+03  0.46700000000E-02 0. -1.
         23    2    1    2    0    0  0.00000000000E+00  0.00000000000E+00 -0.32241114820E+03  0.33490742960E+03  0.90631329693E+02 0.  0.
        -13    1    3    3    0    0  0.32858646109E+02  0.22843679998E+02 -0.82645272658E+02  0.91824705854E+02  0.10570000000E+00 0.  1.
         13    1    3    3    0    0 -0.32858646109E+02 -0.22843679998E+02 -0.23976587554E+03  0.24308272375E+03  0.10570000000E+00 0. -1.
<mgrwt>
<rscale>  0 0.90631330E+02</rscale>
<asrwt>0</asrwt>
<pdfrwt beam="2">  1        1 0.50562954E-01 0.90631330E+02</pdfrwt>
<pdfrwt beam="1">  1       -1 0.96125267E-03 0.90631330E+02</pdfrwt>
<totfact> 0.13243222E+05</totfact>
</mgrwt>
</event>
<event>
 5   1  0.1388354E+00  0.9125861E+02  0.7818608E-02  0.1299832E+00
          1   -1    0    0  501    0  0.00000000000E+00  0.00000000000E+00  0.42967156560E+02  0.42967156814E+02  0.46700000000E-02 0. -1.
         -1   -1    0    0    0  501 -0.00000000000E+00 -0.00000000000E+00 -0.48456391674E+02  0.48456391899E+02  0.46700000000E-02 0.  1.
         23    2    1    2    0    0  0.00000000000E+00  0.00000000000E+00 -0.54892351138E+01  0.91423548713E+02  0.91258608127E+02 0.  0.
        -13    1    3    3    0    0  0.20726609974E+02  0.25104737237E+01 -0.43390443519E+02  0.48152223215E+02  0.10570000000E+00 0.  1.
         13    1    3    3    0    0 -0.20726609974E+02 -0.25104737237E+01  0.37901208405E+02  0.43271325498E+02  0.10570000000E+00 0. -1.
<mgrwt>
<rscale>  0 0.91258608E+02</rscale>
<asrwt>0</asrwt>
<pdfrwt beam="1">  1        1 0.66103318E-02 0.91258608E+02</pdfrwt>
<pdfrwt beam="2">  1       -1 0.74548295E-02 0.91258608E+02</pdfrwt>
<totfact> 0.91420021E+04</totfact>
</mgrwt>
</event>
<event>
 5   1  0.1388354E+00  0.9320195E+02  0.7818608E-02  0.1295278E+00
         -1   -1    0    0    0  501 -0.00000000000E+00  0.00000000000E+00  0.13655601007E+03  0.13655601015E+03  0.46700000000E-02 0.  1.
          1   -1    0    0  501    0  0.00000000000E+00 -0.00000000000E+00 -0.15903005868E+02  0.15903006554E+02  0.46700000000E-02 0. -1.
         23    2    1    2    0    0  0.00000000000E+00  0.00000000000E+00  0.12065300420E+03  0.15245901670E+03  0.93201954653E+02 0.  0.
        -13    1    3    3    0    0 -0.31641567689E+02 -0.70808544946E+01  0.11507821440E+03  0.11955891396E+03  0.10570000000E+00 0.  1.
         13    1    3    3    0    0  0.31641567689E+02  0.70808544946E+01  0.55747897969E+01  0.32900102735E+02  0.10570000000E+00 0. -1.
<mgrwt>
<rscale>  0 0.93201955E+02</rscale>
<asrwt>0</asrwt>
<pdfrwt beam="2">  1        1 0.24466164E-02 0.93201955E+02</pdfrwt>
<pdfrwt beam="1">  1       -1 0.21008617E-01 0.93201955E+02</pdfrwt>
<totfact> 0.72168654E+04</totfact>
</mgrwt>
</event>
<event>
 5   1  0.1388354E+00  0.8643463E+02  0.7818608E-02  0.1311723E+00
         -1   -1    0    0    0  501 -0.00000000000E+00  0.00000000000E+00  0.21049227850E+02  0.21049228368E+02  0.46700000000E-02 0.  1.
          1   -1    0    0  501    0  0.00000000000E+00 -0.00000000000E+00 -0.88731827031E+02  0.88731827154E+02  0.46700000000E-02 0. -1.
         23    2    1    2    0    0  0.00000000000E+00  0.00000000000E+00 -0.67682599180E+02  0.10978105552E+03  0.86434633798E+02 0.  0.
        -13    1    3    3    0    0 -0.39144967364E+02  0.18211741845E+02 -0.31388550847E+02  0.53378350553E+02  0.10570000000E+00 0.  1.
         13    1    3    3    0    0  0.39144967364E+02 -0.18211741845E+02 -0.36294048333E+02  0.56402704969E+02  0.10570000000E+00 0. -1.
<mgrwt>
<rscale>  0 0.86434634E+02</rscale>
<asrwt>0</asrwt>
<pdfrwt beam="2">  1        1 0.13651050E-01 0.86434634E+02</pdfrwt>
<pdfrwt beam="1">  1       -1 0.32383429E-02 0.86434634E+02</pdfrwt>
<totfact> 0.11846527E+05</totfact>
</mgrwt>
</event>
<event>
 5   1  0.1388354E+00  0.9084939E+02  0.7818608E-02  0.1300808E+00
          1   -1    0    0  501    0  0.00000000000E+00  0.00000000000E+00  0.19122906834E+03  0.19122906840E+03  0.46700000000E-02 0. -1.
         -1   -1    0    0    0  501 -0.00000000000E+00 -0.00000000000E+00 -0.10790215365E+02  0.10790216375E+02  0.46700000000E-02 0.  1.
         23    2    1    2    0    0  0.00000000000E+00  0.00000000000E+00  0.18043885298E+03  0.20201928477E+03  0.90849390514E+02 0.  0.
        -13    1    3    3    0    0 -0.26907131242E+02 -0.18526946405E+02  0.20036213107E+02  0.38323654091E+02  0.10570000000E+00 0.  1.
         13    1    3    3    0    0  0.26907131242E+02  0.18526946405E+02  0.16040263987E+03  0.16369563068E+03  0.10570000000E+00 0. -1.
<mgrwt>
<rscale>  0 0.90849391E+02</rscale>
<asrwt>0</asrwt>
<pdfrwt beam="1">  1        1 0.29419856E-01 0.90849391E+02</pdfrwt>
<pdfrwt beam="2">  1       -1 0.16600332E-02 0.90849391E+02</pdfrwt>
<totfact> 0.11852187E+05</totfact>
</mgrwt>
</event>
<event>
 5   1  0.1388354E+00  0.9424382E+02  0.7818608E-02  0.1292888E+00
         -1   -1    0    0    0  501 -0.00000000000E+00  0.00000000000E+00  0.63162413803E+01  0.63162431067E+01  0.46700000000E-02 0.  1.
          1   -1    0    0  501    0  0.00000000000E+00 -0.00000000000E+00 -0.35154991912E+03  0.35154991915E+03  0.46700000000E-02 0. -1.
         23    2    1    2    0    0  0.00000000000E+00  0.00000000000E+00 -0.34523367774E+03  0.35786616226E+03  0.94243821248E+02 0.  0.
        -13    1    3    3    0    0 -0.38404577035E+02  0.23311165811E+02 -0.22660459480E+03  0.23101509809E+03  0.10570000000E+00 0. -1.
         13    1    3    3    0    0  0.38404577035E+02 -0.23311165811E+02 -0.11862908293E+03  0.12685106416E+03  0.10570000000E+00 0.  1.
<mgrwt>
<rscale>  0 0.94243821E+02</rscale>
<asrwt>0</asrwt>
<pdfrwt beam="2">  1        1 0.54084588E-01 0.94243821E+02</pdfrwt>
<pdfrwt beam="1">  1       -1 0.97172985E-03 0.94243821E+02</pdfrwt>
<totfact> 0.12080208E+05</totfact>
</mgrwt>
</event>
<event>
 5   1  0.1388354E+00  0.9067009E+02  0.7818608E-02  0.1301237E+00
         -1   -1    0    0    0  501 -0.00000000000E+00  0.00000000000E+00  0.12211951505E+02  0.12211952398E+02  0.46700000000E-02 0.  1.
          1   -1    0    0  501    0  0.00000000000E+00 -0.00000000000E+00 -0.16829956115E+03  0.16829956121E+03  0.46700000000E-02 0. -1.
         23    2    1    2    0    0  0.00000000000E+00  0.00000000000E+00 -0.15608760964E+03  0.18051151361E+03  0.90670086920E+02 0.  0.
        -13    1    3    3    0    0  0.94817652731E+01 -0.44142062519E+02 -0.69876558241E+02  0.83193570186E+02  0.10570000000E+00 0.  1.
         13    1    3    3    0    0 -0.94817652731E+01  0.44142062519E+02 -0.86211051404E+02  0.97317943427E+02  0.10570000000E+00 0. -1.
<mgrwt>
<rscale>  0 0.90670087E+02</rscale>
<asrwt>0</asrwt>
<pdfrwt beam="2">  1        1 0.25892239E-01 0.90670087E+02</pdfrwt>
<pdfrwt beam="1">  1       -1 0.18787620E-02 0.90670087E+02</pdfrwt>
<totfact> 0.11628842E+05</totfact>
</mgrwt>
</event>
<event>
 5   1  0.1388354E+00  0.9293953E+02  0.7818608E-02  0.1295885E+00
         -1   -1    0    0    0  501 -0.00000000000E+00  0.00000000000E+00  0.47690744705E+02  0.47690744934E+02  0.46700000000E-02 0.  1.
          1   -1    0    0  501    0  0.00000000000E+00 -0.00000000000E+00 -0.45280045017E+02  0.45280045258E+02  0.46700000000E-02 0. -1.
         23    2    1    2    0    0  0.00000000000E+00  0.00000000000E+00  0.24106996881E+01  0.92970790191E+02  0.92939530641E+02 0.  0.
        -13    1    3    3    0    0  0.19866729604E+02  0.11655812949E+02  0.41578347089E+02  0.47532252627E+02  0.10570000000E+00 0.  1.
         13    1    3    3    0    0 -0.19866729604E+02 -0.11655812949E+02 -0.39167647400E+02  0.45438537565E+02  0.10570000000E+00 0. -1.
<mgrwt>
<rscale>  0 0.92939531E+02</rscale>
<asrwt>0</asrwt>
<pdfrwt beam="2">  1        1 0.69661608E-02 0.92939531E+02</pdfrwt>
<pdfrwt beam="1">  1       -1 0.73370376E-02 0.92939531E+02</pdfrwt>
<totfact> 0.87530535E+04</totfact>
</mgrwt>
</event>
<event>
 5   1  0.1388354E+00  0.9113369E+02  0.7818608E-02  0.1300129E+00
         -1   -1    0    0    0  501 -0.00000000000E+00  0.00000000000E+00  0.12271560921E+02  0.12271561810E+02  0.46700000000E-02 0.  1.
          1   -1    0    0  501    0  0.00000000000E+00 -0.00000000000E+00 -0.16919911399E+03  0.16919911405E+03  0.46700000000E-02 0. -1.
         23    2    1    2    0    0  0.00000000000E+00  0.00000000000E+00 -0.15692755307E+03  0.18147067586E+03  0.91133689087E+02 0.  0.
        -13    1    3    3    0    0  0.39658409569E+02 -0.10283361159E+02 -0.38748829248E+02  0.56391665225E+02  0.10570000000E+00 0. -1.
         13    1    3    3    0    0 -0.39658409569E+02  0.10283361159E+02 -0.11817872382E+03  0.12507901064E+03  0.10570000000E+00 0.  1.
<mgrwt>
<rscale>  0 0.91133689E+02</rscale>
<asrwt>0</asrwt>
<pdfrwt beam="2">  1        1 0.26030631E-01 0.91133689E+02</pdfrwt>
<pdfrwt beam="1">  1       -1 0.18879326E-02 0.91133689E+02</pdfrwt>
<totfact> 0.11481981E+05</totfact>
</mgrwt>
</event>
<event>
 5   1  0.1388354E+00  0.8927422E+02  0.7818608E-02  0.1304619E+00
          1   -1    0    0  501    0  0.00000000000E+00  0.00000000000E+00  0.91727003835E+02  0.91727003954E+02  0.46700000000E-02 0. -1.
         -1   -1    0    0    0  501 -0.00000000000E+00 -0.00000000000E+00 -0.21721756352E+02  0.21721756854E+02  0.46700000000E-02 0.  1.
         23    2    1    2    0    0  0.00000000000E+00  0.00000000000E+00  0.70005247483E+02  0.11344876081E+03  0.89274221664E+02 0.  0.
        -13    1    3    3    0    0 -0.38132823763E+02 -0.21689489210E+02  0.24530028945E+02  0.50262109813E+02  0.10570000000E+00 0.  1.
         13    1    3    3    0    0  0.38132823763E+02  0.21689489210E+02  0.45475218539E+02  0.63186650995E+02  0.10570000000E+00 0. -1.
<mgrwt>
<rscale>  0 0.89274222E+02</rscale>
<asrwt>0</asrwt>
<pdfrwt beam="1">  1        1 0.14111847E-01 0.89274222E+02</pdfrwt>
<pdfrwt beam="2">  1       -1 0.33418087E-02 0.89274222E+02</pdfrwt>
<totfact> 0.10907360E+05</totfact>
</mgrwt>
</event>
<event>
 5   1  0.1388354E+00  0.9210887E+02  0.7818608E-02  0.1297824E+00
          1   -1    0    0  501    0  0.00000000000E+00  0.00000000000E+00  0.13915124655E+03  0.13915124663E+03  0.46700000000E-02 0. -1.
         -1   -1    0    0    0  501 -0.00000000000E+00 -0.00000000000E+00 -0.15242484995E+02  0.15242485711E+02  0.46700000000E-02 0.  1.
         23    2    1    2    0    0  0.00000000000E+00  0.00000000000E+00  0.12390876155E+03  0.15439373234E+03  0.92108867084E+02 0.  0.
        -13    1    3    3    0    0  0.35175723920E+02  0.27903466078E+02  0.79135705503E+02  0.90985746303E+02  0.10570000000E+00 0. -1.
         13    1    3    3    0    0 -0.35175723920E+02 -0.27903466078E+02  0.44773056052E+02  0.63407986036E+02  0.10570000000E+00 0.  1.
<mgrwt>
<rscale>  0 0.92108867E+02</rscale>
<asrwt>0</asrwt>
<pdfrwt beam="1">  1        1 0.21407886E-01 0.92108867E+02</pdfrwt>
<pdfrwt beam="2">  1       -1 0.23449976E-02 0.92108867E+02</pdfrwt>
<totfact> 0.10760534E+05</totfact>
</mgrwt>
</event>
<event>
 5   1  0.1388354E+00  0.8999917E+02  0.7818608E-02  0.1302854E+00
          1   -1    0    0  501    0  0.00000000000E+00  0.00000000000E+00  0.27034341935E+02  0.27034342339E+02  0.46700000000E-02 0. -1.
         -1   -1    0    0    0  501 -0.00000000000E+00 -0.00000000000E+00 -0.74903342392E+02  0.74903342537E+02  0.46700000000E-02 0.  1.
         23    2    1    2    0    0  0.00000000000E+00  0.00000000000E+00 -0.47869000457E+02  0.10193768488E+03  0.89999168847E+02 0.  0.
        -13    1    3    3    0    0 -0.36000071077E+02  0.13980661704E+02 -0.50095741936E+02  0.63253921236E+02  0.10570000000E+00 0.  1.
         13    1    3    3    0    0  0.36000071077E+02 -0.13980661704E+02  0.22267414790E+01  0.38683763640E+02  0.10570000000E+00 0. -1.
<mgrwt>
<rscale>  0 0.89999169E+02</rscale>
<asrwt>0</asrwt>
<pdfrwt beam="1">  1        1 0.41591296E-02 0.89999169E+02</pdfrwt>
<pdfrwt beam="2">  1       -1 0.11523591E-01 0.89999169E+02</pdfrwt>
<totfact> 0.88474668E+04</totfact>
</mgrwt>
</event>
<event>
 5   1  0.1388354E+00  0.9221398E+02  0.7818608E-02  0.1297577E+00
         -1   -1    0    0    0  501 -0.00000000000E+00  0.00000000000E+00  0.57381086831E+02  0.57381087021E+02  0.46700000000E-02 0. -1.
          1   -1    0    0  501    0  0.00000000000E+00 -0.00000000000E+00 -0.37048002789E+02  0.37048003083E+02  0.46700000000E-02 0.  1.
         23    2    1    2    0    0  0.00000000000E+00  0.00000000000E+00  0.20333084042E+02  0.94429090104E+02  0.92213983491E+02 0.  0.
        -13    1    3    3    0    0  0.18398539134E+01  0.11073802884E+02 -0.35627132163E+02  0.37353954160E+02  0.10570000000E+00 0.  1.
         13    1    3    3    0    0 -0.18398539134E+01 -0.11073802884E+02  0.55960216205E+02  0.57075135944E+02  0.10570000000E+00 0. -1.
<mgrwt>
<rscale>  0 0.92213983E+02</rscale>
<asrwt>0</asrwt>
<pdfrwt beam="2">  1        1 0.56996928E-02 0.92213983E+02</pdfrwt>
<pdfrwt beam="1">  1       -1 0.88278595E-02 0.92213983E+02</pdfrwt>
<totfact> 0.86773533E+04</totfact>
</mgrwt>
</event>
<event>
 5   1  0.1388354E+00  0.8689394E+02  0.7818608E-02  0.1310553E+00
         -1   -1    0    0    0  501 -0.00000000000E+00  0.00000000000E+00  0.26103642156E+02  0.26103642574E+02  0.46700000000E-02 0.  1.
          1   -1    0    0  501    0  0.00000000000E+00 -0.00000000000E+00 -0.72313252968E+02  0.72313253118E+02  0.46700000000E-02 0. -1.
         23    2    1    2    0    0  0.00000000000E+00  0.00000000000E+00 -0.46209610811E+02  0.98416895692E+02  0.86893942403E+02 0.  0.
        -13    1    3    3    0    0  0.35036559626E+02 -0.25522891660E+02 -0.26435837369E+02  0.50772464772E+02  0.10570000000E+00 0.  1.
         13    1    3    3    0    0 -0.35036559626E+02  0.25522891660E+02 -0.19773773442E+02  0.47644430920E+02  0.10570000000E+00 0. -1.
<mgrwt>
<rscale>  0 0.86893942E+02</rscale>
<asrwt>0</asrwt>
<pdfrwt beam="2">  1        1 0.11125116E-01 0.86893942E+02</pdfrwt>
<pdfrwt beam="1">  1       -1 0.40159450E-02 0.86893942E+02</pdfrwt>
<totfact> 0.11315370E+05</totfact>
</mgrwt>
</event>
<event>
 5   1  0.1388354E+00  0.9165697E+02  0.7818608E-02  0.1298888E+00
         -1   -1    0    0    0  501 -0.00000000000E+00  0.00000000000E+00  0.23502348696E+02  0.23502349160E+02  0.46700000000E-02 0.  1.
          1   -1    0    0  501    0  0.00000000000E+00 -0.00000000000E+00 -0.89363407475E+02  0.89363407597E+02  0.46700000000E-02 0. -1.
         23    2    1    2    0    0  0.00000000000E+00  0.00000000000E+00 -0.65861058779E+02  0.11286575676E+03  0.91656969102E+02 0.  0.
        -13    1    3    3    0    0  0.40007685312E+02 -0.48375826592E+01 -0.60584476565E+01  0.40752092591E+02  0.10570000000E+00 0.  1.
         13    1    3    3    0    0 -0.40007685312E+02  0.48375826592E+01 -0.59802611122E+02  0.72113664167E+02  0.10570000000E+00 0. -1.
<mgrwt>
<rscale>  0 0.91656969E+02</rscale>
<asrwt>0</asrwt>
<pdfrwt beam="2">  1        1 0.13748216E-01 0.91656969E+02</pdfrwt>
<pdfrwt beam="1">  1       -1 0.36157460E-02 0.91656969E+02</pdfrwt>
<totfact> 0.10107793E+05</totfact>
</mgrwt>
</event>
