<event>
 4    1  0.5401488E-001  0.2618316E+02  0.7818608E-02  0.1644567E+00
          4   -1    0    0  501    0  0.00000000000E+00  0.00000000000E+00  0.77817355943E+02  0.77830310843E+02  0.14200000000E+01 0.  1.
         -4   -1    0    0    0  501 -0.00000000000E+00 -0.00000000000E+00 -0.19590449295E+01  0.24195571983E+01  0.14200000000E+01 0. -1.
        -11    1    1    2    0    0  0.91098011258E+01  0.58703952579E+01  0.15419150383E+02  0.18846756109E+02  0.51100000000E-03 0. -1.
         11    1    1    2    0    0 -0.91098011258E+01 -0.58703952579E+01  0.60439160630E+02  0.61403111932E+02  0.51100000000E-03 0.  1.
<mgrwt>
<rscale>  0 0.26183162E+02</rscale>
<asrwt>0</asrwt>
<pdfrwt beam="1">  1        4 0.12008320E-01 0.26183162E+02</pdfrwt>
<pdfrwt beam="2">  1       -4 0.33781212E-03 0.26183162E+02</pdfrwt>
<totfact> 0.59300199E+05</totfact>
</mgrwt>
</event>
<event>
 4    1  0.5401488E-001  0.4486682E+02  0.7818608E-02  0.1475175E+00
         -4   -1    0    0    0  501 -0.00000000000E+00  0.00000000000E+00  0.19467400553E+02  0.19519120991E+02  0.14200000000E+01 0.  1.
          4   -1    0    0  501    0  0.00000000000E+00 -0.00000000000E+00 -0.25745704164E+02  0.25784834359E+02  0.14200000000E+01 0. -1.
        -11    1    1    2    0    0  0.17641224912E+02 -0.44254662903E+01 -0.16399513348E+02  0.24489622426E+02  0.51100000000E-03 0. -1.
         11    1    1    2    0    0 -0.17641224912E+02  0.44254662903E+01  0.10121209736E+02  0.20814332924E+02  0.51100000000E-03 0.  1.
<mgrwt>
<rscale>  0 0.44866817E+02</rscale>
<asrwt>0</asrwt>
<pdfrwt beam="2">  1        4 0.39678661E-02 0.44866817E+02</pdfrwt>
<pdfrwt beam="1">  1       -4 0.30019732E-02 0.44866817E+02</pdfrwt>
<totfact> 0.19111584E+05</totfact>
</mgrwt>
</event>
<event>
 4    1  0.5401488E-001  0.2279809E+02  0.7818608E-02  0.1694804E+00
         -4   -1    0    0    0  501 -0.00000000000E+00  0.00000000000E+00  0.92220686044E+02  0.92231617868E+02  0.14200000000E+01 0. -1.
          4   -1    0    0  501    0  0.00000000000E+00 -0.00000000000E+00 -0.10373575083E+01  0.17585535534E+01  0.14200000000E+01 0.  1.
        -11    1    1    2    0    0 -0.61691557675E+01 -0.94548391062E+01  0.52091673401E+02  0.53300984075E+02  0.51100000000E-03 0. -1.
         11    1    1    2    0    0  0.61691557675E+01  0.94548391062E+01  0.39091655136E+02  0.40689187346E+02  0.51100000000E-03 0.  1.
<mgrwt>
<rscale>  0 0.22798090E+02</rscale>
<asrwt>0</asrwt>
<pdfrwt beam="2">  1        4 0.21591096E-03 0.22798090E+02</pdfrwt>
<pdfrwt beam="1">  1       -4 0.14244117E-01 0.22798090E+02</pdfrwt>
<totfact> 0.76359599E+05</totfact>
</mgrwt>
</event>
<event>
 4    1  0.5401488E-001  0.2524485E+02  0.7818608E-02  0.1657510E+00
         -4   -1    0    0    0  501 -0.00000000000E+00  0.00000000000E+00  0.27218241164E+01  0.30699717459E+01  0.14200000000E+01 0. -1.
          4   -1    0    0  501    0  0.00000000000E+00 -0.00000000000E+00 -0.54659784180E+02  0.54678226074E+02  0.14200000000E+01 0.  1.
        -11    1    1    2    0    0  0.11950908756E+02  0.34429554130E+01 -0.30900438134E+02  0.33309386652E+02  0.51100000000E-03 0. -1.
         11    1    1    2    0    0 -0.11950908756E+02 -0.34429554130E+01 -0.21037521930E+02  0.24438811168E+02  0.51100000000E-03 0.  1.
<mgrwt>
<rscale>  0 0.25244854E+02</rscale>
<asrwt>0</asrwt>
<pdfrwt beam="2">  1        4 0.84373960E-02 0.25244854E+02</pdfrwt>
<pdfrwt beam="1">  1       -4 0.44694141E-03 0.25244854E+02</pdfrwt>
<totfact> 0.68929048E+05</totfact>
</mgrwt>
</event>
<event>
 4    1  0.5401488E-001  0.5111719E+02  0.7818608E-02  0.1439407E+00
         -4   -1    0    0    0  501 -0.00000000000E+00  0.00000000000E+00  0.11748810023E+02  0.11834311849E+02  0.14200000000E+01 0.  1.
          4   -1    0    0  501    0  0.00000000000E+00 -0.00000000000E+00 -0.55304454485E+02  0.55322681478E+02  0.14200000000E+01 0. -1.
        -11    1    1    2    0    0 -0.21592928905E+02 -0.60866059274E+01 -0.37865145075E+02  0.44012163798E+02  0.51100000000E-03 0. -1.
         11    1    1    2    0    0  0.21592928905E+02  0.60866059274E+01 -0.56904993882E+01  0.23144829530E+02  0.51100000000E-03 0.  1.
<mgrwt>
<rscale>  0 0.51117195E+02</rscale>
<asrwt>0</asrwt>
<pdfrwt beam="2">  1        4 0.85163566E-02 0.51117195E+02</pdfrwt>
<pdfrwt beam="1">  1       -4 0.18154884E-02 0.51117195E+02</pdfrwt>
<totfact> 0.12967598E+05</totfact>
</mgrwt>
</event>
<event>
 4    1  0.5401488E-001  0.6487765E+02  0.7818608E-02  0.1378432E+00
          4   -1    0    0  501    0  0.00000000000E+00  0.00000000000E+00  0.95918281009E+01  0.96963687181E+01  0.14200000000E+01 0. -1.
         -4   -1    0    0    0  501 -0.00000000000E+00 -0.00000000000E+00 -0.10900182769E+03  0.10901107668E+03  0.14200000000E+01 0.  1.
        -11    1    1    2    0    0  0.19401828696E+02  0.25006891676E+02 -0.36702217359E+02  0.48464712394E+02  0.51100000000E-03 0. -1.
         11    1    1    2    0    0 -0.19401828696E+02 -0.25006891676E+02 -0.62707782230E+02  0.70242733008E+02  0.51100000000E-03 0.  1.
<mgrwt>
<rscale>  0 0.64877651E+02</rscale>
<asrwt>0</asrwt>
<pdfrwt beam="1">  1        4 0.14844190E-02 0.64877651E+02</pdfrwt>
<pdfrwt beam="2">  1       -4 0.16778264E-01 0.64877651E+02</pdfrwt>
<totfact> 0.62101032E+04</totfact>
</mgrwt>
</event>
<event>
 4    1  0.5401488E-001  0.2936513E+02  0.7818608E-02  0.1605214E+00
          4   -1    0    0  501    0  0.00000000000E+00  0.00000000000E+00  0.69547809395E+02  0.69562304387E+02  0.14200000000E+01 0.  1.
         -4   -1    0    0    0  501 -0.00000000000E+00 -0.00000000000E+00 -0.29214603358E+01  0.32482811599E+01  0.14200000000E+01 0. -1.
        -11    1    1    2    0    0  0.14197404137E+02  0.37058147414E+01  0.34621437546E+02  0.37602437223E+02  0.51100000000E-03 0.  1.
         11    1    1    2    0    0 -0.14197404137E+02 -0.37058147414E+01  0.32004911513E+02  0.35208148323E+02  0.51100000000E-03 0. -1.
<mgrwt>
<rscale>  0 0.29365132E+02</rscale>
<asrwt>0</asrwt>
<pdfrwt beam="1">  1        4 0.10725917E-01 0.29365132E+02</pdfrwt>
<pdfrwt beam="2">  1       -4 0.47571056E-03 0.29365132E+02</pdfrwt>
<totfact> 0.47173261E+05</totfact>
</mgrwt>
</event>
<event>
 4    1  0.5401488E-001  0.2247670E+02  0.7818608E-02  0.1700136E+00
          4   -1    0    0  501    0  0.00000000000E+00  0.00000000000E+00  0.60482731852E+02  0.60499398776E+02  0.14200000000E+01 0. -1.
         -4   -1    0    0    0  501 -0.00000000000E+00 -0.00000000000E+00 -0.18278365303E+01  0.23146028561E+01  0.14200000000E+01 0.  1.
        -11    1    1    2    0    0  0.79729850865E+01 -0.69330697402E+01  0.18625605991E+02  0.21413760669E+02  0.51100000000E-03 0.  1.
         11    1    1    2    0    0 -0.79729850865E+01  0.69330697402E+01  0.40029289330E+02  0.41400240963E+02  0.51100000000E-03 0. -1.
<mgrwt>
<rscale>  0 0.22476700E+02</rscale>
<asrwt>0</asrwt>
<pdfrwt beam="1">  1        4 0.93437625E-02 0.22476700E+02</pdfrwt>
<pdfrwt beam="2">  1       -4 0.31993122E-03 0.22476700E+02</pdfrwt>
<totfact> 0.86669975E+05</totfact>
</mgrwt>
</event>
<event>
 4    1  0.5401488E-001  0.3518573E+02  0.7818608E-02  0.1546957E+00
         -4   -1    0    0    0  501 -0.00000000000E+00  0.00000000000E+00  0.81784511343E+02  0.81796837932E+02  0.14200000000E+01 0. -1.
          4   -1    0    0  501    0  0.00000000000E+00 -0.00000000000E+00 -0.36381742012E+01  0.39054719969E+01  0.14200000000E+01 0.  1.
        -11    1    1    2    0    0 -0.16362571522E+01  0.12502076331E+02  0.68957052815E+02  0.70100316570E+02  0.51100000000E-03 0. -1.
         11    1    1    2    0    0  0.16362571522E+01 -0.12502076331E+02  0.91892843268E+01  0.15601993358E+02  0.51100000000E-03 0.  1.
<mgrwt>
<rscale>  0 0.35185735E+02</rscale>
<asrwt>0</asrwt>
<pdfrwt beam="2">  1        4 0.58122869E-03 0.35185735E+02</pdfrwt>
<pdfrwt beam="1">  1       -4 0.12603742E-01 0.35185735E+02</pdfrwt>
<totfact> 0.30130977E+05</totfact>
</mgrwt>
</event>
<event>
 4    1  0.5401488E-001  0.4875484E+02  0.7818608E-02  0.1452176E+00
         -4   -1    0    0    0  501 -0.00000000000E+00  0.00000000000E+00  0.39582189825E+01  0.42052226473E+01  0.14200000000E+01 0.  1.
          4   -1    0    0  501    0  0.00000000000E+00 -0.00000000000E+00 -0.14533963896E+03  0.14534657565E+03  0.14200000000E+01 0. -1.
        -11    1    1    2    0    0 -0.51545319255E+01  0.23825623986E+02 -0.71213584821E+02  0.75270208057E+02  0.51100000000E-03 0. -1.
         11    1    1    2    0    0  0.51545319255E+01 -0.23825623986E+02 -0.70167835155E+02  0.74281590238E+02  0.51100000000E-03 0.  1.
<mgrwt>
<rscale>  0 0.48754840E+02</rscale>
<asrwt>0</asrwt>
<pdfrwt beam="2">  1        4 0.22379474E-01 0.48754840E+02</pdfrwt>
<pdfrwt beam="1">  1       -4 0.62849075E-03 0.48754840E+02</pdfrwt>
<totfact> 0.11807459E+05</totfact>
</mgrwt>
</event>
<event>
 4    1  0.5401488E-001  0.4603593E+02  0.7818608E-02  0.1467976E+00
          4   -1    0    0  501    0  0.00000000000E+00  0.00000000000E+00  0.13011495579E+02  0.13088751552E+02  0.14200000000E+01 0. -1.
         -4   -1    0    0    0  501 -0.00000000000E+00 -0.00000000000E+00 -0.40509623216E+02  0.40534503489E+02  0.14200000000E+01 0.  1.
        -11    1    1    2    0    0 -0.46920633294E+01 -0.14065132972E+02 -0.34257160877E+02  0.37328226524E+02  0.51100000000E-03 0.  1.
         11    1    1    2    0    0  0.46920633294E+01  0.14065132972E+02  0.67590332399E+01  0.16295028518E+02  0.51100000000E-03 0. -1.
<mgrwt>
<rscale>  0 0.46035926E+02</rscale>
<asrwt>0</asrwt>
<pdfrwt beam="1">  1        4 0.20096252E-02 0.46035926E+02</pdfrwt>
<pdfrwt beam="2">  1       -4 0.62401063E-02 0.46035926E+02</pdfrwt>
<totfact> 0.17478704E+05</totfact>
</mgrwt>
</event>
<event>
 4    1  0.5401488E-001  0.2651596E+02  0.7818608E-02  0.1640136E+00
         -4   -1    0    0    0  501 -0.00000000000E+00  0.00000000000E+00  0.58122459829E+01  0.59831934087E+01  0.14200000000E+01 0. -1.
          4   -1    0    0  501    0  0.00000000000E+00 -0.00000000000E+00 -0.29615529969E+02  0.29649553375E+02  0.14200000000E+01 0.  1.
        -11    1    1    2    0    0  0.53056755068E+01  0.11804570573E+02 -0.80357286246E+01  0.15233877175E+02  0.51100000000E-03 0.  1.
         11    1    1    2    0    0 -0.53056755068E+01 -0.11804570573E+02 -0.15767555361E+02  0.20398869609E+02  0.51100000000E-03 0. -1.
<mgrwt>
<rscale>  0 0.26515963E+02</rscale>
<asrwt>0</asrwt>
<pdfrwt beam="2">  1        4 0.45720023E-02 0.26515963E+02</pdfrwt>
<pdfrwt beam="1">  1       -4 0.90995869E-03 0.26515963E+02</pdfrwt>
<totfact> 0.67029590E+05</totfact>
</mgrwt>
</event>
<event>
 4    1  0.5401488E-001  0.4007645E+02  0.7818608E-02  0.1507650E+00
         -4   -1    0    0    0  501 -0.00000000000E+00  0.00000000000E+00  0.59843734324E+02  0.59860579164E+02  0.14200000000E+01 0. -1.
          4   -1    0    0  501    0  0.00000000000E+00 -0.00000000000E+00 -0.66165187321E+01  0.67671796291E+01  0.14200000000E+01 0.  1.
        -11    1    1    2    0    0  0.15817215759E+01  0.18783616132E+02  0.15312852758E+02  0.24285994688E+02  0.51100000000E-03 0.  1.
         11    1    1    2    0    0 -0.15817215759E+01 -0.18783616132E+02  0.37914362834E+02  0.42341764105E+02  0.51100000000E-03 0. -1.
<mgrwt>
<rscale>  0 0.40076449E+02</rscale>
<asrwt>0</asrwt>
<pdfrwt beam="2">  1        4 0.10308110E-02 0.40076449E+02</pdfrwt>
<pdfrwt beam="1">  1       -4 0.92196133E-02 0.40076449E+02</pdfrwt>
<totfact> 0.23475135E+05</totfact>
</mgrwt>
</event>
<event>
 4    1  0.5401488E-001  0.2540702E+02  0.7818608E-02  0.1655224E+00
         -4   -1    0    0    0  501 -0.00000000000E+00  0.00000000000E+00  0.24824879147E+02  0.24865458465E+02  0.14200000000E+01 0. -1.
          4   -1    0    0  501    0  0.00000000000E+00 -0.00000000000E+00 -0.63766530768E+01  0.65328481126E+01  0.14200000000E+01 0.  1.
        -11    1    1    2    0    0 -0.90921605593E+01  0.66586553662E+01  0.19786183781E+01  0.11442028049E+02  0.51100000000E-03 0.  1.
         11    1    1    2    0    0  0.90921605593E+01 -0.66586553662E+01  0.16469607692E+02  0.19956278529E+02  0.51100000000E-03 0. -1.
<mgrwt>
<rscale>  0 0.25407019E+02</rscale>
<asrwt>0</asrwt>
<pdfrwt beam="2">  1        4 0.99616003E-03 0.25407019E+02</pdfrwt>
<pdfrwt beam="1">  1       -4 0.38343487E-02 0.25407019E+02</pdfrwt>
<totfact> 0.74807442E+05</totfact>
</mgrwt>
</event>
<event>
 4    1  0.5401488E-001  0.3302979E+02  0.7818608E-02  0.1566826E+00
          4   -1    0    0  501    0  0.00000000000E+00  0.00000000000E+00  0.17126891213E+01  0.22247930300E+01  0.14200000000E+01 0. -1.
         -4   -1    0    0    0  501 -0.00000000000E+00 -0.00000000000E+00 -0.13801986370E+03  0.13802716825E+03  0.14200000000E+01 0.  1.
        -11    1    1    2    0    0  0.11801744223E+02 -0.10286567497E+02 -0.45826726017E+02  0.48427094227E+02  0.51100000000E-03 0. -1.
         11    1    1    2    0    0 -0.11801744223E+02  0.10286567497E+02 -0.90480448557E+02  0.91824867051E+02  0.51100000000E-03 0.  1.
<mgrwt>
<rscale>  0 0.33029787E+02</rscale>
<asrwt>0</asrwt>
<pdfrwt beam="1">  1        4 0.30344524E-03 0.33029787E+02</pdfrwt>
<pdfrwt beam="2">  1       -4 0.21273772E-01 0.33029787E+02</pdfrwt>
<totfact> 0.30162853E+05</totfact>
</mgrwt>
</event>
<event>
 4    1  0.5401488E-001  0.2840730E+02  0.7818608E-02  0.1616392E+00
          4   -1    0    0  501    0  0.00000000000E+00  0.00000000000E+00  0.67057696573E+01  0.68544691040E+01  0.14200000000E+01 0. -1.
         -4   -1    0    0    0  501 -0.00000000000E+00 -0.00000000000E+00 -0.29589275153E+02  0.29623328713E+02  0.14200000000E+01 0.  1.
        -11    1    1    2    0    0  0.65375226518E+00  0.13252536745E+02 -0.17949818763E+02  0.22321584085E+02  0.51100000000E-03 0. -1.
         11    1    1    2    0    0 -0.65375226518E+00 -0.13252536745E+02 -0.49336867321E+01  0.14156213732E+02  0.51100000000E-03 0.  1.
<mgrwt>
<rscale>  0 0.28407304E+02</rscale>
<asrwt>0</asrwt>
<pdfrwt beam="1">  1        4 0.10457148E-02 0.28407304E+02</pdfrwt>
<pdfrwt beam="2">  1       -4 0.45662540E-02 0.28407304E+02</pdfrwt>
<totfact> 0.57380278E+05</totfact>
</mgrwt>
</event>
<event>
 4    1  0.5401488E-001  0.2856681E+02  0.7818608E-02  0.1614493E+00
         -4   -1    0    0    0  501 -0.00000000000E+00  0.00000000000E+00  0.40329854695E+02  0.40354845803E+02  0.14200000000E+01 0. -1.
          4   -1    0    0  501    0  0.00000000000E+00 -0.00000000000E+00 -0.49319114236E+01  0.51322656099E+01  0.14200000000E+01 0.  1.
        -11    1    1    2    0    0  0.85165020142E+01  0.77037948550E+01  0.41750087071E+01  0.12219245463E+02  0.51100000000E-03 0. -1.
         11    1    1    2    0    0 -0.85165020142E+01 -0.77037948550E+01  0.31222934565E+02  0.33267865949E+02  0.51100000000E-03 0.  1.
<mgrwt>
<rscale>  0 0.28566815E+02</rscale>
<asrwt>0</asrwt>
<pdfrwt beam="2">  1        4 0.77608983E-03 0.28566815E+02</pdfrwt>
<pdfrwt beam="1">  1       -4 0.62219275E-02 0.28566815E+02</pdfrwt>
<totfact> 0.54850236E+05</totfact>
</mgrwt>
</event>
<event>
 4    1  0.5401488E-001  0.2820007E+02  0.7818608E-02  0.1618881E+00
         -4   -1    0    0    0  501 -0.00000000000E+00  0.00000000000E+00  0.70763866895E+02  0.70778112845E+02  0.14200000000E+01 0. -1.
          4   -1    0    0  501    0  0.00000000000E+00 -0.00000000000E+00 -0.26145902813E+01  0.29753121414E+01  0.14200000000E+01 0.  1.
        -11    1    1    2    0    0  0.10612515488E+02 -0.54468917959E+01  0.53736333439E+02  0.55044415220E+02  0.51100000000E-03 0. -1.
         11    1    1    2    0    0 -0.10612515488E+02  0.54468917959E+01  0.14412943175E+02  0.18709009766E+02  0.51100000000E-03 0.  1.
<mgrwt>
<rscale>  0 0.28200067E+02</rscale>
<asrwt>0</asrwt>
<pdfrwt beam="2">  1        4 0.43108834E-03 0.28200067E+02</pdfrwt>
<pdfrwt beam="1">  1       -4 0.10915592E-01 0.28200067E+02</pdfrwt>
<totfact> 0.51440924E+05</totfact>
</mgrwt>
</event>
<event>
 4    1  0.5401488E-001  0.2924161E+02  0.7818608E-02  0.1606626E+00
         -4   -1    0    0    0  501 -0.00000000000E+00  0.00000000000E+00  0.17976267012E+02  0.18032264852E+02  0.14200000000E+01 0.  1.
          4   -1    0    0  501    0  0.00000000000E+00 -0.00000000000E+00 -0.11774457834E+02  0.11859774757E+02  0.14200000000E+01 0. -1.
        -11    1    1    2    0    0 -0.10709320320E+02  0.99491250553E+01  0.27887144310E+01  0.14881248587E+02  0.51100000000E-03 0. -1.
         11    1    1    2    0    0  0.10709320320E+02 -0.99491250553E+01  0.34130947467E+01  0.15010791021E+02  0.51100000000E-03 0.  1.
<mgrwt>
<rscale>  0 0.29241607E+02</rscale>
<asrwt>0</asrwt>
<pdfrwt beam="2">  1        4 0.18223254E-02 0.29241607E+02</pdfrwt>
<pdfrwt beam="1">  1       -4 0.27764499E-02 0.29241607E+02</pdfrwt>
<totfact> 0.55152490E+05</totfact>
</mgrwt>
</event>
<event>
 4    1  0.5401488E-001  0.2843427E+02  0.7818608E-02  0.1616070E+00
          4   -1    0    0  501    0  0.00000000000E+00  0.00000000000E+00  0.24326918987E+02  0.24368327546E+02  0.14200000000E+01 0. -1.
         -4   -1    0    0    0  501 -0.00000000000E+00 -0.00000000000E+00 -0.81992237745E+01  0.83212781773E+01  0.14200000000E+01 0.  1.
        -11    1    1    2    0    0 -0.72854052126E+01  0.10236834958E+02  0.15712037854E+02  0.20118102616E+02  0.51100000000E-03 0. -1.
         11    1    1    2    0    0  0.72854052126E+01 -0.10236834958E+02  0.41565735813E+00  0.12571503107E+02  0.51100000000E-03 0.  1.
<mgrwt>
<rscale>  0 0.28434271E+02</rscale>
<asrwt>0</asrwt>
<pdfrwt beam="1">  1        4 0.37551769E-02 0.28434271E+02</pdfrwt>
<pdfrwt beam="2">  1       -4 0.12739931E-02 0.28434271E+02</pdfrwt>
<totfact> 0.58084652E+05</totfact>
</mgrwt>
</event>
<event>
 4    1  0.5401488E-001  0.4930795E+02  0.7818608E-02  0.1449110E+00
         -4   -1    0    0    0  501 -0.00000000000E+00  0.00000000000E+00  0.41030806532E+02  0.41055370960E+02  0.14200000000E+01 0. -1.
          4   -1    0    0  501    0  0.00000000000E+00 -0.00000000000E+00 -0.14750607674E+02  0.14818799774E+02  0.14200000000E+01 0.  1.
        -11    1    1    2    0    0 -0.12984286767E+02  0.36989250697E+01 -0.10235715499E+02  0.16942361746E+02  0.51100000000E-03 0.  1.
         11    1    1    2    0    0  0.12984286767E+02 -0.36989250697E+01  0.36515914356E+02  0.38931808988E+02  0.51100000000E-03 0. -1.
<mgrwt>
<rscale>  0 0.49307952E+02</rscale>
<asrwt>0</asrwt>
<pdfrwt beam="2">  1        4 0.22764594E-02 0.49307952E+02</pdfrwt>
<pdfrwt beam="1">  1       -4 0.63195669E-02 0.49307952E+02</pdfrwt>
<totfact> 0.14658381E+05</totfact>
</mgrwt>
</event>
<event>
 4    1  0.5401488E-001  0.3351966E+02  0.7818608E-02  0.1562153E+00
         -4   -1    0    0    0  501 -0.00000000000E+00  0.00000000000E+00  0.75673132030E+02  0.75686453948E+02  0.14200000000E+01 0. -1.
          4   -1    0    0  501    0  0.00000000000E+00 -0.00000000000E+00 -0.35619428376E+01  0.38345582247E+01  0.14200000000E+01 0.  1.
        -11    1    1    2    0    0  0.12072722195E+02 -0.77114091954E+01  0.15417961754E+02  0.21045902164E+02  0.51100000000E-03 0.  1.
         11    1    1    2    0    0 -0.12072722195E+02  0.77114091954E+01  0.56693227438E+02  0.58475110009E+02  0.51100000000E-03 0. -1.
<mgrwt>
<rscale>  0 0.33519662E+02</rscale>
<asrwt>0</asrwt>
<pdfrwt beam="2">  1        4 0.56998646E-03 0.33519662E+02</pdfrwt>
<pdfrwt beam="1">  1       -4 0.11664014E-01 0.33519662E+02</pdfrwt>
<totfact> 0.34286550E+05</totfact>
</mgrwt>
</event>
<event>
 4    1  0.5401488E-001  0.4703460E+02  0.7818608E-02  0.1462026E+00
          4   -1    0    0  501    0  0.00000000000E+00  0.00000000000E+00  0.25973536742E+02  0.26012324212E+02  0.14200000000E+01 0. -1.
         -4   -1    0    0    0  501 -0.00000000000E+00 -0.00000000000E+00 -0.21214910274E+02  0.21262380345E+02  0.14200000000E+01 0.  1.
        -11    1    1    2    0    0  0.21082436554E+02 -0.96196540846E+01 -0.16481882225E+01  0.23231947840E+02  0.51100000000E-03 0.  1.
         11    1    1    2    0    0 -0.21082436554E+02  0.96196540846E+01  0.64068146908E+01  0.24042756716E+02  0.51100000000E-03 0. -1.
<mgrwt>
<rscale>  0 0.47034595E+02</rscale>
<asrwt>0</asrwt>
<pdfrwt beam="1">  1        4 0.40025639E-02 0.47034595E+02</pdfrwt>
<pdfrwt beam="2">  1       -4 0.32704676E-02 0.47034595E+02</pdfrwt>
<totfact> 0.16914584E+05</totfact>
</mgrwt>
</event>
<event>
 4    1  0.5401488E-001  0.3655645E+02  0.7818608E-02  0.1535198E+00
         -4   -1    0    0    0  501 -0.00000000000E+00  0.00000000000E+00  0.27805945793E+02  0.27842180616E+02  0.14200000000E+01 0.  1.
          4   -1    0    0  501    0  0.00000000000E+00 -0.00000000000E+00 -0.11928986812E+02  0.12013206331E+02  0.14200000000E+01 0. -1.
        -11    1    1    2    0    0  0.13056344077E+01  0.11760086446E+02 -0.72503285934E+01  0.13877016228E+02  0.51100000000E-03 0. -1.
         11    1    1    2    0    0 -0.13056344077E+01 -0.11760086446E+02  0.23127287575E+02  0.25978370719E+02  0.51100000000E-03 0.  1.
<mgrwt>
<rscale>  0 0.36556450E+02</rscale>
<asrwt>0</asrwt>
<pdfrwt beam="2">  1        4 0.18444945E-02 0.36556450E+02</pdfrwt>
<pdfrwt beam="1">  1       -4 0.42871036E-02 0.36556450E+02</pdfrwt>
<totfact> 0.31807936E+05</totfact>
</mgrwt>
</event>
<event>
 4    1  0.5401488E-001  0.3042597E+02  0.7818608E-02  0.1593427E+00
          4   -1    0    0  501    0  0.00000000000E+00  0.00000000000E+00  0.11082726728E+02  0.11173326797E+02  0.14200000000E+01 0. -1.
         -4   -1    0    0    0  501 -0.00000000000E+00 -0.00000000000E+00 -0.20682433331E+02  0.20731122702E+02  0.14200000000E+01 0.  1.
        -11    1    1    2    0    0 -0.37838647062E+01 -0.97199576387E+01  0.68125562467E+01  0.12458175287E+02  0.51100000000E-03 0. -1.
         11    1    1    2    0    0  0.37838647062E+01  0.97199576387E+01 -0.16412262850E+02  0.19446274212E+02  0.51100000000E-03 0.  1.
<mgrwt>
<rscale>  0 0.30425968E+02</rscale>
<asrwt>0</asrwt>
<pdfrwt beam="1">  1        4 0.17157495E-02 0.30425968E+02</pdfrwt>
<pdfrwt beam="2">  1       -4 0.31926274E-02 0.30425968E+02</pdfrwt>
<totfact> 0.50028003E+05</totfact>
</mgrwt>
</event>
<event>
 4    1  0.5401488E-001  0.3258665E+02  0.7818608E-02  0.1571139E+00
          4   -1    0    0  501    0  0.00000000000E+00  0.00000000000E+00  0.22673305269E+02  0.22717728140E+02  0.14200000000E+01 0. -1.
         -4   -1    0    0    0  501 -0.00000000000E+00 -0.00000000000E+00 -0.11609405841E+02  0.11695926812E+02  0.14200000000E+01 0.  1.
        -11    1    1    2    0    0  0.75175560583E+00  0.15455872412E+02  0.10919264997E+02  0.18938835150E+02  0.51100000000E-03 0. -1.
         11    1    1    2    0    0 -0.75175560583E+00 -0.15455872412E+02  0.14463443062E+00  0.15474819801E+02  0.51100000000E-03 0.  1.
<mgrwt>
<rscale>  0 0.32586650E+02</rscale>
<asrwt>0</asrwt>
<pdfrwt beam="1">  1        4 0.34982734E-02 0.32586650E+02</pdfrwt>
<pdfrwt beam="2">  1       -4 0.17961351E-02 0.32586650E+02</pdfrwt>
<totfact> 0.42367638E+05</totfact>
</mgrwt>
</event>
<event>
 4    1  0.5401488E-001  0.2780939E+02  0.7818608E-02  0.1623647E+00
          4   -1    0    0  501    0  0.00000000000E+00  0.00000000000E+00  0.55710908090E+01  0.57492132333E+01  0.14200000000E+01 0.  1.
         -4   -1    0    0    0  501 -0.00000000000E+00 -0.00000000000E+00 -0.33965004482E+02  0.33994675016E+02  0.14200000000E+01 0. -1.
        -11    1    1    2    0    0  0.89805568693E+01 -0.10568628667E+02 -0.12771906680E+02  0.18853856743E+02  0.51100000000E-03 0. -1.
         11    1    1    2    0    0 -0.89805568693E+01  0.10568628667E+02 -0.15622006992E+02  0.20890031506E+02  0.51100000000E-03 0.  1.
<mgrwt>
<rscale>  0 0.27809393E+02</rscale>
<asrwt>0</asrwt>
<pdfrwt beam="1">  1        4 0.87307499E-03 0.27809393E+02</pdfrwt>
<pdfrwt beam="2">  1       -4 0.52413692E-02 0.27809393E+02</pdfrwt>
<totfact> 0.59431467E+05</totfact>
</mgrwt>
</event>
<event>
 4    1  0.5401488E-001  0.2512437E+02  0.7818608E-02  0.1659222E+00
          4   -1    0    0  501    0  0.00000000000E+00  0.00000000000E+00  0.10935868058E+01  0.17922979947E+01  0.14200000000E+01 0.  1.
         -4   -1    0    0    0  501 -0.00000000000E+00 -0.00000000000E+00 -0.10866131246E+03  0.10867059043E+03  0.14200000000E+01 0. -1.
        -11    1    1    2    0    0 -0.11082633134E+02  0.58406541547E+01 -0.49681696147E+02  0.51236792742E+02  0.51100000000E-03 0.  1.
         11    1    1    2    0    0  0.11082633134E+02 -0.58406541547E+01 -0.57886029506E+02  0.59226095687E+02  0.51100000000E-03 0. -1.
<mgrwt>
<rscale>  0 0.25124373E+02</rscale>
<asrwt>0</asrwt>
<pdfrwt beam="1">  1        4 0.22270491E-03 0.25124373E+02</pdfrwt>
<pdfrwt beam="2">  1       -4 0.16771579E-01 0.25124373E+02</pdfrwt>
<totfact> 0.59417568E+05</totfact>
</mgrwt>
</event>
<event>
 4    1  0.5401488E-001  0.3182947E+02  0.7818608E-02  0.1578704E+00
          4   -1    0    0  501    0  0.00000000000E+00  0.00000000000E+00  0.30922497771E+01  0.34027060825E+01  0.14200000000E+01 0. -1.
         -4   -1    0    0    0  501 -0.00000000000E+00 -0.00000000000E+00 -0.77675209309E+02  0.77688187913E+02  0.14200000000E+01 0.  1.
        -11    1    1    2    0    0  0.18176474214E+01 -0.14435836516E+02 -0.20863157445E+02  0.25435576598E+02  0.51100000000E-03 0. -1.
         11    1    1    2    0    0 -0.18176474214E+01  0.14435836516E+02 -0.53719802087E+02  0.55655317397E+02  0.51100000000E-03 0.  1.
<mgrwt>
<rscale>  0 0.31829471E+02</rscale>
<asrwt>0</asrwt>
<pdfrwt beam="1">  1        4 0.50061041E-03 0.31829471E+02</pdfrwt>
<pdfrwt beam="2">  1       -4 0.11974910E-01 0.31829471E+02</pdfrwt>
<totfact> 0.38393413E+05</totfact>
</mgrwt>
</event>
<event>
 4    1  0.5401488E-001  0.2203159E+02  0.7818608E-02  0.1707706E+00
          4   -1    0    0  501    0  0.00000000000E+00  0.00000000000E+00  0.10778065700E+02  0.10871205096E+02  0.14200000000E+01 0.  1.
         -4   -1    0    0    0  501 -0.00000000000E+00 -0.00000000000E+00 -0.11071646640E+02  0.11162336642E+02  0.14200000000E+01 0. -1.
        -11    1    1    2    0    0  0.19610441132E+01  0.10372849397E+02 -0.32944488125E+01  0.11058711130E+02  0.51100000000E-03 0. -1.
         11    1    1    2    0    0 -0.19610441132E+01 -0.10372849397E+02  0.30008678731E+01  0.10974830608E+02  0.51100000000E-03 0.  1.
<mgrwt>
<rscale>  0 0.22031586E+02</rscale>
<asrwt>0</asrwt>
<pdfrwt beam="1">  1        4 0.16723047E-02 0.22031586E+02</pdfrwt>
<pdfrwt beam="2">  1       -4 0.17174710E-02 0.22031586E+02</pdfrwt>
<totfact> 0.10548829E+06</totfact>
</mgrwt>
</event>
<event>
 4    1  0.5401488E-001  0.2692202E+02  0.7818608E-02  0.1634837E+00
          4   -1    0    0  501    0  0.00000000000E+00  0.00000000000E+00  0.11614247403E+02  0.11700732573E+02  0.14200000000E+01 0.  1.
         -4   -1    0    0    0  501 -0.00000000000E+00 -0.00000000000E+00 -0.15424334910E+02  0.15489561241E+02  0.14200000000E+01 0. -1.
        -11    1    1    2    0    0  0.68119259300E+01 -0.76882197937E+01  0.68815200089E+01  0.12363914282E+02  0.51100000000E-03 0.  1.
         11    1    1    2    0    0 -0.68119259300E+01  0.76882197937E+01 -0.10691607516E+02  0.14826379532E+02  0.51100000000E-03 0. -1.
<mgrwt>
<rscale>  0 0.26922023E+02</rscale>
<asrwt>0</asrwt>
<pdfrwt beam="1">  1        4 0.17984774E-02 0.26922023E+02</pdfrwt>
<pdfrwt beam="2">  1       -4 0.23846447E-02 0.26922023E+02</pdfrwt>
<totfact> 0.67002203E+05</totfact>
</mgrwt>
</event>
<event>
 4    1  0.5401488E-001  0.2915542E+02  0.7818608E-02  0.1607616E+00
         -4   -1    0    0    0  501 -0.00000000000E+00  0.00000000000E+00  0.30052710302E+02  0.30086239321E+02  0.14200000000E+01 0.  1.
          4   -1    0    0  501    0  0.00000000000E+00 -0.00000000000E+00 -0.69620487713E+01  0.71053869067E+01  0.14200000000E+01 0. -1.
        -11    1    1    2    0    0  0.11619342918E+02  0.86482792578E+01  0.94462494376E+01  0.17292584904E+02  0.51100000000E-03 0. -1.
         11    1    1    2    0    0 -0.11619342918E+02 -0.86482792578E+01  0.13644412093E+02  0.19899041324E+02  0.51100000000E-03 0.  1.
<mgrwt>
<rscale>  0 0.29155418E+02</rscale>
<asrwt>0</asrwt>
<pdfrwt beam="2">  1        4 0.10846896E-02 0.29155418E+02</pdfrwt>
<pdfrwt beam="1">  1       -4 0.46370991E-02 0.29155418E+02</pdfrwt>
<totfact> 0.54004194E+05</totfact>
</mgrwt>
</event>
<event>
 4    1  0.5401488E-001  0.3429446E+02  0.7818608E-02  0.1554957E+00
          4   -1    0    0  501    0  0.00000000000E+00  0.00000000000E+00  0.18129599500E+01  0.23028729405E+01  0.14200000000E+01 0.  1.
         -4   -1    0    0    0  501 -0.00000000000E+00 -0.00000000000E+00 -0.14238247050E+03  0.14238955125E+03  0.14200000000E+01 0. -1.
        -11    1    1    2    0    0  0.10862993908E+02  0.12681940985E+02 -0.53840300893E+02  0.56370331419E+02  0.51100000000E-03 0.  1.
         11    1    1    2    0    0 -0.10862993908E+02 -0.12681940985E+02 -0.86729209655E+02  0.88322092771E+02  0.51100000000E-03 0. -1.
<mgrwt>
<rscale>  0 0.34294465E+02</rscale>
<asrwt>0</asrwt>
<pdfrwt beam="1">  1        4 0.31714732E-03 0.34294465E+02</pdfrwt>
<pdfrwt beam="2">  1       -4 0.21943218E-01 0.34294465E+02</pdfrwt>
<totfact> 0.27401251E+05</totfact>
</mgrwt>
</event>
<event>
 4    1  0.5401488E-001  0.2160534E+02  0.7818608E-02  0.1715168E+00
         -4   -1    0    0    0  501 -0.00000000000E+00  0.00000000000E+00  0.81482290097E+02  0.81494662399E+02  0.14200000000E+01 0.  1.
          4   -1    0    0  501    0  0.00000000000E+00 -0.00000000000E+00 -0.10645961327E+01  0.17747577090E+01  0.14200000000E+01 0. -1.
        -11    1    1    2    0    0  0.99148322498E+01  0.32213662437E+01  0.29296462357E+02  0.31096041644E+02  0.51100000000E-03 0.  1.
         11    1    1    2    0    0 -0.99148322498E+01 -0.32213662437E+01  0.51121231608E+02  0.52173378464E+02  0.51100000000E-03 0. -1.
<mgrwt>
<rscale>  0 0.21605342E+02</rscale>
<asrwt>0</asrwt>
<pdfrwt beam="2">  1        4 0.21936351E-03 0.21605342E+02</pdfrwt>
<pdfrwt beam="1">  1       -4 0.12591319E-01 0.21605342E+02</pdfrwt>
<totfact> 0.88105434E+05</totfact>
</mgrwt>
</event>
<event>
 4    1  0.5401488E-001  0.3014624E+02  0.7818608E-02  0.1596478E+00
          4   -1    0    0  501    0  0.00000000000E+00  0.00000000000E+00  0.54765502993E+02  0.54783909299E+02  0.14200000000E+01 0. -1.
         -4   -1    0    0    0  501 -0.00000000000E+00 -0.00000000000E+00 -0.40073783134E+01  0.42515268959E+01  0.14200000000E+01 0.  1.
        -11    1    1    2    0    0  0.18049195365E+01  0.14787542919E+02  0.20883611023E+02  0.25652570432E+02  0.51100000000E-03 0.  1.
         11    1    1    2    0    0 -0.18049195365E+01 -0.14787542919E+02  0.29874513657E+02  0.33382865764E+02  0.51100000000E-03 0. -1.
<mgrwt>
<rscale>  0 0.30146235E+02</rscale>
<asrwt>0</asrwt>
<pdfrwt beam="1">  1        4 0.84456578E-02 0.30146235E+02</pdfrwt>
<pdfrwt beam="2">  1       -4 0.63671633E-03 0.30146235E+02</pdfrwt>
<totfact> 0.46456632E+05</totfact>
</mgrwt>
</event>
<event>
 4    1  0.5401488E-001  0.2371258E+02  0.7818608E-02  0.1680213E+00
          4   -1    0    0  501    0  0.00000000000E+00  0.00000000000E+00  0.13687378551E+02  0.13760840512E+02  0.14200000000E+01 0.  1.
         -4   -1    0    0    0  501 -0.00000000000E+00 -0.00000000000E+00 -0.10119506135E+02  0.10218649833E+02  0.14200000000E+01 0. -1.
        -11    1    1    2    0    0 -0.62213874256E+01  0.10025149365E+02  0.29642413746E+01  0.12165361009E+02  0.51100000000E-03 0.  1.
         11    1    1    2    0    0  0.62213874256E+01 -0.10025149365E+02  0.60363104158E+00  0.11814129336E+02  0.51100000000E-03 0. -1.
<mgrwt>
<rscale>  0 0.23712576E+02</rscale>
<asrwt>0</asrwt>
<pdfrwt beam="1">  1        4 0.21190279E-02 0.23712576E+02</pdfrwt>
<pdfrwt beam="2">  1       -4 0.15701245E-02 0.23712576E+02</pdfrwt>
<totfact> 0.89505064E+05</totfact>
</mgrwt>
</event>
<event>
 4    1  0.5401488E-001  0.2302827E+02  0.7818608E-02  0.1691052E+00
         -4   -1    0    0    0  501 -0.00000000000E+00  0.00000000000E+00  0.53441386244E+01  0.55295766237E+01  0.14200000000E+01 0. -1.
          4   -1    0    0  501    0  0.00000000000E+00 -0.00000000000E+00 -0.24177914129E+02  0.24219577446E+02  0.14200000000E+01 0.  1.
        -11    1    1    2    0    0  0.48175378427E+00  0.10970275009E+02 -0.49424748716E+01  0.12041888498E+02  0.51100000000E-03 0. -1.
         11    1    1    2    0    0 -0.48175378427E+00 -0.10970275009E+02 -0.13891300633E+02  0.17707265572E+02  0.51100000000E-03 0.  1.
<mgrwt>
<rscale>  0 0.23028267E+02</rscale>
<asrwt>0</asrwt>
<pdfrwt beam="2">  1        4 0.37371484E-02 0.23028267E+02</pdfrwt>
<pdfrwt beam="1">  1       -4 0.83964452E-03 0.23028267E+02</pdfrwt>
<totfact> 0.92995126E+05</totfact>
</mgrwt>
</event>
<event>
 4    1  0.5401488E-001  0.3186220E+02  0.7818608E-02  0.1578372E+00
         -4   -1    0    0    0  501 -0.00000000000E+00  0.00000000000E+00  0.14855394039E+02  0.14923107319E+02  0.14200000000E+01 0.  1.
          4   -1    0    0  501    0  0.00000000000E+00 -0.00000000000E+00 -0.16948376307E+02  0.17007758802E+02  0.14200000000E+01 0. -1.
        -11    1    1    2    0    0  0.77676328802E+01 -0.10331372127E+02 -0.10379270049E+02  0.16577171580E+02  0.51100000000E-03 0. -1.
         11    1    1    2    0    0 -0.77676328802E+01  0.10331372127E+02  0.82862877808E+01  0.15353694540E+02  0.51100000000E-03 0.  1.
<mgrwt>
<rscale>  0 0.31862198E+02</rscale>
<asrwt>0</asrwt>
<pdfrwt beam="2">  1        4 0.26172191E-02 0.31862198E+02</pdfrwt>
<pdfrwt beam="1">  1       -4 0.22952218E-02 0.31862198E+02</pdfrwt>
<totfact> 0.45025739E+05</totfact>
</mgrwt>
</event>
<event>
 4    1  0.5401488E-001  0.2742507E+03  0.7818608E-02  0.1098871E+00
         -4   -1    0    0    0  501 -0.00000000000E+00  0.00000000000E+00  0.70251445369E+02  0.70265795209E+02  0.14200000000E+01 0.  1.
          4   -1    0    0  501    0  0.00000000000E+00 -0.00000000000E+00 -0.26761445215E+03  0.26761821948E+03  0.14200000000E+01 0. -1.
        -11    1    1    2    0    0  0.95475341153E+02  0.47524511916E+02  0.75105850863E+01  0.10691365156E+03  0.51100000000E-03 0.  1.
         11    1    1    2    0    0 -0.95475341153E+02 -0.47524511916E+02 -0.20487359186E+03  0.23097036313E+03  0.51100000000E-03 0. -1.
<mgrwt>
<rscale>  0 0.27425071E+03</rscale>
<asrwt>0</asrwt>
<pdfrwt beam="2">  1        4 0.41172847E-01 0.27425071E+03</pdfrwt>
<pdfrwt beam="1">  1       -4 0.10809308E-01 0.27425071E+03</pdfrwt>
<totfact> 0.71547783E+02</totfact>
</mgrwt>
</event>
<event>
 4    1  0.5401488E-001  0.3199520E+02  0.7818608E-02  0.1577027E+00
          4   -1    0    0  501    0  0.00000000000E+00  0.00000000000E+00  0.28045410545E+02  0.28081336376E+02  0.14200000000E+01 0. -1.
         -4   -1    0    0    0  501 -0.00000000000E+00 -0.00000000000E+00 -0.90280185282E+01  0.91390108078E+01  0.14200000000E+01 0.  1.
        -11    1    1    2    0    0  0.32245665471E+00  0.15723958007E+02  0.61018794406E+01  0.16869492188E+02  0.51100000000E-03 0. -1.
         11    1    1    2    0    0 -0.32245665471E+00 -0.15723958007E+02  0.12915512577E+02  0.20350854996E+02  0.51100000000E-03 0.  1.
<mgrwt>
<rscale>  0 0.31995203E+02</rscale>
<asrwt>0</asrwt>
<pdfrwt beam="1">  1        4 0.43259800E-02 0.31995203E+02</pdfrwt>
<pdfrwt beam="2">  1       -4 0.14002273E-02 0.31995203E+02</pdfrwt>
<totfact> 0.43736011E+05</totfact>
</mgrwt>
</event>
<event>
 4    1  0.5401488E-001  0.2616705E+02  0.7818608E-02  0.1644784E+00
         -4   -1    0    0    0  501 -0.00000000000E+00  0.00000000000E+00  0.80097119187E+01  0.81346103177E+01  0.14200000000E+01 0. -1.
          4   -1    0    0  501    0  0.00000000000E+00 -0.00000000000E+00 -0.21057050295E+02  0.21104875435E+02  0.14200000000E+01 0.  1.
        -11    1    1    2    0    0  0.81007236171E+01 -0.62612220579E+01  0.25785757083E+01  0.10558109572E+02  0.51100000000E-03 0. -1.
         11    1    1    2    0    0 -0.81007236171E+01  0.62612220579E+01 -0.15625914085E+02  0.18681376181E+02  0.51100000000E-03 0.  1.
<mgrwt>
<rscale>  0 0.26167050E+02</rscale>
<asrwt>0</asrwt>
<pdfrwt beam="2">  1        4 0.32528326E-02 0.26167050E+02</pdfrwt>
<pdfrwt beam="1">  1       -4 0.12455498E-02 0.26167050E+02</pdfrwt>
<totfact> 0.70745570E+05</totfact>
</mgrwt>
</event>
<event>
 4    1  0.5401488E-001  0.3698408E+02  0.7818608E-02  0.1531656E+00
          4   -1    0    0  501    0  0.00000000000E+00  0.00000000000E+00  0.11548934864E+03  0.11549807812E+03  0.14200000000E+01 0.  1.
         -4   -1    0    0    0  501 -0.00000000000E+00 -0.00000000000E+00 -0.27813183778E+01  0.31228403608E+01  0.14200000000E+01 0. -1.
        -11    1    1    2    0    0 -0.15351969629E+02  0.48882086318E+01  0.85464676600E+02  0.86970043703E+02  0.51100000000E-03 0.  1.
         11    1    1    2    0    0  0.15351969629E+02 -0.48882086318E+01  0.27243353659E+02  0.31650874774E+02  0.51100000000E-03 0. -1.
<mgrwt>
<rscale>  0 0.36984081E+02</rscale>
<asrwt>0</asrwt>
<pdfrwt beam="1">  1        4 0.17794535E-01 0.36984081E+02</pdfrwt>
<pdfrwt beam="2">  1       -4 0.45483754E-03 0.36984081E+02</pdfrwt>
<totfact> 0.24567721E+05</totfact>
</mgrwt>
</event>
<event>
 4    1  0.5401488E-001  0.2554154E+02  0.7818608E-02  0.1653343E+00
         -4   -1    0    0    0  501 -0.00000000000E+00  0.00000000000E+00  0.13473336597E+02  0.13547959221E+02  0.14200000000E+01 0. -1.
          4   -1    0    0  501    0  0.00000000000E+00 -0.00000000000E+00 -0.11954654947E+02  0.12038694900E+02  0.14200000000E+01 0.  1.
        -11    1    1    2    0    0  0.10094272724E+02  0.14723049129E+01 -0.69373657449E+01  0.12336493316E+02  0.51100000000E-03 0.  1.
         11    1    1    2    0    0 -0.10094272724E+02 -0.14723049129E+01  0.84560473950E+01  0.13250160806E+02  0.51100000000E-03 0. -1.
<mgrwt>
<rscale>  0 0.25541544E+02</rscale>
<asrwt>0</asrwt>
<pdfrwt beam="2">  1        4 0.18513825E-02 0.25541544E+02</pdfrwt>
<pdfrwt beam="1">  1       -4 0.20850258E-02 0.25541544E+02</pdfrwt>
<totfact> 0.75708282E+05</totfact>
</mgrwt>
</event>
<event>
 4    1  0.5401488E-001  0.3148314E+02  0.7818608E-02  0.1582250E+00
         -4   -1    0    0    0  501 -0.00000000000E+00  0.00000000000E+00  0.22724325796E+02  0.22768649123E+02  0.14200000000E+01 0. -1.
          4   -1    0    0  501    0  0.00000000000E+00 -0.00000000000E+00 -0.10803028877E+02  0.10895954888E+02  0.14200000000E+01 0.  1.
        -11    1    1    2    0    0 -0.15209969378E+02 -0.33232261181E+01  0.84477670082E+01  0.17713039491E+02  0.51100000000E-03 0. -1.
         11    1    1    2    0    0  0.15209969378E+02  0.33232261181E+01  0.34735299109E+01  0.15951564520E+02  0.51100000000E-03 0.  1.
<mgrwt>
<rscale>  0 0.31483142E+02</rscale>
<asrwt>0</asrwt>
<pdfrwt beam="2">  1        4 0.16725621E-02 0.31483142E+02</pdfrwt>
<pdfrwt beam="1">  1       -4 0.35066078E-02 0.31483142E+02</pdfrwt>
<totfact> 0.45976544E+05</totfact>
</mgrwt>
</event>
<event>
 4    1  0.5401488E-001  0.6753581E+02  0.7818608E-02  0.1368679E+00
          4   -1    0    0  501    0  0.00000000000E+00  0.00000000000E+00  0.11721748585E+02  0.11807446374E+02  0.14200000000E+01 0.  1.
         -4   -1    0    0    0  501 -0.00000000000E+00 -0.00000000000E+00 -0.96833053212E+02  0.96843464387E+02  0.14200000000E+01 0. -1.
        -11    1    1    2    0    0  0.14864868512E+02 -0.62396441235E+01  0.51789000352E+01  0.16932763522E+02  0.51100000000E-03 0.  1.
         11    1    1    2    0    0 -0.14864868512E+02  0.62396441235E+01 -0.90290204663E+02  0.91718147239E+02  0.51100000000E-03 0. -1.
<mgrwt>
<rscale>  0 0.67535814E+02</rscale>
<asrwt>0</asrwt>
<pdfrwt beam="1">  1        4 0.18107390E-02 0.67535814E+02</pdfrwt>
<pdfrwt beam="2">  1       -4 0.14904785E-01 0.67535814E+02</pdfrwt>
<totfact> 0.57361597E+04</totfact>
</mgrwt>
</event>
<event>
 4    1  0.5401488E-001  0.2962212E+02  0.7818608E-02  0.1602304E+00
          4   -1    0    0  501    0  0.00000000000E+00  0.00000000000E+00  0.99499106885E+01  0.10050727472E+02  0.14200000000E+01 0. -1.
         -4   -1    0    0    0  501 -0.00000000000E+00 -0.00000000000E+00 -0.21812025065E+02  0.21858198403E+02  0.14200000000E+01 0.  1.
        -11    1    1    2    0    0  0.53477469022E+01  0.93461027120E+01 -0.16885672633E+02  0.20026831336E+02  0.51100000000E-03 0.  1.
         11    1    1    2    0    0 -0.53477469022E+01 -0.93461027120E+01  0.50235582558E+01  0.11882094539E+02  0.51100000000E-03 0. -1.
<mgrwt>
<rscale>  0 0.29622117E+02</rscale>
<asrwt>0</asrwt>
<pdfrwt beam="1">  1        4 0.15420624E-02 0.29622117E+02</pdfrwt>
<pdfrwt beam="2">  1       -4 0.33670031E-02 0.29622117E+02</pdfrwt>
<totfact> 0.53156245E+05</totfact>
</mgrwt>
</event>
<event>
 4    1  0.5401488E-001  0.3175460E+02  0.7818608E-02  0.1579466E+00
         -4   -1    0    0    0  501 -0.00000000000E+00  0.00000000000E+00  0.30075877028E+02  0.30109380249E+02  0.14200000000E+01 0. -1.
          4   -1    0    0  501    0  0.00000000000E+00 -0.00000000000E+00 -0.82831374032E+01  0.84039731818E+01  0.14200000000E+01 0.  1.
        -11    1    1    2    0    0 -0.21893446383E+01  0.99249491926E+01 -0.38978743219E+01  0.10885369581E+02  0.51100000000E-03 0.  1.
         11    1    1    2    0    0  0.21893446383E+01 -0.99249491926E+01  0.25690613946E+02  0.27627983850E+02  0.51100000000E-03 0. -1.
<mgrwt>
<rscale>  0 0.31754604E+02</rscale>
<asrwt>0</asrwt>
<pdfrwt beam="2">  1        4 0.12862010E-02 0.31754604E+02</pdfrwt>
<pdfrwt beam="1">  1       -4 0.46389303E-02 0.31754604E+02</pdfrwt>
<totfact> 0.44289736E+05</totfact>
</mgrwt>
</event>
<event>
 4    1  0.5401488E-001  0.3421089E+02  0.7818608E-02  0.1555722E+00
         -4   -1    0    0    0  501 -0.00000000000E+00  0.00000000000E+00  0.36265122053E+02  0.36292912222E+02  0.14200000000E+01 0. -1.
          4   -1    0    0  501    0  0.00000000000E+00 -0.00000000000E+00 -0.79746307140E+01  0.81000700630E+01  0.14200000000E+01 0.  1.
        -11    1    1    2    0    0  0.82936687630E+01  0.14364058305E+02  0.87191880648E+01  0.18738605959E+02  0.51100000000E-03 0.  1.
         11    1    1    2    0    0 -0.82936687630E+01 -0.14364058305E+02  0.19571303274E+02  0.25654376325E+02  0.51100000000E-03 0. -1.
<mgrwt>
<rscale>  0 0.34210890E+02</rscale>
<asrwt>0</asrwt>
<pdfrwt beam="2">  1        4 0.12386531E-02 0.34210890E+02</pdfrwt>
<pdfrwt beam="1">  1       -4 0.55910365E-02 0.34210890E+02</pdfrwt>
<totfact> 0.36553137E+05</totfact>
</mgrwt>
</event>
<event>
 4    1  0.5401488E-001  0.3111213E+02  0.7818608E-02  0.1586111E+00
          4   -1    0    0  501    0  0.00000000000E+00  0.00000000000E+00  0.30728273732E+01  0.33850654447E+01  0.14200000000E+01 0. -1.
         -4   -1    0    0    0  501 -0.00000000000E+00 -0.00000000000E+00 -0.74624975386E+02  0.74638484386E+02  0.14200000000E+01 0.  1.
        -11    1    1    2    0    0 -0.52427224270E+01 -0.14214505874E+02 -0.44625791734E+02  0.47127482469E+02  0.51100000000E-03 0.  1.
         11    1    1    2    0    0  0.52427224270E+01  0.14214505874E+02 -0.26926356279E+02  0.30896067361E+02  0.51100000000E-03 0. -1.
<mgrwt>
<rscale>  0 0.31112127E+02</rscale>
<asrwt>0</asrwt>
<pdfrwt beam="1">  1        4 0.49780020E-03 0.31112127E+02</pdfrwt>
<pdfrwt beam="2">  1       -4 0.11505822E-01 0.31112127E+02</pdfrwt>
<totfact> 0.40790890E+05</totfact>
</mgrwt>
</event>
<event>
 4    1  0.5401488E-001  0.4096631E+02  0.7818608E-02  0.1501218E+00
         -4   -1    0    0    0  501 -0.00000000000E+00  0.00000000000E+00  0.80860720874E+01  0.82098088774E+01  0.14200000000E+01 0.  1.
          4   -1    0    0  501    0  0.00000000000E+00 -0.00000000000E+00 -0.51359102718E+02  0.51378729373E+02  0.14200000000E+01 0. -1.
        -11    1    1    2    0    0 -0.11083301669E+02 -0.11181306805E+02 -0.40696348253E+02  0.43635466757E+02  0.51100000000E-03 0. -1.
         11    1    1    2    0    0  0.11083301669E+02  0.11181306805E+02 -0.25766823782E+01  0.15953071494E+02  0.51100000000E-03 0.  1.
<mgrwt>
<rscale>  0 0.40966312E+02</rscale>
<asrwt>0</asrwt>
<pdfrwt beam="2">  1        4 0.79124282E-02 0.40966312E+02</pdfrwt>
<pdfrwt beam="1">  1       -4 0.12550391E-02 0.40966312E+02</pdfrwt>
<totfact> 0.22759912E+05</totfact>
</mgrwt>
</event>
<event>
 4    1  0.5401488E-001  0.9525333E+02  0.7818608E-02  0.1290607E+00
         -4   -1    0    0    0  501 -0.00000000000E+00  0.00000000000E+00  0.17376487304E+03  0.17377067503E+03  0.14200000000E+01 0.  1.
          4   -1    0    0  501    0  0.00000000000E+00 -0.00000000000E+00 -0.13009186115E+02  0.13086455722E+02  0.14200000000E+01 0. -1.
        -11    1    1    2    0    0  0.39750344496E+02  0.55057969493E+01  0.30061629990E+02  0.50140854456E+02  0.51100000000E-03 0. -1.
         11    1    1    2    0    0 -0.39750344496E+02 -0.55057969493E+01  0.13069405693E+03  0.13671627630E+03  0.51100000000E-03 0.  1.
<mgrwt>
<rscale>  0 0.95253328E+02</rscale>
<asrwt>0</asrwt>
<pdfrwt beam="2">  1        4 0.20078035E-02 0.95253328E+02</pdfrwt>
<pdfrwt beam="1">  1       -4 0.26739446E-01 0.95253328E+02</pdfrwt>
<totfact> 0.19509666E+04</totfact>
</mgrwt>
</event>
<event>
 4    1  0.5401488E-001  0.3877723E+02  0.7818608E-02  0.1517407E+00
         -4   -1    0    0    0  501 -0.00000000000E+00  0.00000000000E+00  0.28210550561E+01  0.31582830193E+01  0.14200000000E+01 0. -1.
          4   -1    0    0  501    0  0.00000000000E+00 -0.00000000000E+00 -0.12539764922E+03  0.12540568898E+03  0.14200000000E+01 0.  1.
        -11    1    1    2    0    0 -0.85171483925E+01 -0.17408791732E+02 -0.59440789069E+02  0.62520518646E+02  0.51100000000E-03 0.  1.
         11    1    1    2    0    0  0.85171483925E+01  0.17408791732E+02 -0.63135805092E+02  0.66043453356E+02  0.51100000000E-03 0. -1.
<mgrwt>
<rscale>  0 0.38777229E+02</rscale>
<asrwt>0</asrwt>
<pdfrwt beam="2">  1        4 0.19318501E-01 0.38777229E+02</pdfrwt>
<pdfrwt beam="1">  1       -4 0.46056762E-03 0.38777229E+02</pdfrwt>
<totfact> 0.21455116E+05</totfact>
</mgrwt>
</event>
<event>
 4    1  0.5401488E-001  0.3670810E+02  0.7818608E-02  0.1533935E+00
          4   -1    0    0  501    0  0.00000000000E+00  0.00000000000E+00  0.37038930108E+01  0.39667648576E+01  0.14200000000E+01 0. -1.
         -4   -1    0    0    0  501 -0.00000000000E+00 -0.00000000000E+00 -0.87564856861E+02  0.87576369855E+02  0.14200000000E+01 0.  1.
        -11    1    1    2    0    0 -0.17276672185E+02 -0.61370064366E+01 -0.39807349200E+02  0.43826604938E+02  0.51100000000E-03 0. -1.
         11    1    1    2    0    0  0.17276672185E+02  0.61370064366E+01 -0.44053614650E+02  0.47716529775E+02  0.51100000000E-03 0.  1.
<mgrwt>
<rscale>  0 0.36708095E+02</rscale>
<asrwt>0</asrwt>
<pdfrwt beam="1">  1        4 0.59093629E-03 0.36708095E+02</pdfrwt>
<pdfrwt beam="2">  1       -4 0.13492621E-01 0.36708095E+02</pdfrwt>
<totfact> 0.26865176E+05</totfact>
</mgrwt>
</event>
<event>
 4    1  0.5401488E-001  0.4502857E+02  0.7818608E-02  0.1474163E+00
         -4   -1    0    0    0  501 -0.00000000000E+00  0.00000000000E+00  0.27881287190E+02  0.27917424225E+02  0.14200000000E+01 0.  1.
          4   -1    0    0  501    0  0.00000000000E+00 -0.00000000000E+00 -0.18104668621E+02  0.18160270535E+02  0.14200000000E+01 0. -1.
        -11    1    1    2    0    0 -0.11995113328E+02 -0.94610606659E+01  0.21811416873E+02  0.26629538467E+02  0.51100000000E-03 0.  1.
         11    1    1    2    0    0  0.11995113328E+02  0.94610606659E+01 -0.12034798305E+02  0.19448156293E+02  0.51100000000E-03 0. -1.
<mgrwt>
<rscale>  0 0.45028565E+02</rscale>
<asrwt>0</asrwt>
<pdfrwt beam="2">  1        4 0.27923905E-02 0.45028565E+02</pdfrwt>
<pdfrwt beam="1">  1       -4 0.42964856E-02 0.45028565E+02</pdfrwt>
<totfact> 0.18896850E+05</totfact>
</mgrwt>
</event>
<event>
 4    1  0.5401488E-001  0.4884844E+02  0.7818608E-02  0.1451654E+00
         -4   -1    0    0    0  501 -0.00000000000E+00  0.00000000000E+00  0.15483703634E+03  0.15484354757E+03  0.14200000000E+01 0. -1.
          4   -1    0    0  501    0  0.00000000000E+00 -0.00000000000E+00 -0.37150493662E+01  0.39771839024E+01  0.14200000000E+01 0.  1.
        -11    1    1    2    0    0 -0.20459079463E+02  0.69978273185E+01  0.38633521903E+02  0.44272932301E+02  0.51100000000E-03 0.  1.
         11    1    1    2    0    0  0.20459079463E+02 -0.69978273185E+01  0.11248846507E+03  0.11454779917E+03  0.51100000000E-03 0. -1.
<mgrwt>
<rscale>  0 0.48848437E+02</rscale>
<asrwt>0</asrwt>
<pdfrwt beam="2">  1        4 0.59221107E-03 0.48848437E+02</pdfrwt>
<pdfrwt beam="1">  1       -4 0.23841749E-01 0.48848437E+02</pdfrwt>
<totfact> 0.11507467E+05</totfact>
</mgrwt>
</event>
<event>
 4    1  0.5401488E-001  0.5997690E+02  0.7818608E-02  0.1397929E+00
         -4   -1    0    0    0  501 -0.00000000000E+00  0.00000000000E+00  0.36688173878E+01  0.39340336837E+01  0.14200000000E+01 0. -1.
          4   -1    0    0  501    0  0.00000000000E+00 -0.00000000000E+00 -0.23630360296E+03  0.23630786946E+03  0.14200000000E+01 0.  1.
        -11    1    1    2    0    0  0.26110210159E+02 -0.13970513775E+02 -0.13527049370E+03  0.13847391377E+03  0.51100000000E-03 0.  1.
         11    1    1    2    0    0 -0.26110210159E+02  0.13970513775E+02 -0.97364291869E+02  0.10176798937E+03  0.51100000000E-03 0. -1.
<mgrwt>
<rscale>  0 0.59976900E+02</rscale>
<asrwt>0</asrwt>
<pdfrwt beam="2">  1        4 0.36375118E-01 0.59976900E+02</pdfrwt>
<pdfrwt beam="1">  1       -4 0.58516307E-03 0.59976900E+02</pdfrwt>
<totfact> 0.58556252E+04</totfact>
</mgrwt>
</event>
<event>
 4    1  0.5401488E-001  0.2042422E+02  0.7818608E-02  0.1737021E+00
         -4   -1    0    0    0  501 -0.00000000000E+00  0.00000000000E+00  0.10500781055E+02  0.10596357995E+02  0.14200000000E+01 0.  1.
          4   -1    0    0  501    0  0.00000000000E+00 -0.00000000000E+00 -0.97390801948E+01  0.98420568502E+01  0.14200000000E+01 0. -1.
        -11    1    1    2    0    0 -0.76791199336E+01  0.66811126357E+01  0.12066537981E+01  0.10249983544E+02  0.51100000000E-03 0. -1.
         11    1    1    2    0    0  0.76791199336E+01 -0.66811126357E+01 -0.44495293792E+00  0.10188431301E+02  0.51100000000E-03 0.  1.
<mgrwt>
<rscale>  0 0.20424216E+02</rscale>
<asrwt>0</asrwt>
<pdfrwt beam="2">  1        4 0.15135934E-02 0.20424216E+02</pdfrwt>
<pdfrwt beam="1">  1       -4 0.16307781E-02 0.20424216E+02</pdfrwt>
<totfact> 0.12440528E+06</totfact>
</mgrwt>
</event>
<event>
 4    1  0.5401488E-001  0.2631069E+02  0.7818608E-02  0.1642860E+00
          4   -1    0    0  501    0  0.00000000000E+00  0.00000000000E+00  0.29135357584E+02  0.29169941062E+02  0.14200000000E+01 0.  1.
         -4   -1    0    0    0  501 -0.00000000000E+00 -0.00000000000E+00 -0.58163979113E+01  0.59872267923E+01  0.14200000000E+01 0. -1.
        -11    1    1    2    0    0 -0.12432727016E+02 -0.41697871466E+01  0.10255917577E+02  0.16647632610E+02  0.51100000000E-03 0.  1.
         11    1    1    2    0    0  0.12432727016E+02  0.41697871466E+01  0.13063042096E+02  0.18509535244E+02  0.51100000000E-03 0. -1.
<mgrwt>
<rscale>  0 0.26310693E+02</rscale>
<asrwt>0</asrwt>
<pdfrwt beam="1">  1        4 0.44981636E-02 0.26310693E+02</pdfrwt>
<pdfrwt beam="2">  1       -4 0.91063141E-03 0.26310693E+02</pdfrwt>
<totfact> 0.68305268E+05</totfact>
</mgrwt>
</event>
<event>
 4    1  0.5401488E-001  0.2345521E+02  0.7818608E-02  0.1684236E+00
         -4   -1    0    0    0  501 -0.00000000000E+00  0.00000000000E+00  0.17008408383E+02  0.17067582012E+02  0.14200000000E+01 0. -1.
          4   -1    0    0  501    0  0.00000000000E+00 -0.00000000000E+00 -0.79501582674E+01  0.80759777413E+01  0.14200000000E+01 0.  1.
        -11    1    1    2    0    0  0.10718946473E+02  0.47390627850E+01  0.40716189452E+01  0.12406958155E+02  0.51100000000E-03 0.  1.
         11    1    1    2    0    0 -0.10718946473E+02 -0.47390627850E+01  0.49866311706E+01  0.12736601598E+02  0.51100000000E-03 0. -1.
<mgrwt>
<rscale>  0 0.23455206E+02</rscale>
<asrwt>0</asrwt>
<pdfrwt beam="2">  1        4 0.12373315E-02 0.23455206E+02</pdfrwt>
<pdfrwt beam="1">  1       -4 0.26309084E-02 0.23455206E+02</pdfrwt>
<totfact> 0.91162971E+05</totfact>
</mgrwt>
</event>
<event>
 4    1  0.5401488E-001  0.3735477E+02  0.7818608E-02  0.1528632E+00
         -4   -1    0    0    0  501 -0.00000000000E+00  0.00000000000E+00  0.58303526187E+02  0.58320815888E+02  0.14200000000E+01 0. -1.
          4   -1    0    0  501    0  0.00000000000E+00 -0.00000000000E+00 -0.58805528142E+01  0.60495703484E+01  0.14200000000E+01 0.  1.
        -11    1    1    2    0    0  0.11992576191E+02 -0.21985908119E+01  0.18300024843E+01  0.12329014340E+02  0.51100000000E-03 0.  1.
         11    1    1    2    0    0 -0.11992576191E+02  0.21985908119E+01  0.50592970889E+02  0.52041371896E+02  0.51100000000E-03 0. -1.
<mgrwt>
<rscale>  0 0.37354765E+02</rscale>
<asrwt>0</asrwt>
<pdfrwt beam="2">  1        4 0.91903176E-03 0.37354765E+02</pdfrwt>
<pdfrwt beam="1">  1       -4 0.89841045E-02 0.37354765E+02</pdfrwt>
<totfact> 0.27911760E+05</totfact>
</mgrwt>
</event>
<event>
 4    1  0.5401488E-001  0.4622583E+02  0.7818608E-02  0.1466831E+00
          4   -1    0    0  501    0  0.00000000000E+00  0.00000000000E+00  0.13664138061E+02  0.13737724300E+02  0.14200000000E+01 0.  1.
         -4   -1    0    0    0  501 -0.00000000000E+00 -0.00000000000E+00 -0.38903980892E+02  0.38929887352E+02  0.14200000000E+01 0. -1.
        -11    1    1    2    0    0 -0.54981351179E+01  0.92762774456E+01  0.10672233136E+02  0.15171531676E+02  0.51100000000E-03 0.  1.
         11    1    1    2    0    0  0.54981351179E+01 -0.92762774456E+01 -0.35912075968E+02  0.37496079976E+02  0.51100000000E-03 0. -1.
<mgrwt>
<rscale>  0 0.46225833E+02</rscale>
<asrwt>0</asrwt>
<pdfrwt beam="1">  1        4 0.21098284E-02 0.46225833E+02</pdfrwt>
<pdfrwt beam="2">  1       -4 0.59928811E-02 0.46225833E+02</pdfrwt>
<totfact> 0.17354516E+05</totfact>
</mgrwt>
</event>
<event>
 4    1  0.5401488E-001  0.5742155E+02  0.7818608E-02  0.1408982E+00
          4   -1    0    0  501    0  0.00000000000E+00  0.00000000000E+00  0.81488485991E+01  0.82716463592E+01  0.14200000000E+01 0. -1.
         -4   -1    0    0    0  501 -0.00000000000E+00 -0.00000000000E+00 -0.10027210267E+03  0.10028215681E+03  0.14200000000E+01 0.  1.
        -11    1    1    2    0    0  0.23363481547E+02  0.11959619693E+02 -0.24061883410E+02  0.35607007831E+02  0.51100000000E-03 0. -1.
         11    1    1    2    0    0 -0.23363481547E+02 -0.11959619693E+02 -0.68061370664E+02  0.72946795338E+02  0.51100000000E-03 0.  1.
<mgrwt>
<rscale>  0 0.57421549E+02</rscale>
<asrwt>0</asrwt>
<pdfrwt beam="1">  1        4 0.12638885E-02 0.57421549E+02</pdfrwt>
<pdfrwt beam="2">  1       -4 0.15436696E-01 0.57421549E+02</pdfrwt>
<totfact> 0.86802226E+04</totfact>
</mgrwt>
</event>
<event>
 4    1  0.5401488E-001  0.3778051E+02  0.7818608E-02  0.1525210E+00
         -4   -1    0    0    0  501 -0.00000000000E+00  0.00000000000E+00  0.84987867865E+01  0.86165989139E+01  0.14200000000E+01 0.  1.
          4   -1    0    0  501    0  0.00000000000E+00 -0.00000000000E+00 -0.41568348510E+02  0.41592595469E+02  0.14200000000E+01 0. -1.
        -11    1    1    2    0    0 -0.63116468498E+01 -0.84368539754E+01 -0.37371431228E+02  0.38828356433E+02  0.51100000000E-03 0. -1.
         11    1    1    2    0    0  0.63116468498E+01  0.84368539754E+01  0.43018695045E+01  0.11380837950E+02  0.51100000000E-03 0.  1.
<mgrwt>
<rscale>  0 0.37780515E+02</rscale>
<asrwt>0</asrwt>
<pdfrwt beam="2">  1        4 0.64060580E-02 0.37780515E+02</pdfrwt>
<pdfrwt beam="1">  1       -4 0.13184333E-02 0.37780515E+02</pdfrwt>
<totfact> 0.28420811E+05</totfact>
</mgrwt>
</event>
<event>
 4    1  0.5401488E-001  0.3289859E+02  0.7818608E-02  0.1568095E+00
          4   -1    0    0  501    0  0.00000000000E+00  0.00000000000E+00  0.28009131847E+01  0.31403048687E+01  0.14200000000E+01 0.  1.
         -4   -1    0    0    0  501 -0.00000000000E+00 -0.00000000000E+00 -0.90740187838E+02  0.90751298001E+02  0.14200000000E+01 0. -1.
        -11    1    1    2    0    0  0.13215302188E+02 -0.97932951495E+01 -0.44433560424E+02  0.47380313781E+02  0.51100000000E-03 0. -1.
         11    1    1    2    0    0 -0.13215302188E+02  0.97932951495E+01 -0.43505714230E+02  0.46511289089E+02  0.51100000000E-03 0.  1.
<mgrwt>
<rscale>  0 0.32898588E+02</rscale>
<asrwt>0</asrwt>
<pdfrwt beam="1">  1        4 0.45787147E-03 0.32898588E+02</pdfrwt>
<pdfrwt beam="2">  1       -4 0.13986988E-01 0.32898588E+02</pdfrwt>
<totfact> 0.34340430E+05</totfact>
</mgrwt>
</event>
<event>
 4    1  0.5401488E-001  0.2615757E+02  0.7818608E-02  0.1644911E+00
         -4   -1    0    0    0  501 -0.00000000000E+00  0.00000000000E+00  0.71129626009E+01  0.72533190308E+01  0.14200000000E+01 0. -1.
          4   -1    0    0  501    0  0.00000000000E+00 -0.00000000000E+00 -0.23651483354E+02  0.23694072356E+02  0.14200000000E+01 0.  1.
        -11    1    1    2    0    0  0.11724302114E+02  0.18156944856E+01 -0.17569085749E+01  0.11993445482E+02  0.51100000000E-03 0. -1.
         11    1    1    2    0    0 -0.11724302114E+02 -0.18156944856E+01 -0.14781612178E+02  0.18953945905E+02  0.51100000000E-03 0.  1.
<mgrwt>
<rscale>  0 0.26157568E+02</rscale>
<asrwt>0</asrwt>
<pdfrwt beam="2">  1        4 0.36527624E-02 0.26157568E+02</pdfrwt>
<pdfrwt beam="1">  1       -4 0.11083747E-02 0.26157568E+02</pdfrwt>
<totfact> 0.70323376E+05</totfact>
</mgrwt>
</event>
<event>
 4    1  0.5401488E-001  0.3364626E+02  0.7818608E-02  0.1560961E+00
         -4   -1    0    0    0  501 -0.00000000000E+00  0.00000000000E+00  0.16143393252E+02  0.16205725707E+02  0.14200000000E+01 0.  1.
          4   -1    0    0  501    0  0.00000000000E+00 -0.00000000000E+00 -0.17406408546E+02  0.17464233693E+02  0.14200000000E+01 0. -1.
        -11    1    1    2    0    0 -0.11226462686E+02 -0.11942113472E+02  0.31619669920E+01  0.16692680256E+02  0.51100000000E-03 0.  1.
         11    1    1    2    0    0  0.11226462686E+02  0.11942113472E+02 -0.44249822864E+01  0.16977279143E+02  0.51100000000E-03 0. -1.
<mgrwt>
<rscale>  0 0.33646262E+02</rscale>
<asrwt>0</asrwt>
<pdfrwt beam="2">  1        4 0.26871519E-02 0.33646262E+02</pdfrwt>
<pdfrwt beam="1">  1       -4 0.24928419E-02 0.33646262E+02</pdfrwt>
<totfact> 0.39461224E+05</totfact>
</mgrwt>
</event>
<event>
 4    1  0.5401488E-001  0.2480961E+02  0.7818608E-02  0.1663752E+00
         -4   -1    0    0    0  501 -0.00000000000E+00  0.00000000000E+00  0.33583720339E+02  0.33613727431E+02  0.14200000000E+01 0. -1.
          4   -1    0    0  501    0  0.00000000000E+00 -0.00000000000E+00 -0.44390602014E+01  0.46606496835E+01  0.14200000000E+01 0.  1.
        -11    1    1    2    0    0 -0.81891262165E+01  0.86883700262E+01  0.19765061656E+02  0.23091280268E+02  0.51100000000E-03 0.  1.
         11    1    1    2    0    0  0.81891262165E+01 -0.86883700262E+01  0.93795984814E+01  0.15183096846E+02  0.51100000000E-03 0. -1.
<mgrwt>
<rscale>  0 0.24809610E+02</rscale>
<asrwt>0</asrwt>
<pdfrwt beam="2">  1        4 0.70228592E-03 0.24809610E+02</pdfrwt>
<pdfrwt beam="1">  1       -4 0.51860798E-02 0.24809610E+02</pdfrwt>
<totfact> 0.76702404E+05</totfact>
</mgrwt>
</event>
<event>
 4    1  0.5401488E-001  0.2537873E+02  0.7818608E-02  0.1655621E+00
         -4   -1    0    0    0  501 -0.00000000000E+00  0.00000000000E+00  0.29798240407E+01  0.33008712961E+01  0.14200000000E+01 0. -1.
          4   -1    0    0  501    0  0.00000000000E+00 -0.00000000000E+00 -0.50943120803E+02  0.50962907659E+02  0.14200000000E+01 0.  1.
        -11    1    1    2    0    0  0.12206223029E+02  0.33632371522E+01 -0.25791803121E+02  0.28731869992E+02  0.51100000000E-03 0.  1.
         11    1    1    2    0    0 -0.12206223029E+02 -0.33632371522E+01 -0.22171493641E+02  0.25531908963E+02  0.51100000000E-03 0. -1.
<mgrwt>
<rscale>  0 0.25378729E+02</rscale>
<asrwt>0</asrwt>
<pdfrwt beam="2">  1        4 0.78636206E-02 0.25378729E+02</pdfrwt>
<pdfrwt beam="1">  1       -4 0.48465251E-03 0.25378729E+02</pdfrwt>
<totfact> 0.68956700E+05</totfact>
</mgrwt>
</event>
<event>
 4    1  0.5401488E-001  0.2328945E+02  0.7818608E-02  0.1686861E+00
          4   -1    0    0  501    0  0.00000000000E+00  0.00000000000E+00  0.26066891297E+02  0.26105540061E+02  0.14200000000E+01 0. -1.
         -4   -1    0    0    0  501 -0.00000000000E+00 -0.00000000000E+00 -0.50617061968E+01  0.52571160937E+01  0.14200000000E+01 0.  1.
        -11    1    1    2    0    0  0.12592437299E+01  0.11479542782E+02  0.12515368627E+02  0.17029387816E+02  0.51100000000E-03 0. -1.
         11    1    1    2    0    0 -0.12592437299E+01 -0.11479542782E+02  0.84898164736E+01  0.14333268339E+02  0.51100000000E-03 0.  1.
<mgrwt>
<rscale>  0 0.23289448E+02</rscale>
<asrwt>0</asrwt>
<pdfrwt beam="1">  1        4 0.40282955E-02 0.23289448E+02</pdfrwt>
<pdfrwt beam="2">  1       -4 0.79672853E-03 0.23289448E+02</pdfrwt>
<totfact> 0.90206475E+05</totfact>
</mgrwt>
</event>
<event>
 4    1  0.5401488E-001  0.4970635E+02  0.7818608E-02  0.1446932E+00
          4   -1    0    0  501    0  0.00000000000E+00  0.00000000000E+00  0.11996844717E+03  0.11997685075E+03  0.14200000000E+01 0.  1.
         -4   -1    0    0    0  501 -0.00000000000E+00 -0.00000000000E+00 -0.50420298229E+01  0.52381737977E+01  0.14200000000E+01 0. -1.
        -11    1    1    2    0    0 -0.99484321485E+01 -0.22433738785E+02  0.67360497676E+02  0.71691565651E+02  0.51100000000E-03 0. -1.
         11    1    1    2    0    0  0.99484321485E+01  0.22433738785E+02  0.47565919672E+02  0.53523458899E+02  0.51100000000E-03 0.  1.
<mgrwt>
<rscale>  0 0.49706347E+02</rscale>
<asrwt>0</asrwt>
<pdfrwt beam="1">  1        4 0.18472417E-01 0.49706347E+02</pdfrwt>
<pdfrwt beam="2">  1       -4 0.79143139E-03 0.49706347E+02</pdfrwt>
<totfact> 0.11928357E+05</totfact>
</mgrwt>
</event>
<event>
 4    1  0.5401488E-001  0.3793155E+02  0.7818608E-02  0.1524009E+00
          4   -1    0    0  501    0  0.00000000000E+00  0.00000000000E+00  0.97049263323E+02  0.97059651305E+02  0.14200000000E+01 0.  1.
         -4   -1    0    0    0  501 -0.00000000000E+00 -0.00000000000E+00 -0.35593784589E+01  0.38321762764E+01  0.14200000000E+01 0. -1.
        -11    1    1    2    0    0 -0.11596238770E+02  0.13372225472E+02  0.64865343081E+02  0.67236908770E+02  0.51100000000E-03 0.  1.
         11    1    1    2    0    0  0.11596238770E+02 -0.13372225472E+02  0.28624541783E+02  0.33654918812E+02  0.51100000000E-03 0. -1.
<mgrwt>
<rscale>  0 0.37931548E+02</rscale>
<asrwt>0</asrwt>
<pdfrwt beam="1">  1        4 0.14952440E-01 0.37931548E+02</pdfrwt>
<pdfrwt beam="2">  1       -4 0.56938019E-03 0.37931548E+02</pdfrwt>
<totfact> 0.24257631E+05</totfact>
</mgrwt>
</event>
<event>
 4    1  0.5401488E-001  0.3690530E+02  0.7818608E-02  0.1532304E+00
         -4   -1    0    0    0  501 -0.00000000000E+00  0.00000000000E+00  0.37385813980E+01  0.39991737733E+01  0.14200000000E+01 0.  1.
          4   -1    0    0  501    0  0.00000000000E+00 -0.00000000000E+00 -0.87743545062E+02  0.87755034614E+02  0.14200000000E+01 0. -1.
        -11    1    1    2    0    0  0.19878186791E+01 -0.18281159712E+02 -0.38192832548E+02  0.42389204780E+02  0.51100000000E-03 0. -1.
         11    1    1    2    0    0 -0.19878186791E+01  0.18281159712E+02 -0.45812131116E+02  0.49365003608E+02  0.51100000000E-03 0.  1.
<mgrwt>
<rscale>  0 0.36905296E+02</rscale>
<asrwt>0</asrwt>
<pdfrwt beam="2">  1        4 0.13519935E-01 0.36905296E+02</pdfrwt>
<pdfrwt beam="1">  1       -4 0.59609581E-03 0.36905296E+02</pdfrwt>
<totfact> 0.26515975E+05</totfact>
</mgrwt>
</event>
<event>
 4    1  0.5401488E-001  0.3524035E+02  0.7818608E-02  0.1546477E+00
         -4   -1    0    0    0  501 -0.00000000000E+00  0.00000000000E+00  0.10750736761E+02  0.10844110886E+02  0.14200000000E+01 0. -1.
          4   -1    0    0  501    0  0.00000000000E+00 -0.00000000000E+00 -0.28643091067E+02  0.28678268181E+02  0.14200000000E+01 0.  1.
        -11    1    1    2    0    0 -0.56118419179E+01  0.12500895970E+02 -0.21369410847E+02  0.25385367635E+02  0.51100000000E-03 0.  1.
         11    1    1    2    0    0  0.56118419179E+01 -0.12500895970E+02  0.34770565410E+01  0.14137011432E+02  0.51100000000E-03 0. -1.
<mgrwt>
<rscale>  0 0.35240348E+02</rscale>
<asrwt>0</asrwt>
<pdfrwt beam="2">  1        4 0.44165179E-02 0.35240348E+02</pdfrwt>
<pdfrwt beam="1">  1       -4 0.16638481E-02 0.35240348E+02</pdfrwt>
<totfact> 0.34704681E+05</totfact>
</mgrwt>
</event>
<event>
 4    1  0.5401488E-001  0.2511354E+02  0.7818608E-02  0.1659376E+00
         -4   -1    0    0    0  501 -0.00000000000E+00  0.00000000000E+00  0.16847280596E+02  0.16907018172E+02  0.14200000000E+01 0. -1.
          4   -1    0    0  501    0  0.00000000000E+00 -0.00000000000E+00 -0.92282240271E+01  0.93368366535E+01  0.14200000000E+01 0.  1.
        -11    1    1    2    0    0 -0.39272736960E+01 -0.11740180517E+02  0.60058251837E+01  0.13759551361E+02  0.51100000000E-03 0.  1.
         11    1    1    2    0    0  0.39272736960E+01  0.11740180517E+02  0.16132313851E+01  0.12484303465E+02  0.51100000000E-03 0. -1.
<mgrwt>
<rscale>  0 0.25113540E+02</rscale>
<asrwt>0</asrwt>
<pdfrwt beam="2">  1        4 0.14326768E-02 0.25113540E+02</pdfrwt>
<pdfrwt beam="1">  1       -4 0.26048393E-02 0.25113540E+02</pdfrwt>
<totfact> 0.78336595E+05</totfact>
</mgrwt>
</event>
<event>
 4    1  0.5401488E-001  0.2902337E+02  0.7818608E-02  0.1609142E+00
          4   -1    0    0  501    0  0.00000000000E+00  0.00000000000E+00  0.72491048735E+02  0.72504955325E+02  0.14200000000E+01 0.  1.
         -4   -1    0    0    0  501 -0.00000000000E+00 -0.00000000000E+00 -0.27164530333E+01  0.30652107729E+01  0.14200000000E+01 0. -1.
        -11    1    1    2    0    0  0.13976307746E+02 -0.16691877393E+00  0.24727953373E+02  0.28404871384E+02  0.51100000000E-03 0. -1.
         11    1    1    2    0    0 -0.13976307746E+02  0.16691877393E+00  0.45046642329E+02  0.47165294714E+02  0.51100000000E-03 0.  1.
<mgrwt>
<rscale>  0 0.29023366E+02</rscale>
<asrwt>0</asrwt>
<pdfrwt beam="1">  1        4 0.11180365E-01 0.29023366E+02</pdfrwt>
<pdfrwt beam="2">  1       -4 0.44581316E-03 0.29023366E+02</pdfrwt>
<totfact> 0.48007532E+05</totfact>
</mgrwt>
</event>
<event>
 4    1  0.5401488E-001  0.4080835E+02  0.7818608E-02  0.1502346E+00
          4   -1    0    0  501    0  0.00000000000E+00  0.00000000000E+00  0.51249250793E+01  0.53180125111E+01  0.14200000000E+01 0. -1.
         -4   -1    0    0    0  501 -0.00000000000E+00 -0.00000000000E+00 -0.79534793498E+02  0.79547468701E+02  0.14200000000E+01 0.  1.
        -11    1    1    2    0    0 -0.11842158834E+02 -0.41270575659E+01 -0.37328249319E+01  0.13084468359E+02  0.51100000000E-03 0. -1.
         11    1    1    2    0    0  0.11842158834E+02  0.41270575659E+01 -0.70677043487E+02  0.71781012854E+02  0.51100000000E-03 0.  1.
<mgrwt>
<rscale>  0 0.40808349E+02</rscale>
<asrwt>0</asrwt>
<pdfrwt beam="1">  1        4 0.80427797E-03 0.40808349E+02</pdfrwt>
<pdfrwt beam="2">  1       -4 0.12251949E-01 0.40808349E+02</pdfrwt>
<totfact> 0.21330374E+05</totfact>
</mgrwt>
</event>
<event>
 4    1  0.5401488E-001  0.6840706E+02  0.7818608E-02  0.1365595E+00
         -4   -1    0    0    0  501 -0.00000000000E+00  0.00000000000E+00  0.11974682223E+02  0.12058582601E+02  0.14200000000E+01 0. -1.
          4   -1    0    0  501    0  0.00000000000E+00 -0.00000000000E+00 -0.97266086076E+02  0.97276450904E+02  0.14200000000E+01 0.  1.
        -11    1    1    2    0    0 -0.10969825667E+01  0.18197665933E+02  0.36090975557E+01  0.18584509721E+02  0.51100000000E-03 0. -1.
         11    1    1    2    0    0  0.10969825667E+01 -0.18197665933E+02 -0.88900501408E+02  0.90750523784E+02  0.51100000000E-03 0.  1.
<mgrwt>
<rscale>  0 0.68407061E+02</rscale>
<asrwt>0</asrwt>
<pdfrwt beam="2">  1        4 0.14971264E-01 0.68407061E+02</pdfrwt>
<pdfrwt beam="1">  1       -4 0.18495100E-02 0.68407061E+02</pdfrwt>
<totfact> 0.55398129E+04</totfact>
</mgrwt>
</event>
<event>
 4    1  0.5401488E-001  0.3590727E+02  0.7818608E-02  0.1540688E+00
          4   -1    0    0  501    0  0.00000000000E+00  0.00000000000E+00  0.40189263048E+01  0.42624134764E+01  0.14200000000E+01 0. -1.
         -4   -1    0    0    0  501 -0.00000000000E+00 -0.00000000000E+00 -0.77595428729E+02  0.77608420675E+02  0.14200000000E+01 0.  1.
        -11    1    1    2    0    0  0.61767000219E+01 -0.11065996279E+02 -0.77924231998E+01  0.14877155521E+02  0.51100000000E-03 0. -1.
         11    1    1    2    0    0 -0.61767000219E+01  0.11065996279E+02 -0.65784079224E+02  0.66993678630E+02  0.51100000000E-03 0.  1.
<mgrwt>
<rscale>  0 0.35907266E+02</rscale>
<asrwt>0</asrwt>
<pdfrwt beam="1">  1        4 0.63802557E-03 0.35907266E+02</pdfrwt>
<pdfrwt beam="2">  1       -4 0.11957486E-01 0.35907266E+02</pdfrwt>
<totfact> 0.29064461E+05</totfact>
</mgrwt>
</event>
<event>
 4    1  0.5401488E-001  0.2359701E+02  0.7818608E-02  0.1682012E+00
          4   -1    0    0  501    0  0.00000000000E+00  0.00000000000E+00  0.35945618498E+01  0.38648770863E+01  0.14200000000E+01 0.  1.
         -4   -1    0    0    0  501 -0.00000000000E+00 -0.00000000000E+00 -0.37038691613E+02  0.37065901802E+02  0.14200000000E+01 0. -1.
        -11    1    1    2    0    0 -0.10236165518E+02  0.56725535964E+01 -0.14121496841E+02  0.18340491327E+02  0.51100000000E-03 0. -1.
         11    1    1    2    0    0  0.10236165518E+02 -0.56725535964E+01 -0.19322632922E+02  0.22590287561E+02  0.51100000000E-03 0.  1.
<mgrwt>
<rscale>  0 0.23597009E+02</rscale>
<asrwt>0</asrwt>
<pdfrwt beam="1">  1        4 0.57589611E-03 0.23597009E+02</pdfrwt>
<pdfrwt beam="2">  1       -4 0.57211466E-02 0.23597009E+02</pdfrwt>
<totfact> 0.84530439E+05</totfact>
</mgrwt>
</event>
<event>
 4    1  0.5401488E-001  0.3115284E+02  0.7818608E-02  0.1585684E+00
          4   -1    0    0  501    0  0.00000000000E+00  0.00000000000E+00  0.42260814963E+01  0.44582692621E+01  0.14200000000E+01 0.  1.
         -4   -1    0    0    0  501 -0.00000000000E+00 -0.00000000000E+00 -0.55634832269E+02  0.55652951059E+02  0.14200000000E+01 0. -1.
        -11    1    1    2    0    0 -0.39542409905E+01  0.11719281210E+02 -0.43973862824E+02  0.45680172787E+02  0.51100000000E-03 0. -1.
         11    1    1    2    0    0  0.39542409905E+01 -0.11719281210E+02 -0.74348879488E+01  0.14431047535E+02  0.51100000000E-03 0.  1.
<mgrwt>
<rscale>  0 0.31152835E+02</rscale>
<asrwt>0</asrwt>
<pdfrwt beam="1">  1        4 0.66942078E-03 0.31152835E+02</pdfrwt>
<pdfrwt beam="2">  1       -4 0.85784588E-02 0.31152835E+02</pdfrwt>
<totfact> 0.42987153E+05</totfact>
</mgrwt>
</event>
<event>
 4    1  0.5401488E-001  0.5191385E+02  0.7818608E-02  0.1435284E+00
         -4   -1    0    0    0  501 -0.00000000000E+00  0.00000000000E+00  0.83115913897E+02  0.83128043060E+02  0.14200000000E+01 0. -1.
          4   -1    0    0  501    0  0.00000000000E+00 -0.00000000000E+00 -0.80312854426E+01  0.81558534722E+01  0.14200000000E+01 0.  1.
        -11    1    1    2    0    0  0.26083312675E+01  0.22471360339E+02  0.15162116668E+02  0.27233347381E+02  0.51100000000E-03 0.  1.
         11    1    1    2    0    0 -0.26083312675E+01 -0.22471360339E+02  0.59922511786E+02  0.64050549151E+02  0.51100000000E-03 0. -1.
<mgrwt>
<rscale>  0 0.51913855E+02</rscale>
<asrwt>0</asrwt>
<pdfrwt beam="2">  1        4 0.12460975E-02 0.51913855E+02</pdfrwt>
<pdfrwt beam="1">  1       -4 0.12797579E-01 0.51913855E+02</pdfrwt>
<totfact> 0.11677575E+05</totfact>
</mgrwt>
</event>
<event>
 4    1  0.5401488E-001  0.2747648E+02  0.7818608E-02  0.1627784E+00
         -4   -1    0    0    0  501 -0.00000000000E+00  0.00000000000E+00  0.75941235262E+02  0.75954510156E+02  0.14200000000E+01 0.  1.
          4   -1    0    0  501    0  0.00000000000E+00 -0.00000000000E+00 -0.22678839602E+01  0.26757611360E+01  0.14200000000E+01 0. -1.
        -11    1    1    2    0    0 -0.63108923059E+01 -0.85582578925E+01  0.11943227731E+02  0.15990992113E+02  0.51100000000E-03 0. -1.
         11    1    1    2    0    0  0.63108923059E+01  0.85582578925E+01  0.61730123570E+02  0.62639279179E+02  0.51100000000E-03 0.  1.
<mgrwt>
<rscale>  0 0.27476479E+02</rscale>
<asrwt>0</asrwt>
<pdfrwt beam="2">  1        4 0.38130149E-03 0.27476479E+02</pdfrwt>
<pdfrwt beam="1">  1       -4 0.11715665E-01 0.27476479E+02</pdfrwt>
<totfact> 0.53657172E+05</totfact>
</mgrwt>
</event>
<event>
 4    1  0.5401488E-001  0.2434869E+02  0.7818608E-02  0.1670537E+00
         -4   -1    0    0    0  501 -0.00000000000E+00  0.00000000000E+00  0.79983446976E+01  0.81234178706E+01  0.14200000000E+01 0.  1.
          4   -1    0    0  501    0  0.00000000000E+00 -0.00000000000E+00 -0.18234020046E+02  0.18289228716E+02  0.14200000000E+01 0. -1.
        -11    1    1    2    0    0 -0.10400888927E+02  0.34162716014E+01  0.65953036517E+00  0.10967423703E+02  0.51100000000E-03 0.  1.
         11    1    1    2    0    0  0.10400888927E+02 -0.34162716014E+01 -0.10895205713E+02  0.15445222883E+02  0.51100000000E-03 0. -1.
<mgrwt>
<rscale>  0 0.24348693E+02</rscale>
<asrwt>0</asrwt>
<pdfrwt beam="2">  1        4 0.28191017E-02 0.24348693E+02</pdfrwt>
<pdfrwt beam="1">  1       -4 0.12443824E-02 0.24348693E+02</pdfrwt>
<totfact> 0.83708871E+05</totfact>
</mgrwt>
</event>
<event>
 4    1  0.5401488E-001  0.2742526E+02  0.7818608E-02  0.1628427E+00
         -4   -1    0    0    0  501 -0.00000000000E+00  0.00000000000E+00  0.85851486135E+02  0.85863228868E+02  0.14200000000E+01 0. -1.
          4   -1    0    0  501    0  0.00000000000E+00 -0.00000000000E+00 -0.19469273005E+01  0.24097564012E+01  0.14200000000E+01 0.  1.
        -11    1    1    2    0    0  0.12926641218E+02 -0.21542673989E+01  0.54946045389E+02  0.56487227099E+02  0.51100000000E-03 0.  1.
         11    1    1    2    0    0 -0.12926641218E+02  0.21542673989E+01  0.28958513445E+02  0.31785758170E+02  0.51100000000E-03 0. -1.
<mgrwt>
<rscale>  0 0.27425261E+02</rscale>
<asrwt>0</asrwt>
<pdfrwt beam="2">  1        4 0.33603274E-03 0.27425261E+02</pdfrwt>
<pdfrwt beam="1">  1       -4 0.13244429E-01 0.27425261E+02</pdfrwt>
<totfact> 0.52357336E+05</totfact>
</mgrwt>
</event>
<event>
 4    1  0.5401488E-001  0.2214579E+02  0.7818608E-02  0.1705743E+00
         -4   -1    0    0    0  501 -0.00000000000E+00  0.00000000000E+00  0.25297889723E+02  0.25337711507E+02  0.14200000000E+01 0. -1.
          4   -1    0    0  501    0  0.00000000000E+00 -0.00000000000E+00 -0.46979374276E+01  0.49078524910E+01  0.14200000000E+01 0.  1.
        -11    1    1    2    0    0  0.44557646853E+01  0.92343729544E+01  0.16010295003E+02  0.19012023278E+02  0.51100000000E-03 0. -1.
         11    1    1    2    0    0 -0.44557646853E+01 -0.92343729544E+01  0.45896572925E+01  0.11233540720E+02  0.51100000000E-03 0.  1.
<mgrwt>
<rscale>  0 0.22145792E+02</rscale>
<asrwt>0</asrwt>
<pdfrwt beam="2">  1        4 0.74197014E-03 0.22145792E+02</pdfrwt>
<pdfrwt beam="1">  1       -4 0.39111935E-02 0.22145792E+02</pdfrwt>
<totfact> 0.10077375E+06</totfact>
</mgrwt>
</event>
<event>
 4    1  0.5401488E-001  0.2094634E+02  0.7818608E-02  0.1727138E+00
          4   -1    0    0  501    0  0.00000000000E+00  0.00000000000E+00  0.13040007732E+02  0.13117095778E+02  0.14200000000E+01 0.  1.
         -4   -1    0    0    0  501 -0.00000000000E+00 -0.00000000000E+00 -0.82488746996E+01  0.83702051235E+01  0.14200000000E+01 0. -1.
        -11    1    1    2    0    0 -0.10109130790E+02  0.27133600816E+01  0.27660552737E+01  0.10826260218E+02  0.51100000000E-03 0.  1.
         11    1    1    2    0    0  0.10109130790E+02 -0.27133600816E+01  0.20250777588E+01  0.10661040684E+02  0.51100000000E-03 0. -1.
<mgrwt>
<rscale>  0 0.20946340E+02</rscale>
<asrwt>0</asrwt>
<pdfrwt beam="1">  1        4 0.20214180E-02 0.20946340E+02</pdfrwt>
<pdfrwt beam="2">  1       -4 0.12843206E-02 0.20946340E+02</pdfrwt>
<totfact> 0.11751554E+06</totfact>
</mgrwt>
</event>
<event>
 4    1  0.5401488E-001  0.3475845E+02  0.7818608E-02  0.1550756E+00
         -4   -1    0    0    0  501 -0.00000000000E+00  0.00000000000E+00  0.61690128616E+01  0.63303332998E+01  0.14200000000E+01 0. -1.
          4   -1    0    0  501    0  0.00000000000E+00 -0.00000000000E+00 -0.48156599894E+02  0.48177531208E+02  0.14200000000E+01 0.  1.
        -11    1    1    2    0    0 -0.91111408180E+01  0.99841134364E+01 -0.38125298383E+02  0.40450386712E+02  0.51100000000E-03 0.  1.
         11    1    1    2    0    0  0.91111408180E+01 -0.99841134364E+01 -0.38622886496E+01  0.14057477796E+02  0.51100000000E-03 0. -1.
<mgrwt>
<rscale>  0 0.34758450E+02</rscale>
<asrwt>0</asrwt>
<pdfrwt beam="2">  1        4 0.74227268E-02 0.34758450E+02</pdfrwt>
<pdfrwt beam="1">  1       -4 0.96309830E-03 0.34758450E+02</pdfrwt>
<totfact> 0.34065743E+05</totfact>
</mgrwt>
</event>
<event>
 4    1  0.5401488E-001  0.3402501E+02  0.7818608E-02  0.1557433E+00
         -4   -1    0    0    0  501 -0.00000000000E+00  0.00000000000E+00  0.12790638483E+03  0.12791426691E+03  0.14200000000E+01 0. -1.
          4   -1    0    0  501    0  0.00000000000E+00 -0.00000000000E+00 -0.20312671733E+01  0.24783959186E+01  0.14200000000E+01 0.  1.
        -11    1    1    2    0    0 -0.57257251602E+01 -0.16019367114E+02  0.62378688542E+02  0.64656823583E+02  0.51100000000E-03 0. -1.
         11    1    1    2    0    0  0.57257251602E+01  0.16019367114E+02  0.63496429115E+02  0.65735839250E+02  0.51100000000E-03 0.  1.
<mgrwt>
<rscale>  0 0.34025010E+02</rscale>
<asrwt>0</asrwt>
<pdfrwt beam="2">  1        4 0.34750339E-03 0.34025010E+02</pdfrwt>
<pdfrwt beam="1">  1       -4 0.19712911E-01 0.34025010E+02</pdfrwt>
<totfact> 0.28892952E+05</totfact>
</mgrwt>
</event>
<event>
 4    1  0.5401488E-001  0.6018329E+02  0.7818608E-02  0.1397064E+00
         -4   -1    0    0    0  501 -0.00000000000E+00  0.00000000000E+00  0.14028446162E+03  0.14029164826E+03  0.14200000000E+01 0.  1.
          4   -1    0    0  501    0  0.00000000000E+00 -0.00000000000E+00 -0.63692529281E+01  0.65256250936E+01  0.14200000000E+01 0. -1.
        -11    1    1    2    0    0  0.11102755503E+02  0.27812832902E+02  0.59769427787E+02  0.66852145455E+02  0.51100000000E-03 0. -1.
         11    1    1    2    0    0 -0.11102755503E+02 -0.27812832902E+02  0.74145780907E+02  0.79965127902E+02  0.51100000000E-03 0.  1.
<mgrwt>
<rscale>  0 0.60183292E+02</rscale>
<asrwt>0</asrwt>
<pdfrwt beam="2">  1        4 0.99246662E-03 0.60183292E+02</pdfrwt>
<pdfrwt beam="1">  1       -4 0.21594804E-01 0.60183292E+02</pdfrwt>
<totfact> 0.70449610E+04</totfact>
</mgrwt>
</event>
<event>
 4    1  0.5401488E-001  0.2112936E+02  0.7818608E-02  0.1723759E+00
          4   -1    0    0  501    0  0.00000000000E+00  0.00000000000E+00  0.81160030016E+01  0.82392903045E+01  0.14200000000E+01 0.  1.
         -4   -1    0    0    0  501 -0.00000000000E+00 -0.00000000000E+00 -0.13487644804E+02  0.13562188701E+02  0.14200000000E+01 0. -1.
        -11    1    1    2    0    0 -0.10279407990E+02  0.40048536849E+00 -0.20392296962E+00  0.10289227473E+02  0.51100000000E-03 0.  1.
         11    1    1    2    0    0  0.10279407990E+02 -0.40048536849E+00 -0.51677188331E+01  0.11512251533E+02  0.51100000000E-03 0. -1.
<mgrwt>
<rscale>  0 0.21129362E+02</rscale>
<asrwt>0</asrwt>
<pdfrwt beam="1">  1        4 0.12638336E-02 0.21129362E+02</pdfrwt>
<pdfrwt beam="2">  1       -4 0.20902401E-02 0.21129362E+02</pdfrwt>
<totfact> 0.11524773E+06</totfact>
</mgrwt>
</event>
<event>
 4    1  0.5401488E-001  0.2261462E+02  0.7818608E-02  0.1697834E+00
         -4   -1    0    0    0  501 -0.00000000000E+00  0.00000000000E+00  0.97904511890E+00  0.17247983490E+01  0.14200000000E+01 0.  1.
          4   -1    0    0  501    0  0.00000000000E+00 -0.00000000000E+00 -0.93820356022E+02  0.93831101475E+02  0.14200000000E+01 0. -1.
        -11    1    1    2    0    0  0.11005109193E+02  0.25950371320E+01 -0.46812479042E+02  0.48158642427E+02  0.51100000000E-03 0. -1.
         11    1    1    2    0    0 -0.11005109193E+02 -0.25950371320E+01 -0.46028831860E+02  0.47397257397E+02  0.51100000000E-03 0.  1.
<mgrwt>
<rscale>  0 0.22614619E+02</rscale>
<asrwt>0</asrwt>
<pdfrwt beam="2">  1        4 0.14492088E-01 0.22614619E+02</pdfrwt>
<pdfrwt beam="1">  1       -4 0.20881461E-03 0.22614619E+02</pdfrwt>
<totfact> 0.77297244E+05</totfact>
</mgrwt>
</event>
<event>
 4    1  0.5401488E-001  0.3703596E+02  0.7818608E-02  0.1531230E+00
         -4   -1    0    0    0  501 -0.00000000000E+00  0.00000000000E+00  0.38493585678E+02  0.38519768150E+02  0.14200000000E+01 0. -1.
          4   -1    0    0  501    0  0.00000000000E+00 -0.00000000000E+00 -0.88223765201E+01  0.89359234253E+01  0.14200000000E+01 0.  1.
        -11    1    1    2    0    0  0.88358652673E+01  0.12811241310E+02  0.19764620585E+01  0.15687792116E+02  0.51100000000E-03 0.  1.
         11    1    1    2    0    0 -0.88358652673E+01 -0.12811241310E+02  0.27694747100E+02  0.31767899460E+02  0.51100000000E-03 0. -1.
<mgrwt>
<rscale>  0 0.37035956E+02</rscale>
<asrwt>0</asrwt>
<pdfrwt beam="2">  1        4 0.13680371E-02 0.37035956E+02</pdfrwt>
<pdfrwt beam="1">  1       -4 0.59328386E-02 0.37035956E+02</pdfrwt>
<totfact> 0.30059167E+05</totfact>
</mgrwt>
</event>
<event>
 4    1  0.5401488E-001  0.4423747E+02  0.7818608E-02  0.1479159E+00
         -4   -1    0    0    0  501 -0.00000000000E+00  0.00000000000E+00  0.14386890774E+02  0.14456798613E+02  0.14200000000E+01 0. -1.
          4   -1    0    0  501    0  0.00000000000E+00 -0.00000000000E+00 -0.33838597495E+02  0.33868378769E+02  0.14200000000E+01 0.  1.
        -11    1    1    2    0    0  0.16290604637E+02 -0.14061512107E+02 -0.15309793903E+02  0.26410219836E+02  0.51100000000E-03 0.  1.
         11    1    1    2    0    0 -0.16290604637E+02  0.14061512107E+02 -0.41419128183E+01  0.21914957546E+02  0.51100000000E-03 0. -1.
<mgrwt>
<rscale>  0 0.44237471E+02</rscale>
<asrwt>0</asrwt>
<pdfrwt beam="2">  1        4 0.52136065E-02 0.44237471E+02</pdfrwt>
<pdfrwt beam="1">  1       -4 0.22210362E-02 0.44237471E+02</pdfrwt>
<totfact> 0.19590544E+05</totfact>
</mgrwt>
</event>
<event>
 4    1  0.5401488E-001  0.5360426E+02  0.7818608E-02  0.1426817E+00
         -4   -1    0    0    0  501 -0.00000000000E+00  0.00000000000E+00  0.44783730142E+02  0.44806237126E+02  0.14200000000E+01 0.  1.
          4   -1    0    0  501    0  0.00000000000E+00 -0.00000000000E+00 -0.15982492676E+02  0.16045450201E+02  0.14200000000E+01 0. -1.
        -11    1    1    2    0    0 -0.21869693701E+02 -0.14657972983E+02  0.87003118971E+01  0.27727875899E+02  0.51100000000E-03 0. -1.
         11    1    1    2    0    0  0.21869693701E+02  0.14657972983E+02  0.20100925568E+02  0.33123811427E+02  0.51100000000E-03 0.  1.
<mgrwt>
<rscale>  0 0.53604259E+02</rscale>
<asrwt>0</asrwt>
<pdfrwt beam="2">  1        4 0.24654193E-02 0.53604259E+02</pdfrwt>
<pdfrwt beam="1">  1       -4 0.68963787E-02 0.53604259E+02</pdfrwt>
<totfact> 0.11727049E+05</totfact>
</mgrwt>
</event>
<event>
 4    1  0.5401488E-001  0.2579084E+02  0.7818608E-02  0.1649896E+00
         -4   -1    0    0    0  501 -0.00000000000E+00  0.00000000000E+00  0.31724481073E+02  0.31756245045E+02  0.14200000000E+01 0. -1.
          4   -1    0    0  501    0  0.00000000000E+00 -0.00000000000E+00 -0.51105107082E+01  0.53041228963E+01  0.14200000000E+01 0.  1.
        -11    1    1    2    0    0  0.12068257876E+02 -0.41158138944E+01  0.16074423627E+02  0.20517550228E+02  0.51100000000E-03 0.  1.
         11    1    1    2    0    0 -0.12068257876E+02  0.41158138944E+01  0.10539546738E+02  0.16542817713E+02  0.51100000000E-03 0. -1.
<mgrwt>
<rscale>  0 0.25790840E+02</rscale>
<asrwt>0</asrwt>
<pdfrwt beam="2">  1        4 0.80356905E-03 0.25790840E+02</pdfrwt>
<pdfrwt beam="1">  1       -4 0.48980260E-02 0.25790840E+02</pdfrwt>
<totfact> 0.70834960E+05</totfact>
</mgrwt>
</event>
<event>
 4    1  0.5401488E-001  0.2092057E+02  0.7818608E-02  0.1727618E+00
         -4   -1    0    0    0  501 -0.00000000000E+00  0.00000000000E+00  0.18822360288E+02  0.18875848241E+02  0.14200000000E+01 0. -1.
          4   -1    0    0  501    0  0.00000000000E+00 -0.00000000000E+00 -0.56636600854E+01  0.58389592876E+01  0.14200000000E+01 0.  1.
        -11    1    1    2    0    0 -0.47595707977E+01 -0.90355424443E+01  0.39054357812E+01  0.10933753717E+02  0.51100000000E-03 0. -1.
         11    1    1    2    0    0  0.47595707977E+01  0.90355424443E+01  0.92532644214E+01  0.13781053811E+02  0.51100000000E-03 0.  1.
<mgrwt>
<rscale>  0 0.20920572E+02</rscale>
<asrwt>0</asrwt>
<pdfrwt beam="2">  1        4 0.88893133E-03 0.20920572E+02</pdfrwt>
<pdfrwt beam="1">  1       -4 0.29133468E-02 0.20920572E+02</pdfrwt>
<totfact> 0.11615063E+06</totfact>
</mgrwt>
</event>
<event>
 4    1  0.5401488E-001  0.2113961E+02  0.7818608E-02  0.1723571E+00
         -4   -1    0    0    0  501 -0.00000000000E+00  0.00000000000E+00  0.95771094990E+02  0.95781621597E+02  0.14200000000E+01 0. -1.
          4   -1    0    0  501    0  0.00000000000E+00 -0.00000000000E+00 -0.71982425765E+00  0.15920260557E+01  0.14200000000E+01 0.  1.
        -11    1    1    2    0    0 -0.47613033046E+00  0.10557192977E+02  0.48444265665E+02  0.49583544646E+02  0.51100000000E-03 0. -1.
         11    1    1    2    0    0  0.47613033046E+00 -0.10557192977E+02  0.46607005068E+02  0.47790103006E+02  0.51100000000E-03 0.  1.
<mgrwt>
<rscale>  0 0.21139612E+02</rscale>
<asrwt>0</asrwt>
<pdfrwt beam="2">  1        4 0.17864432E-03 0.21139612E+02</pdfrwt>
<pdfrwt beam="1">  1       -4 0.14801921E-01 0.21139612E+02</pdfrwt>
<totfact> 0.88317033E+05</totfact>
</mgrwt>
</event>
<event>
 4    1  0.5401488E-001  0.2400385E+02  0.7818608E-02  0.1675736E+00
         -4   -1    0    0    0  501 -0.00000000000E+00  0.00000000000E+00  0.14558505499E+02  0.14627593184E+02  0.14200000000E+01 0.  1.
          4   -1    0    0  501    0  0.00000000000E+00 -0.00000000000E+00 -0.97502401170E+01  0.98531001385E+01  0.14200000000E+01 0. -1.
        -11    1    1    2    0    0 -0.54429190731E+00 -0.11232361618E+02  0.66807657173E+01  0.13080322321E+02  0.51100000000E-03 0.  1.
         11    1    1    2    0    0  0.54429190731E+00  0.11232361618E+02 -0.18725003352E+01  0.11400371001E+02  0.51100000000E-03 0. -1.
<mgrwt>
<rscale>  0 0.24003852E+02</rscale>
<asrwt>0</asrwt>
<pdfrwt beam="2">  1        4 0.15132637E-02 0.24003852E+02</pdfrwt>
<pdfrwt beam="1">  1       -4 0.22529968E-02 0.24003852E+02</pdfrwt>
<totfact> 0.87011077E+05</totfact>
</mgrwt>
</event>
<event>
 4    1  0.5401488E-001  0.3509232E+02  0.7818608E-02  0.1547782E+00
         -4   -1    0    0    0  501 -0.00000000000E+00  0.00000000000E+00  0.69658157364E+01  0.71090779201E+01  0.14200000000E+01 0.  1.
          4   -1    0    0  501    0  0.00000000000E+00 -0.00000000000E+00 -0.43592147398E+02  0.43615269285E+02  0.14200000000E+01 0. -1.
        -11    1    1    2    0    0  0.14224429749E+02  0.26253531850E+01 -0.32669147715E+02  0.35728141482E+02  0.51100000000E-03 0. -1.
         11    1    1    2    0    0 -0.14224429749E+02 -0.26253531850E+01 -0.39571839464E+01  0.14996205723E+02  0.51100000000E-03 0.  1.
<mgrwt>
<rscale>  0 0.35092324E+02</rscale>
<asrwt>0</asrwt>
<pdfrwt beam="2">  1        4 0.67192828E-02 0.35092324E+02</pdfrwt>
<pdfrwt beam="1">  1       -4 0.10844628E-02 0.35092324E+02</pdfrwt>
<totfact> 0.33734911E+05</totfact>
</mgrwt>
</event>
<event>
 4    1  0.5401488E-001  0.5438752E+02  0.7818608E-02  0.1423018E+00
          4   -1    0    0  501    0  0.00000000000E+00  0.00000000000E+00  0.60550235497E+01  0.62193014228E+01  0.14200000000E+01 0.  1.
         -4   -1    0    0    0  501 -0.00000000000E+00 -0.00000000000E+00 -0.12032700324E+03  0.12033538178E+03  0.14200000000E+01 0. -1.
        -11    1    1    2    0    0 -0.40785067647E+01  0.18502527512E+02 -0.11745032581E+02  0.22291781722E+02  0.51100000000E-03 0.  1.
         11    1    1    2    0    0  0.40785067647E+01 -0.18502527512E+02 -0.10252694711E+03  0.10426290148E+03  0.51100000000E-03 0. -1.
<mgrwt>
<rscale>  0 0.54387522E+02</rscale>
<asrwt>0</asrwt>
<pdfrwt beam="1">  1        4 0.94482344E-03 0.54387522E+02</pdfrwt>
<pdfrwt beam="2">  1       -4 0.18525126E-01 0.54387522E+02</pdfrwt>
<totfact> 0.95187886E+04</totfact>
</mgrwt>
</event>
<event>
 4    1  0.5401488E-001  0.2136696E+02  0.7818608E-02  0.1719436E+00
         -4   -1    0    0    0  501 -0.00000000000E+00  0.00000000000E+00  0.16823296869E+01  0.22015070237E+01  0.14200000000E+01 0.  1.
          4   -1    0    0  501    0  0.00000000000E+00 -0.00000000000E+00 -0.58246243899E+02  0.58263550598E+02  0.14200000000E+01 0. -1.
        -11    1    1    2    0    0 -0.77858360889E+01  0.65628742437E+01 -0.19135777923E+02  0.21676451715E+02  0.51100000000E-03 0.  1.
         11    1    1    2    0    0  0.77858360889E+01 -0.65628742437E+01 -0.37428136288E+02  0.38788605907E+02  0.51100000000E-03 0. -1.
<mgrwt>
<rscale>  0 0.21366956E+02</rscale>
<asrwt>0</asrwt>
<pdfrwt beam="2">  1        4 0.90022273E-02 0.21366956E+02</pdfrwt>
<pdfrwt beam="1">  1       -4 0.30008800E-03 0.21366956E+02</pdfrwt>
<totfact> 0.97018156E+05</totfact>
</mgrwt>
</event>
<event>
 4    1  0.5401488E-001  0.2587074E+02  0.7818608E-02  0.1648801E+00
         -4   -1    0    0    0  501 -0.00000000000E+00  0.00000000000E+00  0.21104604087E+01  0.25437065744E+01  0.14200000000E+01 0. -1.
          4   -1    0    0  501    0  0.00000000000E+00 -0.00000000000E+00 -0.71461821341E+02  0.71475928181E+02  0.14200000000E+01 0.  1.
        -11    1    1    2    0    0  0.77072437793E+01  0.70037209010E+01 -0.12723112018E+02  0.16441754554E+02  0.51100000000E-03 0. -1.
         11    1    1    2    0    0 -0.77072437793E+01 -0.70037209010E+01 -0.56628248914E+02  0.57577880201E+02  0.51100000000E-03 0.  1.
<mgrwt>
<rscale>  0 0.25870738E+02</rscale>
<asrwt>0</asrwt>
<pdfrwt beam="2">  1        4 0.11028536E-01 0.25870738E+02</pdfrwt>
<pdfrwt beam="1">  1       -4 0.35909804E-03 0.25870738E+02</pdfrwt>
<totfact> 0.62032058E+05</totfact>
</mgrwt>
</event>
<event>
 4    1  0.5401488E-001  0.2362084E+02  0.7818608E-02  0.1681640E+00
          4   -1    0    0  501    0  0.00000000000E+00  0.00000000000E+00  0.10897689651E+02  0.10989815273E+02  0.14200000000E+01 0.  1.
         -4   -1    0    0    0  501 -0.00000000000E+00 -0.00000000000E+00 -0.12613593627E+02  0.12693271611E+02  0.14200000000E+01 0. -1.
        -11    1    1    2    0    0 -0.98860395977E+01  0.64612367081E+01 -0.92676577683E+00  0.11846529188E+02  0.51100000000E-03 0.  1.
         11    1    1    2    0    0  0.98860395977E+01 -0.64612367081E+01 -0.78913819916E+00  0.11836557696E+02  0.51100000000E-03 0. -1.
<mgrwt>
<rscale>  0 0.23620844E+02</rscale>
<asrwt>0</asrwt>
<pdfrwt beam="1">  1        4 0.16897833E-02 0.23620844E+02</pdfrwt>
<pdfrwt beam="2">  1       -4 0.19537685E-02 0.23620844E+02</pdfrwt>
<totfact> 0.90363683E+05</totfact>
</mgrwt>
</event>
<event>
 4    1  0.5401488E-001  0.2338762E+02  0.7818608E-02  0.1685303E+00
          4   -1    0    0  501    0  0.00000000000E+00  0.00000000000E+00  0.67435376063E+01  0.68914221644E+01  0.14200000000E+01 0.  1.
         -4   -1    0    0    0  501 -0.00000000000E+00 -0.00000000000E+00 -0.19884550868E+02  0.19935189069E+02  0.14200000000E+01 0. -1.
        -11    1    1    2    0    0 -0.11565586560E+02  0.74806731340E-01 -0.45914594514E+01  0.12443869522E+02  0.51100000000E-03 0.  1.
         11    1    1    2    0    0  0.11565586560E+02 -0.74806731340E-01 -0.85495538099E+01  0.14382741711E+02  0.51100000000E-03 0. -1.
<mgrwt>
<rscale>  0 0.23387622E+02</rscale>
<asrwt>0</asrwt>
<pdfrwt beam="1">  1        4 0.10527383E-02 0.23387622E+02</pdfrwt>
<pdfrwt beam="2">  1       -4 0.30744326E-02 0.23387622E+02</pdfrwt>
<totfact> 0.91079678E+05</totfact>
</mgrwt>
</event>
<event>
 4    1  0.5401488E-001  0.3212439E+02  0.7818608E-02  0.1575727E+00
         -4   -1    0    0    0  501 -0.00000000000E+00  0.00000000000E+00  0.12383992314E+01  0.18841530342E+01  0.14200000000E+01 0. -1.
          4   -1    0    0  501    0  0.00000000000E+00 -0.00000000000E+00 -0.16459624993E+03  0.16460237511E+03  0.14200000000E+01 0.  1.
        -11    1    1    2    0    0  0.90283409179E+01 -0.13280474142E+02 -0.79942702528E+02  0.81539669001E+02  0.51100000000E-03 0.  1.
         11    1    1    2    0    0 -0.90283409179E+01  0.13280474142E+02 -0.83415148171E+02  0.84946859141E+02  0.51100000000E-03 0. -1.
<mgrwt>
<rscale>  0 0.32124394E+02</rscale>
<asrwt>0</asrwt>
<pdfrwt beam="2">  1        4 0.25372631E-01 0.32124394E+02</pdfrwt>
<pdfrwt beam="1">  1       -4 0.24066763E-03 0.32124394E+02</pdfrwt>
<totfact> 0.30175064E+05</totfact>
</mgrwt>
</event>
<event>
 4    1  0.5401488E-001  0.4698975E+02  0.7818608E-02  0.1462289E+00
          4   -1    0    0  501    0  0.00000000000E+00  0.00000000000E+00  0.41769095768E+01  0.44116860284E+01  0.14200000000E+01 0.  1.
         -4   -1    0    0    0  501 -0.00000000000E+00 -0.00000000000E+00 -0.12830587261E+03  0.12831373016E+03  0.14200000000E+01 0. -1.
        -11    1    1    2    0    0 -0.14011293773E+02 -0.18095073596E+02 -0.47048780128E+02  0.52319554217E+02  0.51100000000E-03 0.  1.
         11    1    1    2    0    0  0.14011293773E+02  0.18095073596E+02 -0.77080182906E+02  0.80405861967E+02  0.51100000000E-03 0. -1.
<mgrwt>
<rscale>  0 0.46989750E+02</rscale>
<asrwt>0</asrwt>
<pdfrwt beam="1">  1        4 0.66126572E-03 0.46989750E+02</pdfrwt>
<pdfrwt beam="2">  1       -4 0.19758026E-01 0.46989750E+02</pdfrwt>
<totfact> 0.13434519E+05</totfact>
</mgrwt>
</event>
<event>
 4    1  0.5401488E-001  0.5681101E+02  0.7818608E-02  0.1411724E+00
         -4   -1    0    0    0  501 -0.00000000000E+00  0.00000000000E+00  0.21040153821E+02  0.21088017281E+02  0.14200000000E+01 0.  1.
          4   -1    0    0  501    0  0.00000000000E+00 -0.00000000000E+00 -0.38244557116E+02  0.38270909958E+02  0.14200000000E+01 0. -1.
        -11    1    1    2    0    0 -0.31207521322E+01  0.16455758772E+02 -0.32573269831E+02  0.36627162030E+02  0.51100000000E-03 0. -1.
         11    1    1    2    0    0  0.31207521322E+01 -0.16455758772E+02  0.15368866536E+02  0.22731765209E+02  0.51100000000E-03 0.  1.
<mgrwt>
<rscale>  0 0.56811009E+02</rscale>
<asrwt>0</asrwt>
<pdfrwt beam="2">  1        4 0.58894870E-02 0.56811009E+02</pdfrwt>
<pdfrwt beam="1">  1       -4 0.32426557E-02 0.56811009E+02</pdfrwt>
<totfact> 0.10170643E+05</totfact>
</mgrwt>
</event>
<event>
 4    1  0.5401488E-001  0.3612031E+02  0.7818608E-02  0.1538871E+00
         -4   -1    0    0    0  501 -0.00000000000E+00  0.00000000000E+00  0.16609471511E+02  0.16670061304E+02  0.14200000000E+01 0.  1.
          4   -1    0    0  501    0  0.00000000000E+00 -0.00000000000E+00 -0.19515359988E+02  0.19566953658E+02  0.14200000000E+01 0. -1.
        -11    1    1    2    0    0  0.16141352680E+02 -0.32508665893E-01 -0.95800398816E+01  0.18770228756E+02  0.51100000000E-03 0. -1.
         11    1    1    2    0    0 -0.16141352680E+02  0.32508665893E-01  0.66741514046E+01  0.17466786207E+02  0.51100000000E-03 0.  1.
<mgrwt>
<rscale>  0 0.36120314E+02</rscale>
<asrwt>0</asrwt>
<pdfrwt beam="2">  1        4 0.30109926E-02 0.36120314E+02</pdfrwt>
<pdfrwt beam="1">  1       -4 0.25639328E-02 0.36120314E+02</pdfrwt>
<totfact> 0.33139119E+05</totfact>
</mgrwt>
</event>
<event>
 4    1  0.5401488E-001  0.2448079E+02  0.7818608E-02  0.1668573E+00
         -4   -1    0    0    0  501 -0.00000000000E+00  0.00000000000E+00  0.35905610008E+01  0.38611563424E+01  0.14200000000E+01 0.  1.
          4   -1    0    0  501    0  0.00000000000E+00 -0.00000000000E+00 -0.39929149154E+02  0.39954390899E+02  0.14200000000E+01 0. -1.
        -11    1    1    2    0    0 -0.38702737627E+01  0.11293820595E+02 -0.13334237355E+02  0.17897801226E+02  0.51100000000E-03 0.  1.
         11    1    1    2    0    0  0.38702737627E+01 -0.11293820595E+02 -0.23004350798E+02  0.25917746016E+02  0.51100000000E-03 0. -1.
<mgrwt>
<rscale>  0 0.24480792E+02</rscale>
<asrwt>0</asrwt>
<pdfrwt beam="2">  1        4 0.61657024E-02 0.24480792E+02</pdfrwt>
<pdfrwt beam="1">  1       -4 0.57515073E-03 0.24480792E+02</pdfrwt>
<totfact> 0.77330265E+05</totfact>
</mgrwt>
</event>
<event>
 4    1  0.5401488E-001  0.3063084E+02  0.7818608E-02  0.1591218E+00
          4   -1    0    0  501    0  0.00000000000E+00  0.00000000000E+00  0.83664563567E+02  0.83676613201E+02  0.14200000000E+01 0. -1.
         -4   -1    0    0    0  501 -0.00000000000E+00 -0.00000000000E+00 -0.26107430149E+01  0.29719318784E+01  0.14200000000E+01 0.  1.
        -11    1    1    2    0    0 -0.11919947357E+02  0.96124767605E+01  0.41313295786E+02  0.44059882699E+02  0.51100000000E-03 0.  1.
         11    1    1    2    0    0  0.11919947357E+02 -0.96124767605E+01  0.39740524766E+02  0.42588662381E+02  0.51100000000E-03 0. -1.
<mgrwt>
<rscale>  0 0.30630843E+02</rscale>
<asrwt>0</asrwt>
<pdfrwt beam="1">  1        4 0.12900182E-01 0.30630843E+02</pdfrwt>
<pdfrwt beam="2">  1       -4 0.43036342E-03 0.30630843E+02</pdfrwt>
<totfact> 0.41192610E+05</totfact>
</mgrwt>
</event>
<event>
 4    1  0.5401488E-001  0.2962925E+02  0.7818608E-02  0.1602223E+00
          4   -1    0    0  501    0  0.00000000000E+00  0.00000000000E+00  0.86399774155E+02  0.86411442379E+02  0.14200000000E+01 0.  1.
         -4   -1    0    0    0  501 -0.00000000000E+00 -0.00000000000E+00 -0.23289723197E+01  0.27277302040E+01  0.14200000000E+01 0. -1.
        -11    1    1    2    0    0 -0.83328959959E+01  0.97480146190E+01  0.64349392199E+02  0.65614824707E+02  0.51100000000E-03 0.  1.
         11    1    1    2    0    0  0.83328959959E+01 -0.97480146190E+01  0.19721409636E+02  0.23524347876E+02  0.51100000000E-03 0. -1.
<mgrwt>
<rscale>  0 0.29629249E+02</rscale>
<asrwt>0</asrwt>
<pdfrwt beam="1">  1        4 0.13323842E-01 0.29629249E+02</pdfrwt>
<pdfrwt beam="2">  1       -4 0.38987473E-03 0.29629249E+02</pdfrwt>
<totfact> 0.44055228E+05</totfact>
</mgrwt>
</event>
<event>
 4    1  0.5401488E-001  0.6862724E+02  0.7818608E-02  0.1364824E+00
         -4   -1    0    0    0  501 -0.00000000000E+00  0.00000000000E+00  0.26475804441E+02  0.26513857147E+02  0.14200000000E+01 0. -1.
          4   -1    0    0  501    0  0.00000000000E+00 -0.00000000000E+00 -0.44390374941E+02  0.44413081264E+02  0.14200000000E+01 0.  1.
        -11    1    1    2    0    0  0.56681283103E+01  0.25627179240E+02 -0.31801003743E+02  0.41233285507E+02  0.51100000000E-03 0.  1.
         11    1    1    2    0    0 -0.56681283103E+01 -0.25627179240E+02  0.13886433244E+02  0.29693652905E+02  0.51100000000E-03 0. -1.
<mgrwt>
<rscale>  0 0.68627245E+02</rscale>
<asrwt>0</asrwt>
<pdfrwt beam="2">  1        4 0.68339622E-02 0.68627245E+02</pdfrwt>
<pdfrwt beam="1">  1       -4 0.40778745E-02 0.68627245E+02</pdfrwt>
<totfact> 0.60561717E+04</totfact>
</mgrwt>
</event>
<event>
 4    1  0.5401488E-001  0.5345757E+02  0.7818608E-02  0.1427537E+00
         -4   -1    0    0    0  501 -0.00000000000E+00  0.00000000000E+00  0.49617251598E+02  0.49637566985E+02  0.14200000000E+01 0. -1.
          4   -1    0    0  501    0  0.00000000000E+00 -0.00000000000E+00 -0.14340443965E+02  0.14410577126E+02  0.14200000000E+01 0.  1.
        -11    1    1    2    0    0 -0.75881212371E+01 -0.99475265385E+01 -0.10660759670E+02  0.16437294946E+02  0.51100000000E-03 0.  1.
         11    1    1    2    0    0  0.75881212371E+01  0.99475265385E+01  0.45937567303E+02  0.47610849164E+02  0.51100000000E-03 0. -1.
<mgrwt>
<rscale>  0 0.53457568E+02</rscale>
<asrwt>0</asrwt>
<pdfrwt beam="2">  1        4 0.22131798E-02 0.53457568E+02</pdfrwt>
<pdfrwt beam="1">  1       -4 0.76403808E-02 0.53457568E+02</pdfrwt>
<totfact> 0.11699096E+05</totfact>
</mgrwt>
</event>
<event>
 4    1  0.5401488E-001  0.2545577E+02  0.7818608E-02  0.1654540E+00
         -4   -1    0    0    0  501 -0.00000000000E+00  0.00000000000E+00  0.25173675091E+02  0.25213693057E+02  0.14200000000E+01 0.  1.
          4   -1    0    0  501    0  0.00000000000E+00 -0.00000000000E+00 -0.63111776789E+01  0.64689538331E+01  0.14200000000E+01 0. -1.
        -11    1    1    2    0    0  0.10980570568E+02  0.16874374288E+01  0.17007236452E+01  0.11238898356E+02  0.51100000000E-03 0. -1.
         11    1    1    2    0    0 -0.10980570568E+02 -0.16874374288E+01  0.17161773767E+02  0.20443748535E+02  0.51100000000E-03 0.  1.
<mgrwt>
<rscale>  0 0.25455772E+02</rscale>
<asrwt>0</asrwt>
<pdfrwt beam="2">  1        4 0.98616535E-03 0.25455772E+02</pdfrwt>
<pdfrwt beam="1">  1       -4 0.38880880E-02 0.25455772E+02</pdfrwt>
<totfact> 0.74412355E+05</totfact>
</mgrwt>
</event>
<event>
 4    1  0.5401488E-001  0.3969993E+02  0.7818608E-02  0.1510431E+00
         -4   -1    0    0    0  501 -0.00000000000E+00  0.00000000000E+00  0.22041157673E+02  0.22086852007E+02  0.14200000000E+01 0. -1.
          4   -1    0    0  501    0  0.00000000000E+00 -0.00000000000E+00 -0.17784067058E+02  0.17840668180E+02  0.14200000000E+01 0.  1.
        -11    1    1    2    0    0  0.32974269818E+01 -0.16462875826E+02  0.12778003204E+02  0.21099210206E+02  0.51100000000E-03 0. -1.
         11    1    1    2    0    0 -0.32974269818E+01  0.16462875826E+02 -0.85209125884E+01  0.18828309982E+02  0.51100000000E-03 0.  1.
<mgrwt>
<rscale>  0 0.39699925E+02</rscale>
<asrwt>0</asrwt>
<pdfrwt beam="2">  1        4 0.27438792E-02 0.39699925E+02</pdfrwt>
<pdfrwt beam="1">  1       -4 0.33988162E-02 0.39699925E+02</pdfrwt>
<totfact> 0.26146906E+05</totfact>
</mgrwt>
</event>
<event>
 4    1  0.5401488E-001  0.2880574E+02  0.7818608E-02  0.1611678E+00
          4   -1    0    0  501    0  0.00000000000E+00  0.00000000000E+00  0.30872758362E+02  0.30905397731E+02  0.14200000000E+01 0.  1.
         -4   -1    0    0    0  501 -0.00000000000E+00 -0.00000000000E+00 -0.66076203984E+01  0.67584796611E+01  0.14200000000E+01 0. -1.
        -11    1    1    2    0    0  0.13471455095E+02 -0.49534750726E+01  0.13693756320E+02  0.19837741305E+02  0.51100000000E-03 0.  1.
         11    1    1    2    0    0 -0.13471455095E+02  0.49534750726E+01  0.10571381644E+02  0.17826136087E+02  0.51100000000E-03 0. -1.
<mgrwt>
<rscale>  0 0.28805741E+02</rscale>
<asrwt>0</asrwt>
<pdfrwt beam="1">  1        4 0.47637705E-02 0.28805741E+02</pdfrwt>
<pdfrwt beam="2">  1       -4 0.10306722E-02 0.28805741E+02</pdfrwt>
<totfact> 0.55382578E+05</totfact>
</mgrwt>
</event>
<event>
 4    1  0.5401488E-001  0.2464271E+02  0.7818608E-02  0.1666188E+00
          4   -1    0    0  501    0  0.00000000000E+00  0.00000000000E+00  0.74409083042E+02  0.74422631230E+02  0.14200000000E+01 0.  1.
         -4   -1    0    0    0  501 -0.00000000000E+00 -0.00000000000E+00 -0.17777778398E+01  0.22752788945E+01  0.14200000000E+01 0. -1.
        -11    1    1    2    0    0 -0.10008081699E+02 -0.55307724210E+01  0.50600369117E+02  0.51876280687E+02  0.51100000000E-03 0.  1.
         11    1    1    2    0    0  0.10008081699E+02  0.55307724210E+01  0.22030936086E+02  0.24821629438E+02  0.51100000000E-03 0. -1.
<mgrwt>
<rscale>  0 0.24642705E+02</rscale>
<asrwt>0</asrwt>
<pdfrwt beam="1">  1        4 0.11486860E-01 0.24642705E+02</pdfrwt>
<pdfrwt beam="2">  1       -4 0.31281583E-03 0.24642705E+02</pdfrwt>
<totfact> 0.68292793E+05</totfact>
</mgrwt>
</event>
<event>
 4    1  0.5401488E-001  0.3224113E+02  0.7818608E-02  0.1574560E+00
          4   -1    0    0  501    0  0.00000000000E+00  0.00000000000E+00  0.23958549929E+02  0.24000594049E+02  0.14200000000E+01 0.  1.
         -4   -1    0    0    0  501 -0.00000000000E+00 -0.00000000000E+00 -0.10748464795E+02  0.10841858486E+02  0.14200000000E+01 0. -1.
        -11    1    1    2    0    0 -0.76264985363E+01  0.94654831052E+01 -0.48376398631E+01  0.13082874686E+02  0.51100000000E-03 0. -1.
         11    1    1    2    0    0  0.76264985363E+01 -0.94654831052E+01  0.18047724997E+02  0.21759577849E+02  0.51100000000E-03 0.  1.
<mgrwt>
<rscale>  0 0.32241125E+02</rscale>
<asrwt>0</asrwt>
<pdfrwt beam="1">  1        4 0.36963490E-02 0.32241125E+02</pdfrwt>
<pdfrwt beam="2">  1       -4 0.16640283E-02 0.32241125E+02</pdfrwt>
<totfact> 0.43349375E+05</totfact>
</mgrwt>
</event>
<event>
 4    1  0.5401488E-001  0.3301289E+02  0.7818608E-02  0.1566989E+00
          4   -1    0    0  501    0  0.00000000000E+00  0.00000000000E+00  0.49163336232E+01  0.51172977532E+01  0.14200000000E+01 0.  1.
         -4   -1    0    0    0  501 -0.00000000000E+00 -0.00000000000E+00 -0.54099426727E+02  0.54118059575E+02  0.14200000000E+01 0. -1.
        -11    1    1    2    0    0 -0.96156330608E+01  0.39707877542E+01 -0.15966980386E+01  0.10525065294E+02  0.51100000000E-03 0.  1.
         11    1    1    2    0    0  0.96156330608E+01 -0.39707877542E+01 -0.47586395065E+02  0.48710292035E+02  0.51100000000E-03 0. -1.
<mgrwt>
<rscale>  0 0.33012890E+02</rscale>
<asrwt>0</asrwt>
<pdfrwt beam="1">  1        4 0.77325113E-03 0.33012890E+02</pdfrwt>
<pdfrwt beam="2">  1       -4 0.83398804E-02 0.33012890E+02</pdfrwt>
<totfact> 0.37775237E+05</totfact>
</mgrwt>
</event>
<event>
 4    1  0.5401488E-001  0.2521735E+02  0.7818608E-02  0.1657900E+00
         -4   -1    0    0    0  501 -0.00000000000E+00  0.00000000000E+00  0.28604843136E+01  0.31935513943E+01  0.14200000000E+01 0. -1.
          4   -1    0    0  501    0  0.00000000000E+00 -0.00000000000E+00 -0.52176641074E+02  0.52195960321E+02  0.14200000000E+01 0.  1.
        -11    1    1    2    0    0  0.57537448601E+00 -0.11964705288E+02 -0.16012339999E+02  0.19997006299E+02  0.51100000000E-03 0. -1.
         11    1    1    2    0    0 -0.57537448601E+00  0.11964705288E+02 -0.33303816762E+02  0.35392505416E+02  0.51100000000E-03 0.  1.
<mgrwt>
<rscale>  0 0.25217349E+02</rscale>
<asrwt>0</asrwt>
<pdfrwt beam="2">  1        4 0.80542816E-02 0.25217349E+02</pdfrwt>
<pdfrwt beam="1">  1       -4 0.46718119E-03 0.25217349E+02</pdfrwt>
<totfact> 0.69644910E+05</totfact>
</mgrwt>
</event>
<event>
 4    1  0.5401488E-001  0.5092293E+02  0.7818608E-02  0.1440426E+00
         -4   -1    0    0    0  501 -0.00000000000E+00  0.00000000000E+00  0.13200432842E+02  0.13276589442E+02  0.14200000000E+01 0.  1.
          4   -1    0    0  501    0  0.00000000000E+00 -0.00000000000E+00 -0.48883217952E+02  0.48903838268E+02  0.14200000000E+01 0. -1.
        -11    1    1    2    0    0  0.17854800520E+02  0.12284017814E+02 -0.15230841185E+01  0.21725809093E+02  0.51100000000E-03 0. -1.
         11    1    1    2    0    0 -0.17854800520E+02 -0.12284017814E+02 -0.34159700992E+02  0.40454618617E+02  0.51100000000E-03 0.  1.
<mgrwt>
<rscale>  0 0.50922926E+02</rscale>
<asrwt>0</asrwt>
<pdfrwt beam="2">  1        4 0.75279393E-02 0.50922926E+02</pdfrwt>
<pdfrwt beam="1">  1       -4 0.20382802E-02 0.50922926E+02</pdfrwt>
<totfact> 0.13281182E+05</totfact>
</mgrwt>
</event>
<event>
 4    1  0.5401488E-001  0.2758560E+02  0.7818608E-02  0.1626420E+00
         -4   -1    0    0    0  501 -0.00000000000E+00  0.00000000000E+00  0.87956358193E+02  0.87967819949E+02  0.14200000000E+01 0. -1.
          4   -1    0    0  501    0  0.00000000000E+00 -0.00000000000E+00 -0.19169629945E+01  0.23856125256E+01  0.14200000000E+01 0.  1.
        -11    1    1    2    0    0 -0.80961559780E+01  0.10458902368E+02  0.55833496121E+02  0.57378703974E+02  0.51100000000E-03 0. -1.
         11    1    1    2    0    0  0.80961559780E+01 -0.10458902368E+02  0.30205899078E+02  0.32974728501E+02  0.51100000000E-03 0.  1.
<mgrwt>
<rscale>  0 0.27585598E+02</rscale>
<asrwt>0</asrwt>
<pdfrwt beam="2">  1        4 0.33184902E-03 0.27585598E+02</pdfrwt>
<pdfrwt beam="1">  1       -4 0.13568679E-01 0.27585598E+02</pdfrwt>
<totfact> 0.51383828E+05</totfact>
</mgrwt>
</event>
<event>
 4    1  0.5401488E-001  0.5039697E+02  0.7818608E-02  0.1443212E+00
          4   -1    0    0  501    0  0.00000000000E+00  0.00000000000E+00  0.12300649875E+02  0.12382341755E+02  0.14200000000E+01 0. -1.
         -4   -1    0    0    0  501 -0.00000000000E+00 -0.00000000000E+00 -0.51357950612E+02  0.51377577708E+02  0.14200000000E+01 0.  1.
        -11    1    1    2    0    0 -0.28697103464E+01 -0.13065906126E+02 -0.46545254409E+02  0.48429472933E+02  0.51100000000E-03 0.  1.
         11    1    1    2    0    0  0.28697103464E+01  0.13065906126E+02  0.74879536707E+01  0.15330446529E+02  0.51100000000E-03 0. -1.
<mgrwt>
<rscale>  0 0.50396970E+02</rscale>
<asrwt>0</asrwt>
<pdfrwt beam="1">  1        4 0.19002015E-02 0.50396970E+02</pdfrwt>
<pdfrwt beam="2">  1       -4 0.79090168E-02 0.50396970E+02</pdfrwt>
<totfact> 0.13564756E+05</totfact>
</mgrwt>
</event>
<event>
 4    1  0.5401488E-001  0.4341207E+02  0.7818608E-02  0.1484505E+00
          4   -1    0    0  501    0  0.00000000000E+00  0.00000000000E+00  0.25801458151E+01  0.29450895449E+01  0.14200000000E+01 0. -1.
         -4   -1    0    0    0  501 -0.00000000000E+00 -0.00000000000E+00 -0.17017740028E+03  0.17018332458E+03  0.14200000000E+01 0.  1.
        -11    1    1    2    0    0 -0.18155216912E+02  0.11629247941E+02 -0.73788201322E+02  0.76873597310E+02  0.51100000000E-03 0. -1.
         11    1    1    2    0    0  0.18155216912E+02 -0.11629247941E+02 -0.93809053143E+02  0.96254816817E+02  0.51100000000E-03 0.  1.
<mgrwt>
<rscale>  0 0.43412073E+02</rscale>
<asrwt>0</asrwt>
<pdfrwt beam="1">  1        4 0.42547395E-03 0.43412073E+02</pdfrwt>
<pdfrwt beam="2">  1       -4 0.26209659E-01 0.43412073E+02</pdfrwt>
<totfact> 0.14812854E+05</totfact>
</mgrwt>
</event>
<event>
 4    1  0.5401488E-001  0.2633090E+02  0.7818608E-02  0.1642590E+00
          4   -1    0    0  501    0  0.00000000000E+00  0.00000000000E+00  0.56922075158E+01  0.58666537654E+01  0.14200000000E+01 0.  1.
         -4   -1    0    0    0  501 -0.00000000000E+00 -0.00000000000E+00 -0.29799077406E+02  0.29832891483E+02  0.14200000000E+01 0. -1.
        -11    1    1    2    0    0  0.78580471965E+01 -0.94052530719E+01 -0.55340893991E+01  0.13447447223E+02  0.51100000000E-03 0.  1.
         11    1    1    2    0    0 -0.78580471965E+01  0.94052530719E+01 -0.18572780491E+02  0.22252098025E+02  0.51100000000E-03 0. -1.
<mgrwt>
<rscale>  0 0.26330901E+02</rscale>
<asrwt>0</asrwt>
<pdfrwt beam="1">  1        4 0.89174427E-03 0.26330901E+02</pdfrwt>
<pdfrwt beam="2">  1       -4 0.46004934E-02 0.26330901E+02</pdfrwt>
<totfact> 0.68049425E+05</totfact>
</mgrwt>
</event>
<event>
 4    1  0.5401488E-001  0.2605558E+02  0.7818608E-02  0.1646287E+00
          4   -1    0    0  501    0  0.00000000000E+00  0.00000000000E+00  0.53510784267E+02  0.53529622014E+02  0.14200000000E+01 0.  1.
         -4   -1    0    0    0  501 -0.00000000000E+00 -0.00000000000E+00 -0.29924226061E+01  0.33122489420E+01  0.14200000000E+01 0. -1.
        -11    1    1    2    0    0  0.10359433285E+02  0.78995223622E+01  0.25138791158E+02  0.28313938841E+02  0.51100000000E-03 0.  1.
         11    1    1    2    0    0 -0.10359433285E+02 -0.78995223622E+01  0.25379570504E+02  0.28527932115E+02  0.51100000000E-03 0. -1.
<mgrwt>
<rscale>  0 0.26055583E+02</rscale>
<asrwt>0</asrwt>
<pdfrwt beam="1">  1        4 0.82584793E-02 0.26055583E+02</pdfrwt>
<pdfrwt beam="2">  1       -4 0.48642380E-03 0.26055583E+02</pdfrwt>
<totfact> 0.64567144E+05</totfact>
</mgrwt>
</event>
<event>
 4    1  0.5401488E-001  0.2883431E+02  0.7818608E-02  0.1611343E+00
         -4   -1    0    0    0  501 -0.00000000000E+00  0.00000000000E+00  0.65556721778E+02  0.65572099023E+02  0.14200000000E+01 0. -1.
          4   -1    0    0  501    0  0.00000000000E+00 -0.00000000000E+00 -0.29950498934E+01  0.33146227333E+01  0.14200000000E+01 0.  1.
        -11    1    1    2    0    0 -0.61048380044E+01  0.12564798879E+02  0.39798471571E+02  0.42178923144E+02  0.51100000000E-03 0.  1.
         11    1    1    2    0    0  0.61048380044E+01 -0.12564798879E+02  0.22763200314E+02  0.26707798613E+02  0.51100000000E-03 0. -1.
<mgrwt>
<rscale>  0 0.28834314E+02</rscale>
<asrwt>0</asrwt>
<pdfrwt beam="2">  1        4 0.48654228E-03 0.28834314E+02</pdfrwt>
<pdfrwt beam="1">  1       -4 0.10111415E-01 0.28834314E+02</pdfrwt>
<totfact> 0.49720751E+05</totfact>
</mgrwt>
</event>
<event>
 4    1  0.5401488E-001  0.2942933E+02  0.7818608E-02  0.1604484E+00
          4   -1    0    0  501    0  0.00000000000E+00  0.00000000000E+00  0.47195631344E+02  0.47216988658E+02  0.14200000000E+01 0. -1.
         -4   -1    0    0    0  501 -0.00000000000E+00 -0.00000000000E+00 -0.44549037228E+01  0.46757424201E+01  0.14200000000E+01 0.  1.
        -11    1    1    2    0    0  0.10578226859E+02 -0.86531130435E+01  0.30987410618E+02  0.33867312646E+02  0.51100000000E-03 0. -1.
         11    1    1    2    0    0 -0.10578226859E+02  0.86531130435E+01  0.11753317003E+02  0.18025418432E+02  0.51100000000E-03 0.  1.
<mgrwt>
<rscale>  0 0.29429335E+02</rscale>
<asrwt>0</asrwt>
<pdfrwt beam="1">  1        4 0.72794970E-02 0.29429335E+02</pdfrwt>
<pdfrwt beam="2">  1       -4 0.70400025E-03 0.29429335E+02</pdfrwt>
<totfact> 0.50211919E+05</totfact>
</mgrwt>
</event>
<event>
 4    1  0.5401488E-001  0.2385689E+02  0.7818608E-02  0.1677985E+00
          4   -1    0    0  501    0  0.00000000000E+00  0.00000000000E+00  0.39684033548E+02  0.39709431104E+02  0.14200000000E+01 0.  1.
         -4   -1    0    0    0  501 -0.00000000000E+00 -0.00000000000E+00 -0.34172837298E+01  0.37005713194E+01  0.14200000000E+01 0. -1.
        -11    1    1    2    0    0  0.11505732554E+02  0.27970036979E+01  0.20759330125E+02  0.23898847227E+02  0.51100000000E-03 0.  1.
         11    1    1    2    0    0 -0.11505732554E+02 -0.27970036979E+01  0.15507419693E+02  0.19511155196E+02  0.51100000000E-03 0. -1.
<mgrwt>
<rscale>  0 0.23856889E+02</rscale>
<asrwt>0</asrwt>
<pdfrwt beam="1">  1        4 0.61289811E-02 0.23856889E+02</pdfrwt>
<pdfrwt beam="2">  1       -4 0.54948096E-03 0.23856889E+02</pdfrwt>
<totfact> 0.81829734E+05</totfact>
</mgrwt>
</event>
<event>
 4    1  0.5401488E-001  0.3402148E+02  0.7818608E-02  0.1557466E+00
          4   -1    0    0  501    0  0.00000000000E+00  0.00000000000E+00  0.17126832999E+02  0.17185598872E+02  0.14200000000E+01 0.  1.
         -4   -1    0    0    0  501 -0.00000000000E+00 -0.00000000000E+00 -0.16777685977E+02  0.16837670466E+02  0.14200000000E+01 0. -1.
        -11    1    1    2    0    0  0.13835791885E+02  0.89305435746E+01  0.44387741635E+01  0.17055393925E+02  0.51100000000E-03 0. -1.
         11    1    1    2    0    0 -0.13835791885E+02 -0.89305435746E+01 -0.40896271410E+01  0.16967875413E+02  0.51100000000E-03 0.  1.
<mgrwt>
<rscale>  0 0.34021478E+02</rscale>
<asrwt>0</asrwt>
<pdfrwt beam="1">  1        4 0.26440320E-02 0.34021478E+02</pdfrwt>
<pdfrwt beam="2">  1       -4 0.25903171E-02 0.34021478E+02</pdfrwt>
<totfact> 0.38410976E+05</totfact>
</mgrwt>
</event>
<event>
 4    1  0.5401488E-001  0.2463694E+02  0.7818608E-02  0.1666272E+00
          4   -1    0    0  501    0  0.00000000000E+00  0.00000000000E+00  0.68249687558E+01  0.69711260581E+01  0.14200000000E+01 0. -1.
         -4   -1    0    0    0  501 -0.00000000000E+00 -0.00000000000E+00 -0.21828739702E+02  0.21874877760E+02  0.14200000000E+01 0.  1.
        -11    1    1    2    0    0 -0.25499765621E+00  0.11919185031E+02 -0.11132011053E+02  0.16311151583E+02  0.51100000000E-03 0. -1.
         11    1    1    2    0    0  0.25499765621E+00 -0.11919185031E+02 -0.38717598941E+01  0.12534852235E+02  0.51100000000E-03 0.  1.
<mgrwt>
<rscale>  0 0.24636940E+02</rscale>
<asrwt>0</asrwt>
<pdfrwt beam="1">  1        4 0.10647872E-02 0.24636940E+02</pdfrwt>
<pdfrwt beam="2">  1       -4 0.33730596E-02 0.24636940E+02</pdfrwt>
<totfact> 0.80797276E+05</totfact>
</mgrwt>
</event>
<event>
 4    1  0.5401488E-001  0.2474842E+02  0.7818608E-02  0.1664642E+00
         -4   -1    0    0    0  501 -0.00000000000E+00  0.00000000000E+00  0.11987232161E+01  0.18583157290E+01  0.14200000000E+01 0.  1.
          4   -1    0    0  501    0  0.00000000000E+00 -0.00000000000E+00 -0.99510296818E+02  0.99520427917E+02  0.14200000000E+01 0. -1.
        -11    1    1    2    0    0 -0.11867319993E+02 -0.62366279557E+00 -0.63286076470E+02  0.64392155689E+02  0.51100000000E-03 0.  1.
         11    1    1    2    0    0  0.11867319993E+02  0.62366279557E+00 -0.35025497133E+02  0.36986587958E+02  0.51100000000E-03 0. -1.
<mgrwt>
<rscale>  0 0.24748417E+02</rscale>
<asrwt>0</asrwt>
<pdfrwt beam="2">  1        4 0.15360789E-01 0.24748417E+02</pdfrwt>
<pdfrwt beam="1">  1       -4 0.23593624E-03 0.24748417E+02</pdfrwt>
<totfact> 0.62922251E+05</totfact>
</mgrwt>
</event>
<event>
 4    1  0.5401488E-001  0.2397164E+02  0.7818608E-02  0.1676228E+00
         -4   -1    0    0    0  501 -0.00000000000E+00  0.00000000000E+00  0.44689858667E+02  0.44712412904E+02  0.14200000000E+01 0. -1.
          4   -1    0    0  501    0  0.00000000000E+00 -0.00000000000E+00 -0.30332245821E+01  0.33491568141E+01  0.14200000000E+01 0.  1.
        -11    1    1    2    0    0  0.59733389138E+01 -0.10261953368E+02  0.17551388972E+02  0.21190557327E+02  0.51100000000E-03 0.  1.
         11    1    1    2    0    0 -0.59733389138E+01  0.10261953368E+02  0.24105245113E+02  0.26871012391E+02  0.51100000000E-03 0. -1.
<mgrwt>
<rscale>  0 0.23971636E+02</rscale>
<asrwt>0</asrwt>
<pdfrwt beam="2">  1        4 0.49268741E-03 0.23971636E+02</pdfrwt>
<pdfrwt beam="1">  1       -4 0.69013996E-02 0.23971636E+02</pdfrwt>
<totfact> 0.79641948E+05</totfact>
</mgrwt>
</event>
<event>
 4    1  0.5401488E-001  0.2864168E+02  0.7818608E-02  0.1613607E+00
         -4   -1    0    0    0  501 -0.00000000000E+00  0.00000000000E+00  0.23363208856E+02  0.23406322395E+02  0.14200000000E+01 0. -1.
          4   -1    0    0  501    0  0.00000000000E+00 -0.00000000000E+00 -0.86691566561E+01  0.87846842361E+01  0.14200000000E+01 0.  1.
        -11    1    1    2    0    0 -0.99248912630E+01 -0.10323833042E+02  0.73896603915E+01  0.16114964357E+02  0.51100000000E-03 0.  1.
         11    1    1    2    0    0  0.99248912630E+01  0.10323833042E+02  0.73043918087E+01  0.16076042275E+02  0.51100000000E-03 0. -1.
<mgrwt>
<rscale>  0 0.28641678E+02</rscale>
<asrwt>0</asrwt>
<pdfrwt beam="2">  1        4 0.13459196E-02 0.28641678E+02</pdfrwt>
<pdfrwt beam="1">  1       -4 0.36065429E-02 0.28641678E+02</pdfrwt>
<totfact> 0.57260161E+05</totfact>
</mgrwt>
</event>
<event>
 4    1  0.5401488E-001  0.2933190E+02  0.7818608E-02  0.1605593E+00
          4   -1    0    0  501    0  0.00000000000E+00  0.00000000000E+00  0.11481593272E+03  0.11482471340E+03  0.14200000000E+01 0. -1.
         -4   -1    0    0    0  501 -0.00000000000E+00 -0.00000000000E+00 -0.15941153146E+01  0.21348544766E+01  0.14200000000E+01 0.  1.
        -11    1    1    2    0    0 -0.18971152877E+01 -0.14363918698E+02  0.65676500622E+02  0.67255661033E+02  0.51100000000E-03 0.  1.
         11    1    1    2    0    0  0.18971152877E+01  0.14363918698E+02  0.47545316784E+02  0.49703906839E+02  0.51100000000E-03 0. -1.
<mgrwt>
<rscale>  0 0.29331904E+02</rscale>
<asrwt>0</asrwt>
<pdfrwt beam="1">  1        4 0.17706264E-01 0.29331904E+02</pdfrwt>
<pdfrwt beam="2">  1       -4 0.28751920E-03 0.29331904E+02</pdfrwt>
<totfact> 0.41735365E+05</totfact>
</mgrwt>
</event>
<event>
 4    1  0.5401488E-001  0.2505268E+02  0.7818608E-02  0.1660246E+00
          4   -1    0    0  501    0  0.00000000000E+00  0.00000000000E+00  0.25940933017E+01  0.29573163608E+01  0.14200000000E+01 0. -1.
         -4   -1    0    0    0  501 -0.00000000000E+00 -0.00000000000E+00 -0.56156718028E+02  0.56174668488E+02  0.14200000000E+01 0.  1.
        -11    1    1    2    0    0  0.11198635211E+02  0.10148804424E+01 -0.39810071574E+02  0.41367634836E+02  0.51100000000E-03 0.  1.
         11    1    1    2    0    0 -0.11198635211E+02 -0.10148804424E+01 -0.13752553153E+02  0.17764350013E+02  0.51100000000E-03 0. -1.
<mgrwt>
<rscale>  0 0.25052682E+02</rscale>
<asrwt>0</asrwt>
<pdfrwt beam="1">  1        4 0.42841236E-03 0.25052682E+02</pdfrwt>
<pdfrwt beam="2">  1       -4 0.86688153E-02 0.25052682E+02</pdfrwt>
<totfact> 0.69748773E+05</totfact>
</mgrwt>
</event>
<event>
 4    1  0.5401488E-001  0.3278339E+02  0.7818608E-02  0.1569214E+00
          4   -1    0    0  501    0  0.00000000000E+00  0.00000000000E+00  0.11383708479E+02  0.11471931779E+02  0.14200000000E+01 0.  1.
         -4   -1    0    0    0  501 -0.00000000000E+00 -0.00000000000E+00 -0.23401884191E+02  0.23444926609E+02  0.14200000000E+01 0. -1.
        -11    1    1    2    0    0  0.85059518131E+01  0.13148400929E+02 -0.85077293588E+00  0.15682967771E+02  0.51100000000E-03 0.  1.
         11    1    1    2    0    0 -0.85059518131E+01 -0.13148400929E+02 -0.11167402777E+02  0.19233890617E+02  0.51100000000E-03 0. -1.
<mgrwt>
<rscale>  0 0.32783387E+02</rscale>
<asrwt>0</asrwt>
<pdfrwt beam="1">  1        4 0.17614371E-02 0.32783387E+02</pdfrwt>
<pdfrwt beam="2">  1       -4 0.36103872E-02 0.32783387E+02</pdfrwt>
<totfact> 0.41707829E+05</totfact>
</mgrwt>
</event>
<event>
 4    1  0.5401488E-001  0.3204731E+02  0.7818608E-02  0.1576502E+00
         -4   -1    0    0    0  501 -0.00000000000E+00  0.00000000000E+00  0.37608407156E+02  0.37635205444E+02  0.14200000000E+01 0.  1.
          4   -1    0    0  501    0  0.00000000000E+00 -0.00000000000E+00 -0.67237171538E+01  0.68720282569E+01  0.14200000000E+01 0. -1.
        -11    1    1    2    0    0  0.12128578541E+02  0.10356641348E+02  0.13293067971E+02  0.20762179408E+02  0.51100000000E-03 0. -1.
         11    1    1    2    0    0 -0.12128578541E+02 -0.10356641348E+02  0.17591622031E+02  0.23745054293E+02  0.51100000000E-03 0.  1.
<mgrwt>
<rscale>  0 0.32047305E+02</rscale>
<asrwt>0</asrwt>
<pdfrwt beam="2">  1        4 0.10478880E-02 0.32047305E+02</pdfrwt>
<pdfrwt beam="1">  1       -4 0.57993786E-02 0.32047305E+02</pdfrwt>
<totfact> 0.42461154E+05</totfact>
</mgrwt>
</event>
<event>
 4    1  0.5401488E-001  0.2476962E+02  0.7818608E-02  0.1664333E+00
          4   -1    0    0  501    0  0.00000000000E+00  0.00000000000E+00  0.70389797679E+02  0.70404119321E+02  0.14200000000E+01 0. -1.
         -4   -1    0    0    0  501 -0.00000000000E+00 -0.00000000000E+00 -0.19315960033E+01  0.23973867273E+01  0.14200000000E+01 0.  1.
        -11    1    1    2    0    0  0.10298318828E+02  0.89661201910E+00  0.54276613727E+02  0.55252240514E+02  0.51100000000E-03 0. -1.
         11    1    1    2    0    0 -0.10298318828E+02 -0.89661201910E+00  0.14181587949E+02  0.17549265535E+02  0.51100000000E-03 0.  1.
<mgrwt>
<rscale>  0 0.24769617E+02</rscale>
<asrwt>0</asrwt>
<pdfrwt beam="1">  1        4 0.10866131E-01 0.24769617E+02</pdfrwt>
<pdfrwt beam="2">  1       -4 0.33410036E-03 0.24769617E+02</pdfrwt>
<totfact> 0.68372606E+05</totfact>
</mgrwt>
</event>
<event>
 4    1  0.5401488E-001  0.4834547E+02  0.7818608E-02  0.1454475E+00
         -4   -1    0    0    0  501 -0.00000000000E+00  0.00000000000E+00  0.26975243278E+02  0.27012592432E+02  0.14200000000E+01 0. -1.
          4   -1    0    0  501    0  0.00000000000E+00 -0.00000000000E+00 -0.21585709494E+02  0.21632365898E+02  0.14200000000E+01 0.  1.
        -11    1    1    2    0    0 -0.18631343335E+02  0.15400523025E+02  0.25591732113E+01  0.24307456298E+02  0.51100000000E-03 0.  1.
         11    1    1    2    0    0  0.18631343335E+02 -0.15400523025E+02  0.28303605730E+01  0.24337502032E+02  0.51100000000E-03 0. -1.
<mgrwt>
<rscale>  0 0.48345474E+02</rscale>
<asrwt>0</asrwt>
<pdfrwt beam="2">  1        4 0.33273403E-02 0.48345474E+02</pdfrwt>
<pdfrwt beam="1">  1       -4 0.41564994E-02 0.48345474E+02</pdfrwt>
<totfact> 0.15737428E+05</totfact>
</mgrwt>
</event>
<event>
 4    1  0.5401488E-001  0.3218031E+02  0.7818608E-02  0.1575167E+00
          4   -1    0    0  501    0  0.00000000000E+00  0.00000000000E+00  0.12006095244E+03  0.12006934955E+03  0.14200000000E+01 0. -1.
         -4   -1    0    0    0  501 -0.00000000000E+00 -0.00000000000E+00 -0.19131684786E+01  0.23825645065E+01  0.14200000000E+01 0.  1.
        -11    1    1    2    0    0  0.11677928241E+02 -0.84157330273E+01  0.31715054619E+02  0.34828770580E+02  0.51100000000E-03 0.  1.
         11    1    1    2    0    0 -0.11677928241E+02  0.84157330273E+01  0.86432729342E+02  0.87623143473E+02  0.51100000000E-03 0. -1.
<mgrwt>
<rscale>  0 0.32180311E+02</rscale>
<asrwt>0</asrwt>
<pdfrwt beam="1">  1        4 0.18507664E-01 0.32180311E+02</pdfrwt>
<pdfrwt beam="2">  1       -4 0.33108701E-03 0.32180311E+02</pdfrwt>
<totfact> 0.33448036E+05</totfact>
</mgrwt>
</event>
<event>
 4    1  0.5401488E-001  0.5785993E+02  0.7818608E-02  0.1407039E+00
         -4   -1    0    0    0  501 -0.00000000000E+00  0.00000000000E+00  0.71434062258E+01  0.72831759904E+01  0.14200000000E+01 0.  1.
          4   -1    0    0  501    0  0.00000000000E+00 -0.00000000000E+00 -0.11588372527E+03  0.11589242504E+03  0.14200000000E+01 0. -1.
        -11    1    1    2    0    0  0.10762650804E+02  0.25296174276E+02 -0.73554922997E+02  0.78524249648E+02  0.51100000000E-03 0. -1.
         11    1    1    2    0    0 -0.10762650804E+02 -0.25296174276E+02 -0.35185396047E+02  0.44651351386E+02  0.51100000000E-03 0.  1.
<mgrwt>
<rscale>  0 0.57859932E+02</rscale>
<asrwt>0</asrwt>
<pdfrwt beam="2">  1        4 0.17839685E-01 0.57859932E+02</pdfrwt>
<pdfrwt beam="1">  1       -4 0.11104064E-02 0.57859932E+02</pdfrwt>
<totfact> 0.82180577E+04</totfact>
</mgrwt>
</event>
<event>
 4    1  0.5401488E-001  0.3700728E+02  0.7818608E-02  0.1531465E+00
         -4   -1    0    0    0  501 -0.00000000000E+00  0.00000000000E+00  0.39298360764E+01  0.41785178697E+01  0.14200000000E+01 0.  1.
          4   -1    0    0  501    0  0.00000000000E+00 -0.00000000000E+00 -0.84197492318E+02  0.84209465695E+02  0.14200000000E+01 0. -1.
        -11    1    1    2    0    0  0.11017622997E+02 -0.59374075500E+01 -0.75829032075E+01  0.14633565739E+02  0.51100000000E-03 0.  1.
         11    1    1    2    0    0 -0.11017622997E+02  0.59374075500E+01 -0.72684753034E+02  0.73754417826E+02  0.51100000000E-03 0. -1.
<mgrwt>
<rscale>  0 0.37007283E+02</rscale>
<asrwt>0</asrwt>
<pdfrwt beam="2">  1        4 0.12973509E-01 0.37007283E+02</pdfrwt>
<pdfrwt beam="1">  1       -4 0.62464063E-03 0.37007283E+02</pdfrwt>
<totfact> 0.26593949E+05</totfact>
</mgrwt>
</event>
<event>
 4    1  0.5401488E-001  0.2234465E+02  0.7818608E-02  0.1702359E+00
          4   -1    0    0  501    0  0.00000000000E+00  0.00000000000E+00  0.51009809712E+01  0.52949416303E+01  0.14200000000E+01 0. -1.
         -4   -1    0    0    0  501 -0.00000000000E+00 -0.00000000000E+00 -0.23797905174E+02  0.23840232605E+02  0.14200000000E+01 0.  1.
        -11    1    1    2    0    0  0.31329459707E+01  0.10693524807E+02 -0.82939732817E+01  0.13890889688E+02  0.51100000000E-03 0. -1.
         11    1    1    2    0    0 -0.31329459707E+01 -0.10693524807E+02 -0.10402950921E+02  0.15244284548E+02  0.51100000000E-03 0.  1.
<mgrwt>
<rscale>  0 0.22344650E+02</rscale>
<asrwt>0</asrwt>
<pdfrwt beam="1">  1        4 0.80294232E-03 0.22344650E+02</pdfrwt>
<pdfrwt beam="2">  1       -4 0.36793921E-02 0.22344650E+02</pdfrwt>
<totfact> 0.99351948E+05</totfact>
</mgrwt>
</event>
<event>
 4    1  0.5401488E-001  0.2995795E+02  0.7818608E-02  0.1598554E+00
         -4   -1    0    0    0  501 -0.00000000000E+00  0.00000000000E+00  0.55695791292E+02  0.55713890257E+02  0.14200000000E+01 0. -1.
          4   -1    0    0  501    0  0.00000000000E+00 -0.00000000000E+00 -0.38839913249E+01  0.41354308859E+01  0.14200000000E+01 0.  1.
        -11    1    1    2    0    0  0.21032986631E+01 -0.14245316040E+02  0.34147008468E+02  0.37059021600E+02  0.51100000000E-03 0.  1.
         11    1    1    2    0    0 -0.21032986631E+01  0.14245316040E+02  0.17664791498E+02  0.22790299543E+02  0.51100000000E-03 0. -1.
<mgrwt>
<rscale>  0 0.29957948E+02</rscale>
<asrwt>0</asrwt>
<pdfrwt beam="2">  1        4 0.61827093E-03 0.29957948E+02</pdfrwt>
<pdfrwt beam="1">  1       -4 0.85893160E-02 0.29957948E+02</pdfrwt>
<totfact> 0.46991588E+05</totfact>
</mgrwt>
</event>
<event>
 4    1  0.5401488E-001  0.3041775E+02  0.7818608E-02  0.1593516E+00
         -4   -1    0    0    0  501 -0.00000000000E+00  0.00000000000E+00  0.20787210488E+02  0.20835655014E+02  0.14200000000E+01 0.  1.
          4   -1    0    0  501    0  0.00000000000E+00 -0.00000000000E+00 -0.11020504699E+02  0.11111612116E+02  0.14200000000E+01 0. -1.
        -11    1    1    2    0    0  0.75604989374E-01  0.13219090231E+02  0.12782141480E+02  0.18388398618E+02  0.51100000000E-03 0.  1.
         11    1    1    2    0    0 -0.75604989374E-01 -0.13219090231E+02 -0.30154356907E+01  0.13558868512E+02  0.51100000000E-03 0. -1.
<mgrwt>
<rscale>  0 0.30417747E+02</rscale>
<asrwt>0</asrwt>
<pdfrwt beam="2">  1        4 0.17061970E-02 0.30417747E+02</pdfrwt>
<pdfrwt beam="1">  1       -4 0.32087671E-02 0.30417747E+02</pdfrwt>
<totfact> 0.50050566E+05</totfact>
</mgrwt>
</event>
<event>
 4    1  0.5401488E-001  0.2222604E+02  0.7818608E-02  0.1704372E+00
         -4   -1    0    0    0  501 -0.00000000000E+00  0.00000000000E+00  0.66659450191E+01  0.68155134067E+01  0.14200000000E+01 0. -1.
          4   -1    0    0  501    0  0.00000000000E+00 -0.00000000000E+00 -0.18143733660E+02  0.18199216223E+02  0.14200000000E+01 0.  1.
        -11    1    1    2    0    0 -0.42961639619E+01  0.90957653486E+01 -0.42299748317E+00  0.10068212314E+02  0.51100000000E-03 0. -1.
         11    1    1    2    0    0  0.42961639619E+01 -0.90957653486E+01 -0.11054791157E+02  0.14946517315E+02  0.51100000000E-03 0.  1.
<mgrwt>
<rscale>  0 0.22226045E+02</rscale>
<asrwt>0</asrwt>
<pdfrwt beam="2">  1        4 0.28071168E-02 0.22226045E+02</pdfrwt>
<pdfrwt beam="1">  1       -4 0.10413032E-02 0.22226045E+02</pdfrwt>
<totfact> 0.10222617E+06</totfact>
</mgrwt>
</event>
<event>
 4    1  0.5401488E-001  0.2582384E+02  0.7818608E-02  0.1649443E+00
          4   -1    0    0  501    0  0.00000000000E+00  0.00000000000E+00  0.77285213563E+01  0.78578904520E+01  0.14200000000E+01 0.  1.
         -4   -1    0    0    0  501 -0.00000000000E+00 -0.00000000000E+00 -0.21239426403E+02  0.21286841803E+02  0.14200000000E+01 0. -1.
        -11    1    1    2    0    0  0.95491846192E+01 -0.77460274903E+01 -0.23078826145E+01  0.12510563185E+02  0.51100000000E-03 0.  1.
         11    1    1    2    0    0 -0.95491846192E+01  0.77460274903E+01 -0.11203022432E+02  0.16634169070E+02  0.51100000000E-03 0. -1.
<mgrwt>
<rscale>  0 0.25823843E+02</rscale>
<asrwt>0</asrwt>
<pdfrwt beam="1">  1        4 0.12026021E-02 0.25823843E+02</pdfrwt>
<pdfrwt beam="2">  1       -4 0.32812029E-02 0.25823843E+02</pdfrwt>
<totfact> 0.72848279E+05</totfact>
</mgrwt>
</event>
<event>
 4    1  0.5401488E-001  0.2102587E+02  0.7818608E-02  0.1725665E+00
         -4   -1    0    0    0  501 -0.00000000000E+00  0.00000000000E+00  0.61346176728E+01  0.62968193552E+01  0.14200000000E+01 0. -1.
          4   -1    0    0  501    0  0.00000000000E+00 -0.00000000000E+00 -0.17589837273E+02  0.17647061378E+02  0.14200000000E+01 0.  1.
        -11    1    1    2    0    0  0.10433206695E+02  0.17180067658E-01 -0.71991276426E+01  0.12675943207E+02  0.51100000000E-03 0.  1.
         11    1    1    2    0    0 -0.10433206695E+02 -0.17180067658E-01 -0.42560919577E+01  0.11267937527E+02  0.51100000000E-03 0. -1.
<mgrwt>
<rscale>  0 0.21025874E+02</rscale>
<asrwt>0</asrwt>
<pdfrwt beam="2">  1        4 0.27230077E-02 0.21025874E+02</pdfrwt>
<pdfrwt beam="1">  1       -4 0.96066625E-03 0.21025874E+02</pdfrwt>
<totfact> 0.11533393E+06</totfact>
</mgrwt>
</event>
<event>
 4    1  0.5401488E-001  0.4115039E+02  0.7818608E-02  0.1499912E+00
         -4   -1    0    0    0  501 -0.00000000000E+00  0.00000000000E+00  0.25746199150E+01  0.29402495994E+01  0.14200000000E+01 0.  1.
          4   -1    0    0  501    0  0.00000000000E+00 -0.00000000000E+00 -0.15315714252E+03  0.15316372516E+03  0.14200000000E+01 0. -1.
        -11    1    1    2    0    0  0.54851320890E+01 -0.19751360051E+02 -0.68573653309E+02  0.71571983529E+02  0.51100000000E-03 0. -1.
         11    1    1    2    0    0 -0.54851320890E+01  0.19751360051E+02 -0.82008869296E+02  0.84531991230E+02  0.51100000000E-03 0.  1.
<mgrwt>
<rscale>  0 0.41150393E+02</rscale>
<asrwt>0</asrwt>
<pdfrwt beam="2">  1        4 0.23591262E-01 0.41150393E+02</pdfrwt>
<pdfrwt beam="1">  1       -4 0.42472721E-03 0.41150393E+02</pdfrwt>
<totfact> 0.17473228E+05</totfact>
</mgrwt>
</event>
<event>
 4    1  0.5401488E-001  0.2126093E+02  0.7818608E-02  0.1721356E+00
         -4   -1    0    0    0  501 -0.00000000000E+00  0.00000000000E+00  0.34555485963E+02  0.34584649921E+02  0.14200000000E+01 0. -1.
          4   -1    0    0  501    0  0.00000000000E+00 -0.00000000000E+00 -0.30840901298E+01  0.33952926132E+01  0.14200000000E+01 0.  1.
        -11    1    1    2    0    0 -0.19982624572E+01  0.10429927176E+02  0.14878265624E+02  0.18279475429E+02  0.51100000000E-03 0. -1.
         11    1    1    2    0    0  0.19982624572E+01 -0.10429927176E+02  0.16593130209E+02  0.19700467104E+02  0.51100000000E-03 0.  1.
<mgrwt>
<rscale>  0 0.21260933E+02</rscale>
<asrwt>0</asrwt>
<pdfrwt beam="2">  1        4 0.50065747E-03 0.21260933E+02</pdfrwt>
<pdfrwt beam="1">  1       -4 0.53424103E-02 0.21260933E+02</pdfrwt>
<totfact> 0.10636806E+06</totfact>
</mgrwt>
</event>
<event>
 4    1  0.5401488E-001  0.2073080E+02  0.7818608E-02  0.1731174E+00
          4   -1    0    0  501    0  0.00000000000E+00  0.00000000000E+00  0.18280824263E+02  0.18335892008E+02  0.14200000000E+01 0. -1.
         -4   -1    0    0    0  501 -0.00000000000E+00 -0.00000000000E+00 -0.57265268431E+01  0.58999584477E+01  0.14200000000E+01 0.  1.
        -11    1    1    2    0    0 -0.96508898756E+01  0.35863891110E+01  0.76798693198E+01  0.12844541848E+02  0.51100000000E-03 0. -1.
         11    1    1    2    0    0  0.96508898756E+01 -0.35863891110E+01  0.48744281003E+01  0.11391308608E+02  0.51100000000E-03 0.  1.
<mgrwt>
<rscale>  0 0.20730800E+02</rscale>
<asrwt>0</asrwt>
<pdfrwt beam="1">  1        4 0.28300114E-02 0.20730800E+02</pdfrwt>
<pdfrwt beam="2">  1       -4 0.89858100E-03 0.20730800E+02</pdfrwt>
<totfact> 0.11860951E+06</totfact>
</mgrwt>
</event>
<event>
 4    1  0.5401488E-001  0.5337902E+02  0.7818608E-02  0.1427924E+00
          4   -1    0    0  501    0  0.00000000000E+00  0.00000000000E+00  0.52168398471E+02  0.52187720769E+02  0.14200000000E+01 0.  1.
         -4   -1    0    0    0  501 -0.00000000000E+00 -0.00000000000E+00 -0.13595597630E+02  0.13669552842E+02  0.14200000000E+01 0. -1.
        -11    1    1    2    0    0  0.25219830050E+02  0.73715644078E+01  0.25066713101E+02  0.36314183118E+02  0.51100000000E-03 0. -1.
         11    1    1    2    0    0 -0.25219830050E+02 -0.73715644078E+01  0.13506087740E+02  0.29543090493E+02  0.51100000000E-03 0.  1.
<mgrwt>
<rscale>  0 0.53379018E+02</rscale>
<asrwt>0</asrwt>
<pdfrwt beam="1">  1        4 0.80330827E-02 0.53379018E+02</pdfrwt>
<pdfrwt beam="2">  1       -4 0.20988056E-02 0.53379018E+02</pdfrwt>
<totfact> 0.11681545E+05</totfact>
</mgrwt>
</event>
<event>
 4    1  0.5401488E-001  0.2516839E+02  0.7818608E-02  0.1658595E+00
         -4   -1    0    0    0  501 -0.00000000000E+00  0.00000000000E+00  0.19530881122E+02  0.19582433898E+02  0.14200000000E+01 0. -1.
          4   -1    0    0  501    0  0.00000000000E+00 -0.00000000000E+00 -0.79833104281E+01  0.81086155040E+01  0.14200000000E+01 0.  1.
        -11    1    1    2    0    0 -0.10308457765E+02  0.45780131013E+01  0.11913376712E+02  0.16405823673E+02  0.51100000000E-03 0. -1.
         11    1    1    2    0    0  0.10308457765E+02 -0.45780131013E+01 -0.36580601878E+00  0.11285225729E+02  0.51100000000E-03 0.  1.
<mgrwt>
<rscale>  0 0.25168389E+02</rscale>
<asrwt>0</asrwt>
<pdfrwt beam="2">  1        4 0.12418061E-02 0.25168389E+02</pdfrwt>
<pdfrwt beam="1">  1       -4 0.30183554E-02 0.25168389E+02</pdfrwt>
<totfact> 0.77504586E+05</totfact>
</mgrwt>
</event>
<event>
 4    1  0.5401488E-001  0.2899949E+02  0.7818608E-02  0.1609419E+00
         -4   -1    0    0    0  501 -0.00000000000E+00  0.00000000000E+00  0.39509468218E+01  0.41983783523E+01  0.14200000000E+01 0. -1.
          4   -1    0    0  501    0  0.00000000000E+00 -0.00000000000E+00 -0.51340002745E+02  0.51359636699E+02  0.14200000000E+01 0.  1.
        -11    1    1    2    0    0 -0.94729521101E+01 -0.98230792246E+01 -0.33082648038E+02  0.35786747667E+02  0.51100000000E-03 0.  1.
         11    1    1    2    0    0  0.94729521101E+01  0.98230792246E+01 -0.14306407885E+02  0.19771267384E+02  0.51100000000E-03 0. -1.
<mgrwt>
<rscale>  0 0.28999490E+02</rscale>
<asrwt>0</asrwt>
<pdfrwt beam="2">  1        4 0.79190050E-02 0.28999490E+02</pdfrwt>
<pdfrwt beam="1">  1       -4 0.62838151E-03 0.28999490E+02</pdfrwt>
<totfact> 0.51250478E+05</totfact>
</mgrwt>
</event>
<event>
 4    1  0.5401488E-001  0.3527642E+02  0.7818608E-02  0.1546159E+00
         -4   -1    0    0    0  501 -0.00000000000E+00  0.00000000000E+00  0.84924315224E+02  0.84936186141E+02  0.14200000000E+01 0.  1.
          4   -1    0    0  501    0  0.00000000000E+00 -0.00000000000E+00 -0.35131370831E+01  0.37892653859E+01  0.14200000000E+01 0. -1.
        -11    1    1    2    0    0  0.23253012227E+01  0.14854131864E+02  0.63901508050E+02  0.65646439283E+02  0.51100000000E-03 0.  1.
         11    1    1    2    0    0 -0.23253012227E+01 -0.14854131864E+02  0.17509670091E+02  0.23079012244E+02  0.51100000000E-03 0. -1.
<mgrwt>
<rscale>  0 0.35276420E+02</rscale>
<asrwt>0</asrwt>
<pdfrwt beam="2">  1        4 0.56263643E-03 0.35276420E+02</pdfrwt>
<pdfrwt beam="1">  1       -4 0.13087433E-01 0.35276420E+02</pdfrwt>
<totfact> 0.29697649E+05</totfact>
</mgrwt>
</event>
<event>
 4    1  0.5401488E-001  0.2085392E+02  0.7818608E-02  0.1728861E+00
          4   -1    0    0  501    0  0.00000000000E+00  0.00000000000E+00  0.22940979144E+02  0.22984884687E+02  0.14200000000E+01 0. -1.
         -4   -1    0    0    0  501 -0.00000000000E+00 -0.00000000000E+00 -0.45831768693E+01  0.47981152774E+01  0.14200000000E+01 0.  1.
        -11    1    1    2    0    0 -0.53692097968E+01  0.86646644042E+01  0.12102832268E+02  0.15823506952E+02  0.51100000000E-03 0. -1.
         11    1    1    2    0    0  0.53692097968E+01 -0.86646644042E+01  0.62549700065E+01  0.11959493013E+02  0.51100000000E-03 0.  1.
<mgrwt>
<rscale>  0 0.20853925E+02</rscale>
<asrwt>0</asrwt>
<pdfrwt beam="1">  1        4 0.35492925E-02 0.20853925E+02</pdfrwt>
<pdfrwt beam="2">  1       -4 0.72501520E-03 0.20853925E+02</pdfrwt>
<totfact> 0.11538946E+06</totfact>
</mgrwt>
</event>
<event>
 4    1  0.5401488E-001  0.5148221E+02  0.7818608E-02  0.1437507E+00
          4   -1    0    0  501    0  0.00000000000E+00  0.00000000000E+00  0.80286235909E+02  0.80298792497E+02  0.14200000000E+01 0. -1.
         -4   -1    0    0    0  501 -0.00000000000E+00 -0.00000000000E+00 -0.81786419103E+01  0.83009989457E+01  0.14200000000E+01 0.  1.
        -11    1    1    2    0    0  0.13647987065E+02  0.21273410565E+02  0.44445917580E+02  0.51129884977E+02  0.51100000000E-03 0. -1.
         11    1    1    2    0    0 -0.13647987065E+02 -0.21273410565E+02  0.27661676419E+02  0.37469906465E+02  0.51100000000E-03 0.  1.
<mgrwt>
<rscale>  0 0.51482210E+02</rscale>
<asrwt>0</asrwt>
<pdfrwt beam="1">  1        4 0.12362107E-01 0.51482210E+02</pdfrwt>
<pdfrwt beam="2">  1       -4 0.12686305E-02 0.51482210E+02</pdfrwt>
<totfact> 0.12006974E+05</totfact>
</mgrwt>
</event>
<event>
 4    1  0.5401488E-001  0.3337342E+02  0.7818608E-02  0.1563538E+00
         -4   -1    0    0    0  501 -0.00000000000E+00  0.00000000000E+00  0.35498770294E+02  0.35527159925E+02  0.14200000000E+01 0. -1.
          4   -1    0    0  501    0  0.00000000000E+00 -0.00000000000E+00 -0.77477527879E+01  0.78768060318E+01  0.14200000000E+01 0.  1.
        -11    1    1    2    0    0  0.97487644475E+01 -0.54684502478E+01 -0.22379389960E+01  0.11399593308E+02  0.51100000000E-03 0.  1.
         11    1    1    2    0    0 -0.97487644475E+01  0.54684502478E+01  0.29988956502E+02  0.32004372650E+02  0.51100000000E-03 0. -1.
<mgrwt>
<rscale>  0 0.33373422E+02</rscale>
<asrwt>0</asrwt>
<pdfrwt beam="2">  1        4 0.12040730E-02 0.33373422E+02</pdfrwt>
<pdfrwt beam="1">  1       -4 0.54734602E-02 0.33373422E+02</pdfrwt>
<totfact> 0.38837321E+05</totfact>
</mgrwt>
</event>
<event>
 4    1  0.5401488E-001  0.2329234E+02  0.7818608E-02  0.1686815E+00
         -4   -1    0    0    0  501 -0.00000000000E+00  0.00000000000E+00  0.53429604990E+01  0.55284380158E+01  0.14200000000E+01 0. -1.
          4   -1    0    0  501    0  0.00000000000E+00 -0.00000000000E+00 -0.24746129146E+02  0.24786837388E+02  0.14200000000E+01 0.  1.
        -11    1    1    2    0    0  0.75979676030E+01 -0.74424873784E+01 -0.15877055150E+02  0.19110222672E+02  0.51100000000E-03 0.  1.
         11    1    1    2    0    0 -0.75979676030E+01  0.74424873784E+01 -0.35261134972E+01  0.11205052732E+02  0.51100000000E-03 0. -1.
<mgrwt>
<rscale>  0 0.23292337E+02</rscale>
<asrwt>0</asrwt>
<pdfrwt beam="2">  1        4 0.38244956E-02 0.23292337E+02</pdfrwt>
<pdfrwt beam="1">  1       -4 0.83939284E-03 0.23292337E+02</pdfrwt>
<totfact> 0.90564787E+05</totfact>
</mgrwt>
</event>
<event>
 4    1  0.5401488E-001  0.3148997E+02  0.7818608E-02  0.1582180E+00
         -4   -1    0    0    0  501 -0.00000000000E+00  0.00000000000E+00  0.28144354308E+02  0.28180153999E+02  0.14200000000E+01 0.  1.
          4   -1    0    0  501    0  0.00000000000E+00 -0.00000000000E+00 -0.87093891278E+01  0.88243900061E+01  0.14200000000E+01 0. -1.
        -11    1    1    2    0    0 -0.46396192294E+01 -0.12203326326E+02  0.20059710780E+02  0.23934060183E+02  0.51100000000E-03 0.  1.
         11    1    1    2    0    0  0.46396192294E+01  0.12203326326E+02 -0.62474560032E+00  0.13070483822E+02  0.51100000000E-03 0. -1.
<mgrwt>
<rscale>  0 0.31489973E+02</rscale>
<asrwt>0</asrwt>
<pdfrwt beam="2">  1        4 0.13515061E-02 0.31489973E+02</pdfrwt>
<pdfrwt beam="1">  1       -4 0.43415006E-02 0.31489973E+02</pdfrwt>
<totfact> 0.45392442E+05</totfact>
</mgrwt>
</event>
<event>
 4    1  0.5401488E-001  0.2387227E+02  0.7818608E-02  0.1677749E+00
          4   -1    0    0  501    0  0.00000000000E+00  0.00000000000E+00  0.96320371666E+01  0.97361460537E+01  0.14200000000E+01 0.  1.
         -4   -1    0    0    0  501 -0.00000000000E+00 -0.00000000000E+00 -0.14573089245E+02  0.14642108118E+02  0.14200000000E+01 0. -1.
        -11    1    1    2    0    0 -0.71400756634E+01 -0.78067199013E+01 -0.81144918676E+01  0.13333061712E+02  0.51100000000E-03 0.  1.
         11    1    1    2    0    0  0.71400756634E+01  0.78067199013E+01  0.31734397897E+01  0.11045192459E+02  0.51100000000E-03 0. -1.
<mgrwt>
<rscale>  0 0.23872270E+02</rscale>
<asrwt>0</asrwt>
<pdfrwt beam="1">  1        4 0.14951694E-02 0.23872270E+02</pdfrwt>
<pdfrwt beam="2">  1       -4 0.22553313E-02 0.23872270E+02</pdfrwt>
<totfact> 0.88079740E+05</totfact>
</mgrwt>
</event>
<event>
 4    1  0.5401488E-001  0.2946746E+02  0.7818608E-02  0.1604051E+00
          4   -1    0    0  501    0  0.00000000000E+00  0.00000000000E+00  0.53642510941E+02  0.53661302444E+02  0.14200000000E+01 0.  1.
         -4   -1    0    0    0  501 -0.00000000000E+00 -0.00000000000E+00 -0.39021505497E+01  0.41524906879E+01  0.14200000000E+01 0. -1.
        -11    1    1    2    0    0 -0.13200813058E+01  0.14384606883E+02  0.19176025372E+02  0.24007904514E+02  0.51100000000E-03 0.  1.
         11    1    1    2    0    0  0.13200813058E+01 -0.14384606883E+02  0.30564335019E+02  0.33805888618E+02  0.51100000000E-03 0. -1.
<mgrwt>
<rscale>  0 0.29467460E+02</rscale>
<asrwt>0</asrwt>
<pdfrwt beam="1">  1        4 0.82733965E-02 0.29467460E+02</pdfrwt>
<pdfrwt beam="2">  1       -4 0.62103328E-03 0.29467460E+02</pdfrwt>
<totfact> 0.49089437E+05</totfact>
</mgrwt>
</event>
<event>
 4    1  0.5401488E-001  0.2060141E+02  0.7818608E-02  0.1733626E+00
         -4   -1    0    0    0  501 -0.00000000000E+00  0.00000000000E+00  0.50665408662E+01  0.52617712178E+01  0.14200000000E+01 0.  1.
          4   -1    0    0  501    0  0.00000000000E+00 -0.00000000000E+00 -0.20325875023E+02  0.20375416449E+02  0.14200000000E+01 0. -1.
        -11    1    1    2    0    0  0.94586432198E+01 -0.36074274693E+01 -0.52603061156E+01  0.11408342789E+02  0.51100000000E-03 0. -1.
         11    1    1    2    0    0 -0.94586432198E+01  0.36074274693E+01 -0.99990280413E+01  0.14228844877E+02  0.51100000000E-03 0.  1.
<mgrwt>
<rscale>  0 0.20601410E+02</rscale>
<asrwt>0</asrwt>
<pdfrwt beam="2">  1        4 0.31458862E-02 0.20601410E+02</pdfrwt>
<pdfrwt beam="1">  1       -4 0.79829644E-03 0.20601410E+02</pdfrwt>
<totfact> 0.11942221E+06</totfact>
</mgrwt>
</event>
<event>
 4    1  0.5401488E-001  0.2353359E+02  0.7818608E-02  0.1683004E+00
         -4   -1    0    0    0  501 -0.00000000000E+00  0.00000000000E+00  0.30959454974E+02  0.30992003037E+02  0.14200000000E+01 0.  1.
          4   -1    0    0  501    0  0.00000000000E+00 -0.00000000000E+00 -0.43236553866E+01  0.45508675988E+01  0.14200000000E+01 0. -1.
        -11    1    1    2    0    0 -0.98282496887E+01 -0.63979765550E+01  0.11862306784E+02  0.16680615050E+02  0.51100000000E-03 0. -1.
         11    1    1    2    0    0  0.98282496887E+01  0.63979765550E+01  0.14773492802E+02  0.18862255586E+02  0.51100000000E-03 0.  1.
<mgrwt>
<rscale>  0 0.23533589E+02</rscale>
<asrwt>0</asrwt>
<pdfrwt beam="2">  1        4 0.68515935E-03 0.23533589E+02</pdfrwt>
<pdfrwt beam="1">  1       -4 0.47829744E-02 0.23533589E+02</pdfrwt>
<totfact> 0.86782981E+05</totfact>
</mgrwt>
</event>
<event>
 4    1  0.5401488E-001  0.2171688E+02  0.7818608E-02  0.1713195E+00
         -4   -1    0    0    0  501 -0.00000000000E+00  0.00000000000E+00  0.37683341173E+01  0.40270016166E+01  0.14200000000E+01 0. -1.
          4   -1    0    0  501    0  0.00000000000E+00 -0.00000000000E+00 -0.29974293534E+02  0.30007910171E+02  0.14200000000E+01 0.  1.
        -11    1    1    2    0    0  0.76817152022E+01 -0.76743851830E+01 -0.13147063228E+02  0.17051399009E+02  0.51100000000E-03 0. -1.
         11    1    1    2    0    0 -0.76817152022E+01  0.76743851830E+01 -0.13058896188E+02  0.16983512779E+02  0.51100000000E-03 0.  1.
<mgrwt>
<rscale>  0 0.21716881E+02</rscale>
<asrwt>0</asrwt>
<pdfrwt beam="2">  1        4 0.46339130E-02 0.21716881E+02</pdfrwt>
<pdfrwt beam="1">  1       -4 0.60222713E-03 0.21716881E+02</pdfrwt>
<totfact> 0.10338136E+06</totfact>
</mgrwt>
</event>
<event>
 4    1  0.5401488E-001  0.2924026E+02  0.7818608E-02  0.1606642E+00
          4   -1    0    0  501    0  0.00000000000E+00  0.00000000000E+00  0.11261391764E+02  0.11350565821E+02  0.14200000000E+01 0. -1.
         -4   -1    0    0    0  501 -0.00000000000E+00 -0.00000000000E+00 -0.18789699746E+02  0.18843280409E+02  0.14200000000E+01 0.  1.
        -11    1    1    2    0    0 -0.60035334940E+01 -0.13302265675E+02 -0.46617222515E+01  0.15320716077E+02  0.51100000000E-03 0. -1.
         11    1    1    2    0    0  0.60035334940E+01  0.13302265675E+02 -0.28665857311E+01  0.14873130152E+02  0.51100000000E-03 0.  1.
<mgrwt>
<rscale>  0 0.29240262E+02</rscale>
<asrwt>0</asrwt>
<pdfrwt beam="1">  1        4 0.17435029E-02 0.29240262E+02</pdfrwt>
<pdfrwt beam="2">  1       -4 0.29017042E-02 0.29240262E+02</pdfrwt>
<totfact> 0.55093786E+05</totfact>
</mgrwt>
</event>
<event>
 4    1  0.5401488E-001  0.2083260E+02  0.7818608E-02  0.1729260E+00
          4   -1    0    0  501    0  0.00000000000E+00  0.00000000000E+00  0.52929311151E+02  0.52948355772E+02  0.14200000000E+01 0. -1.
         -4   -1    0    0    0  501 -0.00000000000E+00 -0.00000000000E+00 -0.17821600627E+01  0.22787045638E+01  0.14200000000E+01 0.  1.
        -11    1    1    2    0    0  0.10019572951E+02 -0.26682785491E+01  0.28208253225E+02  0.30053570550E+02  0.51100000000E-03 0. -1.
         11    1    1    2    0    0 -0.10019572951E+02  0.26682785491E+01  0.22938897864E+02  0.25173489786E+02  0.51100000000E-03 0.  1.
<mgrwt>
<rscale>  0 0.20832598E+02</rscale>
<asrwt>0</asrwt>
<pdfrwt beam="1">  1        4 0.81826311E-02 0.20832598E+02</pdfrwt>
<pdfrwt beam="2">  1       -4 0.31383919E-03 0.20832598E+02</pdfrwt>
<totfact> 0.10406311E+06</totfact>
</mgrwt>
</event>
<event>
 4    1  0.5401488E-001  0.3766441E+02  0.7818608E-02  0.1526138E+00
          4   -1    0    0  501    0  0.00000000000E+00  0.00000000000E+00  0.16949403548E+02  0.17008782456E+02  0.14200000000E+01 0. -1.
         -4   -1    0    0    0  501 -0.00000000000E+00 -0.00000000000E+00 -0.20803943063E+02  0.20852348716E+02  0.14200000000E+01 0.  1.
        -11    1    1    2    0    0 -0.38772158522E+01  0.10624293225E+02 -0.17063923398E+02  0.20471587415E+02  0.51100000000E-03 0.  1.
         11    1    1    2    0    0  0.38772158522E+01 -0.10624293225E+02  0.13209383883E+02  0.17389543758E+02  0.51100000000E-03 0. -1.
<mgrwt>
<rscale>  0 0.37664410E+02</rscale>
<asrwt>0</asrwt>
<pdfrwt beam="1">  1        4 0.26158917E-02 0.37664410E+02</pdfrwt>
<pdfrwt beam="2">  1       -4 0.32088977E-02 0.37664410E+02</pdfrwt>
<totfact> 0.29847783E+05</totfact>
</mgrwt>
</event>
<event>
 4    1  0.5401488E-001  0.2325542E+02  0.7818608E-02  0.1687403E+00
          4   -1    0    0  501    0  0.00000000000E+00  0.00000000000E+00  0.68749537825E+00  0.15776723028E+01  0.14200000000E+01 0. -1.
         -4   -1    0    0    0  501 -0.00000000000E+00 -0.00000000000E+00 -0.11848017961E+03  0.11848868874E+03  0.14200000000E+01 0.  1.
        -11    1    1    2    0    0 -0.11001345270E+02  0.36938052830E+01 -0.55138183368E+02  0.56346189407E+02  0.51100000000E-03 0.  1.
         11    1    1    2    0    0  0.11001345270E+02 -0.36938052830E+01 -0.62654500860E+02  0.63720171637E+02  0.51100000000E-03 0. -1.
<mgrwt>
<rscale>  0 0.23255421E+02</rscale>
<asrwt>0</asrwt>
<pdfrwt beam="1">  1        4 0.17489831E-03 0.23255421E+02</pdfrwt>
<pdfrwt beam="2">  1       -4 0.18296840E-01 0.23255421E+02</pdfrwt>
<totfact> 0.68124975E+05</totfact>
</mgrwt>
</event>
<event>
 4    1  0.5401488E-001  0.2786845E+02  0.7818608E-02  0.1622920E+00
          4   -1    0    0  501    0  0.00000000000E+00  0.00000000000E+00  0.33227607647E+02  0.33257936045E+02  0.14200000000E+01 0. -1.
         -4   -1    0    0    0  501 -0.00000000000E+00 -0.00000000000E+00 -0.57236206838E+01  0.58971377576E+01  0.14200000000E+01 0.  1.
        -11    1    1    2    0    0 -0.13553147264E+02 -0.31331755380E+01  0.14891718811E+02  0.20378122561E+02  0.51100000000E-03 0. -1.
         11    1    1    2    0    0  0.13553147264E+02  0.31331755380E+01  0.12612268152E+02  0.18776951241E+02  0.51100000000E-03 0.  1.
<mgrwt>
<rscale>  0 0.27868450E+02</rscale>
<asrwt>0</asrwt>
<pdfrwt beam="1">  1        4 0.51276200E-02 0.27868450E+02</pdfrwt>
<pdfrwt beam="2">  1       -4 0.89623747E-03 0.27868450E+02</pdfrwt>
<totfact> 0.59281089E+05</totfact>
</mgrwt>
</event>
<event>
 4    1  0.5401488E-001  0.3851452E+02  0.7818608E-02  0.1519436E+00
         -4   -1    0    0    0  501 -0.00000000000E+00  0.00000000000E+00  0.12321464562E+02  0.12403019348E+02  0.14200000000E+01 0.  1.
          4   -1    0    0  501    0  0.00000000000E+00 -0.00000000000E+00 -0.29899497258E+02  0.29933197896E+02  0.14200000000E+01 0. -1.
        -11    1    1    2    0    0 -0.15486331130E+02 -0.11338621285E+02 -0.70680214763E+01  0.20453550116E+02  0.51100000000E-03 0. -1.
         11    1    1    2    0    0  0.15486331130E+02  0.11338621285E+02 -0.10510011220E+02  0.21882667128E+02  0.51100000000E-03 0.  1.
<mgrwt>
<rscale>  0 0.38514517E+02</rscale>
<asrwt>0</asrwt>
<pdfrwt beam="2">  1        4 0.46087885E-02 0.38514517E+02</pdfrwt>
<pdfrwt beam="1">  1       -4 0.19044757E-02 0.38514517E+02</pdfrwt>
<totfact> 0.27875378E+05</totfact>
</mgrwt>
</event>
<event>
 4    1  0.5401488E-001  0.2485713E+02  0.7818608E-02  0.1663062E+00
          4   -1    0    0  501    0  0.00000000000E+00  0.00000000000E+00  0.17934916933E+02  0.17991043477E+02  0.14200000000E+01 0.  1.
         -4   -1    0    0    0  501 -0.00000000000E+00 -0.00000000000E+00 -0.84840845926E+01  0.86020980798E+01  0.14200000000E+01 0. -1.
        -11    1    1    2    0    0 -0.35242235790E+01 -0.10796269189E+02 -0.67591289788E+00  0.11377013612E+02  0.51100000000E-03 0. -1.
         11    1    1    2    0    0  0.35242235790E+01  0.10796269189E+02  0.10126745238E+02  0.15216127944E+02  0.51100000000E-03 0.  1.
<mgrwt>
<rscale>  0 0.24857131E+02</rscale>
<asrwt>0</asrwt>
<pdfrwt beam="1">  1        4 0.27726134E-02 0.24857131E+02</pdfrwt>
<pdfrwt beam="2">  1       -4 0.13186392E-02 0.24857131E+02</pdfrwt>
<totfact> 0.79988295E+05</totfact>
</mgrwt>
</event>
<event>
 4    1  0.5401488E-001  0.2762385E+02  0.7818608E-02  0.1625944E+00
          4   -1    0    0  501    0  0.00000000000E+00  0.00000000000E+00  0.54435082254E+01  0.56256716755E+01  0.14200000000E+01 0. -1.
         -4   -1    0    0    0  501 -0.00000000000E+00 -0.00000000000E+00 -0.34271444942E+02  0.34300850403E+02  0.14200000000E+01 0.  1.
        -11    1    1    2    0    0  0.12904804065E+02  0.28937772249E+01 -0.86576090782E+01  0.15807027228E+02  0.51100000000E-03 0. -1.
         11    1    1    2    0    0 -0.12904804065E+02 -0.28937772249E+01 -0.20170327638E+02  0.24119494851E+02  0.51100000000E-03 0.  1.
<mgrwt>
<rscale>  0 0.27623853E+02</rscale>
<asrwt>0</asrwt>
<pdfrwt beam="1">  1        4 0.85373736E-03 0.27623853E+02</pdfrwt>
<pdfrwt beam="2">  1       -4 0.52888044E-02 0.27623853E+02</pdfrwt>
<totfact> 0.60277522E+05</totfact>
</mgrwt>
</event>
<event>
 4    1  0.5401488E-001  0.8558139E+02  0.7818608E-02  0.1313919E+00
         -4   -1    0    0    0  501 -0.00000000000E+00  0.00000000000E+00  0.32396935298E+02  0.32428040593E+02  0.14200000000E+01 0.  1.
          4   -1    0    0  501    0  0.00000000000E+00 -0.00000000000E+00 -0.56451873596E+02  0.56469730232E+02  0.14200000000E+01 0. -1.
        -11    1    1    2    0    0  0.26094087869E+02 -0.16521006849E+02 -0.42792719213E+02  0.52773685744E+02  0.51100000000E-03 0. -1.
         11    1    1    2    0    0 -0.26094087869E+02  0.16521006849E+02  0.18737780915E+02  0.36124085081E+02  0.51100000000E-03 0.  1.
<mgrwt>
<rscale>  0 0.85581386E+02</rscale>
<asrwt>0</asrwt>
<pdfrwt beam="2">  1        4 0.86886699E-02 0.85581386E+02</pdfrwt>
<pdfrwt beam="1">  1       -4 0.49879102E-02 0.85581386E+02</pdfrwt>
<totfact> 0.32228332E+04</totfact>
</mgrwt>
</event>
<event>
 4    1  0.5401488E-001  0.4592424E+02  0.7818608E-02  0.1468653E+00
         -4   -1    0    0    0  501 -0.00000000000E+00  0.00000000000E+00  0.75193231941E+02  0.75206638868E+02  0.14200000000E+01 0.  1.
          4   -1    0    0  501    0  0.00000000000E+00 -0.00000000000E+00 -0.69259805406E+01  0.70700499609E+01  0.14200000000E+01 0. -1.
        -11    1    1    2    0    0 -0.12441355433E+02  0.12229790913E+02  0.73854837527E+01  0.18944668941E+02  0.51100000000E-03 0. -1.
         11    1    1    2    0    0  0.12441355433E+02 -0.12229790913E+02  0.60881767648E+02  0.63332019887E+02  0.51100000000E-03 0.  1.
<mgrwt>
<rscale>  0 0.45924241E+02</rscale>
<asrwt>0</asrwt>
<pdfrwt beam="2">  1        4 0.10776491E-02 0.45924241E+02</pdfrwt>
<pdfrwt beam="1">  1       -4 0.11580302E-01 0.45924241E+02</pdfrwt>
<totfact> 0.16169014E+05</totfact>
</mgrwt>
</event>
<event>
 4    1  0.5401488E-001  0.2420997E+02  0.7818608E-02  0.1672616E+00
          4   -1    0    0  501    0  0.00000000000E+00  0.00000000000E+00  0.65417153615E+01  0.66940600439E+01  0.14200000000E+01 0. -1.
         -4   -1    0    0    0  501 -0.00000000000E+00 -0.00000000000E+00 -0.21966076088E+02  0.22011926283E+02  0.14200000000E+01 0.  1.
        -11    1    1    2    0    0  0.92967974952E+01  0.40298860802E+01  0.14042534746E+00  0.10133614608E+02  0.51100000000E-03 0. -1.
         11    1    1    2    0    0 -0.92967974952E+01 -0.40298860802E+01 -0.15564786074E+02  0.18572371719E+02  0.51100000000E-03 0.  1.
<mgrwt>
<rscale>  0 0.24209972E+02</rscale>
<asrwt>0</asrwt>
<pdfrwt beam="1">  1        4 0.10216635E-02 0.24209972E+02</pdfrwt>
<pdfrwt beam="2">  1       -4 0.33946420E-02 0.24209972E+02</pdfrwt>
<totfact> 0.83945679E+05</totfact>
</mgrwt>
</event>
<event>
 4    1  0.5401488E-001  0.2348929E+02  0.7818608E-02  0.1683699E+00
          4   -1    0    0  501    0  0.00000000000E+00  0.00000000000E+00  0.11616041276E+03  0.11616909182E+03  0.14200000000E+01 0.  1.
         -4   -1    0    0    0  501 -0.00000000000E+00 -0.00000000000E+00 -0.75106407860E+00  0.16063926202E+01  0.14200000000E+01 0. -1.
        -11    1    1    2    0    0  0.80971623919E+01 -0.84451983533E+01  0.52563597476E+02  0.53849950732E+02  0.51100000000E-03 0. -1.
         11    1    1    2    0    0 -0.80971623919E+01  0.84451983533E+01  0.62845751209E+02  0.63925533704E+02  0.51100000000E-03 0.  1.
<mgrwt>
<rscale>  0 0.23489295E+02</rscale>
<asrwt>0</asrwt>
<pdfrwt beam="1">  1        4 0.17937305E-01 0.23489295E+02</pdfrwt>
<pdfrwt beam="2">  1       -4 0.18201034E-03 0.23489295E+02</pdfrwt>
<totfact> 0.67130801E+05</totfact>
</mgrwt>
</event>
<event>
 4    1  0.5401488E-001  0.3192105E+02  0.7818608E-02  0.1577776E+00
         -4   -1    0    0    0  501 -0.00000000000E+00  0.00000000000E+00  0.48626817186E+02  0.48647546183E+02  0.14200000000E+01 0.  1.
          4   -1    0    0  501    0  0.00000000000E+00 -0.00000000000E+00 -0.51201435712E+01  0.53134047643E+01  0.14200000000E+01 0.  1.
        -11    1    1    2    0    0 -0.63774623888E+01  0.13992532645E+02  0.14526706862E+02  0.21153917104E+02  0.51100000000E-03 0. -1.
         11    1    1    2    0    0  0.63774623888E+01 -0.13992532645E+02  0.28979966752E+02  0.32807033843E+02  0.51100000000E-03 0.  1.
<mgrwt>
<rscale>  0 0.31921052E+02</rscale>
<asrwt>0</asrwt>
<pdfrwt beam="2">  1        4 0.80417517E-03 0.31921052E+02</pdfrwt>
<pdfrwt beam="1">  1       -4 0.74975097E-02 0.31921052E+02</pdfrwt>
<totfact> 0.41496107E+05</totfact>
</mgrwt>
</event>
<event>
 4    1  0.5401488E-001  0.4755307E+02  0.7818608E-02  0.1459005E+00
          4   -1    0    0  501    0  0.00000000000E+00  0.00000000000E+00  0.31038642586E+02  0.31071107698E+02  0.14200000000E+01 0. -1.
         -4   -1    0    0    0  501 -0.00000000000E+00 -0.00000000000E+00 -0.18143803106E+02  0.18199285458E+02  0.14200000000E+01 0.  1.
        -11    1    1    2    0    0  0.19367953867E+02  0.11419753882E+02 -0.15645789007E+01  0.22538330087E+02  0.51100000000E-03 0.  1.
         11    1    1    2    0    0 -0.19367953867E+02 -0.11419753882E+02  0.14459418381E+02  0.26732063068E+02  0.51100000000E-03 0. -1.
<mgrwt>
<rscale>  0 0.47553073E+02</rscale>
<asrwt>0</asrwt>
<pdfrwt beam="1">  1        4 0.47819410E-02 0.47553073E+02</pdfrwt>
<pdfrwt beam="2">  1       -4 0.27981195E-02 0.47553073E+02</pdfrwt>
<totfact> 0.16360411E+05</totfact>
</mgrwt>
</event>
<event>
 4    1  0.5401488E-001  0.2643676E+02  0.7818608E-02  0.1641183E+00
         -4   -1    0    0    0  501 -0.00000000000E+00  0.00000000000E+00  0.63493482393E+01  0.65061988184E+01  0.14200000000E+01 0.  1.
          4   -1    0    0  501    0  0.00000000000E+00 -0.00000000000E+00 -0.27007180426E+02  0.27044485474E+02  0.14200000000E+01 0. -1.
        -11    1    1    2    0    0 -0.11594924958E+02  0.51366198012E+01 -0.15060170276E+02  0.19688470656E+02  0.51100000000E-03 0. -1.
         11    1    1    2    0    0  0.11594924958E+02 -0.51366198012E+01 -0.55976619101E+01  0.13862213636E+02  0.51100000000E-03 0.  1.
<mgrwt>
<rscale>  0 0.26436762E+02</rscale>
<asrwt>0</asrwt>
<pdfrwt beam="2">  1        4 0.41698858E-02 0.26436762E+02</pdfrwt>
<pdfrwt beam="1">  1       -4 0.99175787E-03 0.26436762E+02</pdfrwt>
<totfact> 0.68011769E+05</totfact>
</mgrwt>
</event>
<event>
 4    1  0.5401488E-001  0.2101161E+02  0.7818608E-02  0.1725928E+00
          4   -1    0    0  501    0  0.00000000000E+00  0.00000000000E+00  0.78509362664E+01  0.79783206415E+01  0.14200000000E+01 0.  1.
         -4   -1    0    0    0  501 -0.00000000000E+00 -0.00000000000E+00 -0.13781151669E+02  0.13854116404E+02  0.14200000000E+01 0. -1.
        -11    1    1    2    0    0 -0.10248056850E+02  0.22775424664E-01 -0.56201789609E+00  0.10263481490E+02  0.51100000000E-03 0.  1.
         11    1    1    2    0    0  0.10248056850E+02 -0.22775424664E-01 -0.53681975065E+01  0.11568955555E+02  0.51100000000E-03 0. -1.
<mgrwt>
<rscale>  0 0.21011612E+02</rscale>
<asrwt>0</asrwt>
<pdfrwt beam="1">  1        4 0.12232478E-02 0.21011612E+02</pdfrwt>
<pdfrwt beam="2">  1       -4 0.21355887E-02 0.21011612E+02</pdfrwt>
<totfact> 0.11657816E+06</totfact>
</mgrwt>
</event>
<event>
 4    1  0.5401488E-001  0.2571361E+02  0.7818608E-02  0.1650959E+00
          4   -1    0    0  501    0  0.00000000000E+00  0.00000000000E+00  0.95046614041E+02  0.95057220876E+02  0.14200000000E+01 0. -1.
         -4   -1    0    0    0  501 -0.00000000000E+00 -0.00000000000E+00 -0.14367427617E+01  0.20200568713E+01  0.14200000000E+01 0.  1.
        -11    1    1    2    0    0  0.67466918349E+01  0.10836473415E+02  0.52592963326E+02  0.54119929771E+02  0.51100000000E-03 0.  1.
         11    1    1    2    0    0 -0.67466918349E+01 -0.10836473415E+02  0.41016907953E+02  0.42957347976E+02  0.51100000000E-03 0. -1.
<mgrwt>
<rscale>  0 0.25713612E+02</rscale>
<asrwt>0</asrwt>
<pdfrwt beam="1">  1        4 0.14668241E-01 0.25713612E+02</pdfrwt>
<pdfrwt beam="2">  1       -4 0.26672360E-03 0.25713612E+02</pdfrwt>
<totfact> 0.58691084E+05</totfact>
</mgrwt>
</event>
<event>
 4    1  0.5401488E-001  0.4272810E+02  0.7818608E-02  0.1489044E+00
          4   -1    0    0  501    0  0.00000000000E+00  0.00000000000E+00  0.62214855420E+01  0.63814796364E+01  0.14200000000E+01 0. -1.
         -4   -1    0    0    0  501 -0.00000000000E+00 -0.00000000000E+00 -0.72263927361E+02  0.72277877650E+02  0.14200000000E+01 0.  1.
        -11    1    1    2    0    0  0.50086062052E+01 -0.14095200505E+02 -0.49410754653E+01  0.15753572307E+02  0.51100000000E-03 0. -1.
         11    1    1    2    0    0 -0.50086062052E+01  0.14095200505E+02 -0.61101366354E+02  0.62905784980E+02  0.51100000000E-03 0.  1.
<mgrwt>
<rscale>  0 0.42728098E+02</rscale>
<asrwt>0</asrwt>
<pdfrwt beam="1">  1        4 0.97053201E-03 0.42728098E+02</pdfrwt>
<pdfrwt beam="2">  1       -4 0.11130907E-01 0.42728098E+02</pdfrwt>
<totfact> 0.19451062E+05</totfact>
</mgrwt>
</event>
<event>
 4    1  0.5401488E-001  0.2400435E+02  0.7818608E-02  0.1675729E+00
         -4   -1    0    0    0  501 -0.00000000000E+00  0.00000000000E+00  0.82377337146E+01  0.83592258465E+01  0.14200000000E+01 0. -1.
          4   -1    0    0  501    0  0.00000000000E+00 -0.00000000000E+00 -0.17207916276E+02  0.17266406185E+02  0.14200000000E+01 0.  1.
        -11    1    1    2    0    0  0.21895366218E+01  0.10515289374E+02 -0.10202850970E+02  0.14814302192E+02  0.51100000000E-03 0.  1.
         11    1    1    2    0    0 -0.21895366218E+01 -0.10515289374E+02  0.12326684087E+01  0.10811329840E+02  0.51100000000E-03 0. -1.
<mgrwt>
<rscale>  0 0.24004350E+02</rscale>
<asrwt>0</asrwt>
<pdfrwt beam="2">  1        4 0.26612165E-02 0.24004350E+02</pdfrwt>
<pdfrwt beam="1">  1       -4 0.12811884E-02 0.24004350E+02</pdfrwt>
<totfact> 0.86589263E+05</totfact>
</mgrwt>
</event>
<event>
 4    1  0.5401488E-001  0.2586917E+02  0.7818608E-02  0.1648823E+00
         -4   -1    0    0    0  501 -0.00000000000E+00  0.00000000000E+00  0.14333520389E+02  0.14403687262E+02  0.14200000000E+01 0.  1.
          4   -1    0    0  501    0  0.00000000000E+00 -0.00000000000E+00 -0.11529851855E+02  0.11616965344E+02  0.14200000000E+01 0. -1.
        -11    1    1    2    0    0  0.11221043722E+02  0.56978609100E+01 -0.16033037188E+01  0.12686529243E+02  0.51100000000E-03 0.  1.
         11    1    1    2    0    0 -0.11221043722E+02 -0.56978609100E+01  0.44069722522E+01  0.13334123363E+02  0.51100000000E-03 0. -1.
<mgrwt>
<rscale>  0 0.25869167E+02</rscale>
<asrwt>0</asrwt>
<pdfrwt beam="2">  1        4 0.17859218E-02 0.25869167E+02</pdfrwt>
<pdfrwt beam="1">  1       -4 0.22172555E-02 0.25869167E+02</pdfrwt>
<totfact> 0.73494832E+05</totfact>
</mgrwt>
</event>
<event>
 4    1  0.5401488E-001  0.2888630E+02  0.7818608E-02  0.1610736E+00
         -4   -1    0    0    0  501 -0.00000000000E+00  0.00000000000E+00  0.84026580277E+01  0.85217992191E+01  0.14200000000E+01 0.  1.
          4   -1    0    0  501    0  0.00000000000E+00 -0.00000000000E+00 -0.24511422537E+02  0.24552519927E+02  0.14200000000E+01 0. -1.
        -11    1    1    2    0    0  0.87795338835E+01  0.75237331341E+01  0.18560250784E+01  0.11710320441E+02  0.51100000000E-03 0.  1.
         11    1    1    2    0    0 -0.87795338835E+01 -0.75237331341E+01 -0.17964789587E+02  0.21363998705E+02  0.51100000000E-03 0. -1.
<mgrwt>
<rscale>  0 0.28886299E+02</rscale>
<asrwt>0</asrwt>
<pdfrwt beam="2">  1        4 0.37833141E-02 0.28886299E+02</pdfrwt>
<pdfrwt beam="1">  1       -4 0.13050427E-02 0.28886299E+02</pdfrwt>
<totfact> 0.55993451E+05</totfact>
</mgrwt>
</event>
<event>
 4    1  0.5401488E-001  0.2282510E+02  0.7818608E-02  0.1694361E+00
         -4   -1    0    0    0  501 -0.00000000000E+00  0.00000000000E+00  0.56270342405E+02  0.56288256629E+02  0.14200000000E+01 0. -1.
          4   -1    0    0  501    0  0.00000000000E+00 -0.00000000000E+00 -0.20768116425E+01  0.25158590180E+01  0.14200000000E+01 0.  1.
        -11    1    1    2    0    0  0.10038200355E+02 -0.40555079847E+01  0.36397748335E+02  0.37973789586E+02  0.51100000000E-03 0. -1.
         11    1    1    2    0    0 -0.10038200355E+02  0.40555079847E+01  0.17795782427E+02  0.20830326061E+02  0.51100000000E-03 0.  1.
<mgrwt>
<rscale>  0 0.22825101E+02</rscale>
<asrwt>0</asrwt>
<pdfrwt beam="2">  1        4 0.35466037E-03 0.22825101E+02</pdfrwt>
<pdfrwt beam="1">  1       -4 0.86921269E-02 0.22825101E+02</pdfrwt>
<totfact> 0.85071179E+05</totfact>
</mgrwt>
</event>
<event>
 4    1  0.5401488E-001  0.2807187E+02  0.7818608E-02  0.1620435E+00
          4   -1    0    0  501    0  0.00000000000E+00  0.00000000000E+00  0.20896635754E+02  0.20944827186E+02  0.14200000000E+01 0.  1.
         -4   -1    0    0    0  501 -0.00000000000E+00 -0.00000000000E+00 -0.93147916963E+01  0.94224065050E+01  0.14200000000E+01 0. -1.
        -11    1    1    2    0    0  0.10061990253E+02 -0.63584465406E+01 -0.22559994568E+01  0.12114578989E+02  0.51100000000E-03 0. -1.
         11    1    1    2    0    0 -0.10061990253E+02  0.63584465406E+01  0.13837843515E+02  0.18252654702E+02  0.51100000000E-03 0.  1.
<mgrwt>
<rscale>  0 0.28071868E+02</rscale>
<asrwt>0</asrwt>
<pdfrwt beam="1">  1        4 0.32268521E-02 0.28071868E+02</pdfrwt>
<pdfrwt beam="2">  1       -4 0.14450300E-02 0.28071868E+02</pdfrwt>
<totfact> 0.60306492E+05</totfact>
</mgrwt>
</event>
<event>
 4    1  0.5401488E-001  0.2718015E+02  0.7818608E-02  0.1631528E+00
         -4   -1    0    0    0  501 -0.00000000000E+00  0.00000000000E+00  0.13908374227E+03  0.13909099095E+03  0.14200000000E+01 0.  1.
          4   -1    0    0  501    0  0.00000000000E+00 -0.00000000000E+00 -0.93889559752E+00  0.17023292699E+01  0.14200000000E+01 0. -1.
        -11    1    1    2    0    0  0.83807840161E+01 -0.10622303701E+02  0.75663891431E+02  0.76864135612E+02  0.51100000000E-03 0. -1.
         11    1    1    2    0    0 -0.83807840161E+01  0.10622303701E+02  0.62480955237E+02  0.63929184605E+02  0.51100000000E-03 0.  1.
<mgrwt>
<rscale>  0 0.27180146E+02</rscale>
<asrwt>0</asrwt>
<pdfrwt beam="2">  1        4 0.20372860E-03 0.27180146E+02</pdfrwt>
<pdfrwt beam="1">  1       -4 0.21456796E-01 0.27180146E+02</pdfrwt>
<totfact> 0.46374630E+05</totfact>
</mgrwt>
</event>
<event>
 4    1  0.5401488E-001  0.2124165E+02  0.7818608E-02  0.1721707E+00
          4   -1    0    0  501    0  0.00000000000E+00  0.00000000000E+00  0.81746153511E+01  0.82970317667E+01  0.14200000000E+01 0.  1.
         -4   -1    0    0    0  501 -0.00000000000E+00 -0.00000000000E+00 -0.13536663293E+02  0.13610938729E+02  0.14200000000E+01 0. -1.
        -11    1    1    2    0    0  0.19516907068E+01  0.10060662083E+02  0.19497580939E+00  0.10250074829E+02  0.51100000000E-03 0.  1.
         11    1    1    2    0    0 -0.19516907068E+01 -0.10060662083E+02 -0.55570237509E+01  0.11657895668E+02  0.51100000000E-03 0. -1.
<mgrwt>
<rscale>  0 0.21241648E+02</rscale>
<asrwt>0</asrwt>
<pdfrwt beam="1">  1        4 0.12727633E-02 0.21241648E+02</pdfrwt>
<pdfrwt beam="2">  1       -4 0.20976937E-02 0.21241648E+02</pdfrwt>
<totfact> 0.11392907E+06</totfact>
</mgrwt>
</event>
<event>
 4    1  0.5401488E-001  0.2254454E+02  0.7818608E-02  0.1699001E+00
          4   -1    0    0  501    0  0.00000000000E+00  0.00000000000E+00  0.71378679161E+01  0.72777440452E+01  0.14200000000E+01 0. -1.
         -4   -1    0    0    0  501 -0.00000000000E+00 -0.00000000000E+00 -0.17459691481E+02  0.17517340740E+02  0.14200000000E+01 0.  1.
        -11    1    1    2    0    0 -0.63203511251E+01  0.90791428546E+01 -0.27800032924E+01  0.11406405739E+02  0.51100000000E-03 0. -1.
         11    1    1    2    0    0  0.63203511251E+01 -0.90791428546E+01 -0.75418202722E+01  0.13388679046E+02  0.51100000000E-03 0.  1.
<mgrwt>
<rscale>  0 0.22544538E+02</rscale>
<asrwt>0</asrwt>
<pdfrwt beam="1">  1        4 0.11133278E-02 0.22544538E+02</pdfrwt>
<pdfrwt beam="2">  1       -4 0.27013006E-02 0.22544538E+02</pdfrwt>
<totfact> 0.99298901E+05</totfact>
</mgrwt>
</event>
<event>
 4    1  0.5401488E-001  0.2710684E+02  0.7818608E-02  0.1632463E+00
          4   -1    0    0  501    0  0.00000000000E+00  0.00000000000E+00  0.47757806003E+01  0.49824171184E+01  0.14200000000E+01 0. -1.
         -4   -1    0    0    0  501 -0.00000000000E+00 -0.00000000000E+00 -0.37429032268E+02  0.37455958892E+02  0.14200000000E+01 0.  1.
        -11    1    1    2    0    0  0.12271769641E+01 -0.13410047797E+02 -0.18731681090E+02  0.23069703551E+02  0.51100000000E-03 0.  1.
         11    1    1    2    0    0 -0.12271769641E+01  0.13410047797E+02 -0.13921570578E+02  0.19368672459E+02  0.51100000000E-03 0. -1.
<mgrwt>
<rscale>  0 0.27106843E+02</rscale>
<asrwt>0</asrwt>
<pdfrwt beam="1">  1        4 0.75270189E-03 0.27106843E+02</pdfrwt>
<pdfrwt beam="2">  1       -4 0.57762789E-02 0.27106843E+02</pdfrwt>
<totfact> 0.62269249E+05</totfact>
</mgrwt>
</event>
<event>
 4    1  0.5401488E-001  0.3264498E+02  0.7818608E-02  0.1570567E+00
         -4   -1    0    0    0  501 -0.00000000000E+00  0.00000000000E+00  0.81326681766E+01  0.82557066124E+01  0.14200000000E+01 0. -1.
          4   -1    0    0  501    0  0.00000000000E+00 -0.00000000000E+00 -0.32375022337E+02  0.32406148666E+02  0.14200000000E+01 0.  1.
        -11    1    1    2    0    0 -0.60570342194E+01 -0.90924043941E+01 -0.27226300104E+02  0.29336511360E+02  0.51100000000E-03 0.  1.
         11    1    1    2    0    0  0.60570342194E+01  0.90924043941E+01  0.29839459431E+01  0.11325343918E+02  0.51100000000E-03 0. -1.
<mgrwt>
<rscale>  0 0.32644980E+02</rscale>
<asrwt>0</asrwt>
<pdfrwt beam="2">  1        4 0.49926314E-02 0.32644980E+02</pdfrwt>
<pdfrwt beam="1">  1       -4 0.12630386E-02 0.32644980E+02</pdfrwt>
<totfact> 0.41253368E+05</totfact>
</mgrwt>
</event>
<event>
 4    1  0.5401488E-001  0.2863384E+02  0.7818608E-02  0.1613700E+00
          4   -1    0    0  501    0  0.00000000000E+00  0.00000000000E+00  0.61276369640E+02  0.61292820756E+02  0.14200000000E+01 0.  1.
         -4   -1    0    0    0  501 -0.00000000000E+00 -0.00000000000E+00 -0.31766917356E+01  0.34796221610E+01  0.14200000000E+01 0. -1.
        -11    1    1    2    0    0 -0.28382353379E+00 -0.13500502920E+02  0.18288816024E+02  0.22733783819E+02  0.51100000000E-03 0. -1.
         11    1    1    2    0    0  0.28382353379E+00  0.13500502920E+02  0.39810861880E+02  0.42038659098E+02  0.51100000000E-03 0.  1.
<mgrwt>
<rscale>  0 0.28633840E+02</rscale>
<asrwt>0</asrwt>
<pdfrwt beam="1">  1        4 0.94517015E-02 0.28633840E+02</pdfrwt>
<pdfrwt beam="2">  1       -4 0.51328962E-03 0.28633840E+02</pdfrwt>
<totfact> 0.51155032E+05</totfact>
</mgrwt>
</event>
<event>
 4    1  0.5401488E-001  0.3122181E+02  0.7818608E-02  0.1584963E+00
          4   -1    0    0  501    0  0.00000000000E+00  0.00000000000E+00  0.17466259819E+02  0.17523887470E+02  0.14200000000E+01 0. -1.
         -4   -1    0    0    0  501 -0.00000000000E+00 -0.00000000000E+00 -0.13835628004E+02  0.13908306952E+02  0.14200000000E+01 0. -1.
        -11    1    1    2    0    0  0.92864918520E+01 -0.11657383090E+02  0.64906190645E+01  0.16256126461E+02  0.51100000000E-03 0.  1.
         11    1    1    2    0    0 -0.92864918520E+01  0.11657383090E+02 -0.28599872495E+01  0.15176067961E+02  0.51100000000E-03 0. -1.
<mgrwt>
<rscale>  0 0.31221809E+02</rscale>
<asrwt>0</asrwt>
<pdfrwt beam="1">  1        4 0.26971405E-02 0.31221809E+02</pdfrwt>
<pdfrwt beam="2">  1       -4 0.21385817E-02 0.31221809E+02</pdfrwt>
<totfact> 0.47255497E+05</totfact>
</mgrwt>
</event>
<event>
 4    1  0.5401488E-001  0.2136021E+02  0.7818608E-02  0.1719558E+00
          4   -1    0    0  501    0  0.00000000000E+00  0.00000000000E+00  0.72630488071E+01  0.74005593015E+01  0.14200000000E+01 0.  1.
         -4   -1    0    0    0  501 -0.00000000000E+00 -0.00000000000E+00 -0.15387008518E+02  0.15452392408E+02  0.14200000000E+01 0. -1.
        -11    1    1    2    0    0  0.98068503152E+01 -0.22286369017E+01 -0.79081401656E+01  0.12793741309E+02  0.51100000000E-03 0. -1.
         11    1    1    2    0    0 -0.98068503152E+01  0.22286369017E+01 -0.21581954528E+00  0.10059210400E+02  0.51100000000E-03 0.  1.
<mgrwt>
<rscale>  0 0.21360213E+02</rscale>
<asrwt>0</asrwt>
<pdfrwt beam="1">  1        4 0.11329994E-02 0.21360213E+02</pdfrwt>
<pdfrwt beam="2">  1       -4 0.23828393E-02 0.21360213E+02</pdfrwt>
<totfact> 0.11214457E+06</totfact>
</mgrwt>
</event>
<event>
 4    1  0.5401488E-001  0.3681751E+02  0.7818608E-02  0.1533029E+00
         -4   -1    0    0    0  501 -0.00000000000E+00  0.00000000000E+00  0.54512096998E+01  0.56331241058E+01  0.14200000000E+01 0. -1.
          4   -1    0    0  501    0  0.00000000000E+00 -0.00000000000E+00 -0.60955843886E+02  0.60972381484E+02  0.14200000000E+01 0.  1.
        -11    1    1    2    0    0  0.13316884820E+02 -0.97754049804E+01 -0.13057101706E+02  0.21056729780E+02  0.51100000000E-03 0. -1.
         11    1    1    2    0    0 -0.13316884820E+02  0.97754049804E+01 -0.42447532480E+02  0.45548775809E+02  0.51100000000E-03 0.  1.
<mgrwt>
<rscale>  0 0.36817509E+02</rscale>
<asrwt>0</asrwt>
<pdfrwt beam="2">  1        4 0.93930872E-02 0.36817509E+02</pdfrwt>
<pdfrwt beam="1">  1       -4 0.85391323E-03 0.36817509E+02</pdfrwt>
<totfact> 0.28680404E+05</totfact>
</mgrwt>
</event>
<event>
 4    1  0.5401488E-001  0.4321034E+02  0.7818608E-02  0.1485834E+00
          4   -1    0    0  501    0  0.00000000000E+00  0.00000000000E+00  0.14725300931E+02  0.14793609685E+02  0.14200000000E+01 0.  1.
         -4   -1    0    0    0  501 -0.00000000000E+00 -0.00000000000E+00 -0.31541743697E+02  0.31573691508E+02  0.14200000000E+01 0. -1.
        -11    1    1    2    0    0 -0.12839687216E+02 -0.15401679057E+02 -0.17040467688E+02  0.26314384372E+02  0.51100000000E-03 0.  1.
         11    1    1    2    0    0  0.12839687216E+02  0.15401679057E+02  0.22402492160E+00  0.20052916821E+02  0.51100000000E-03 0. -1.
<mgrwt>
<rscale>  0 0.43210345E+02</rscale>
<asrwt>0</asrwt>
<pdfrwt beam="1">  1        4 0.22731430E-02 0.43210345E+02</pdfrwt>
<pdfrwt beam="2">  1       -4 0.48602880E-02 0.43210345E+02</pdfrwt>
<totfact> 0.20874986E+05</totfact>
</mgrwt>
</event>
<event>
 4    1  0.5401488E-001  0.3651412E+02  0.7818608E-02  0.1535552E+00
         -4   -1    0    0    0  501 -0.00000000000E+00  0.00000000000E+00  0.30541568300E+02  0.30574561227E+02  0.14200000000E+01 0. -1.
          4   -1    0    0  501    0  0.00000000000E+00 -0.00000000000E+00 -0.10828391544E+02  0.10921101749E+02  0.14200000000E+01 0.  1.
        -11    1    1    2    0    0  0.31082222317E+01 -0.14784907302E+02  0.21505149440E+02  0.26281666272E+02  0.51100000000E-03 0. -1.
         11    1    1    2    0    0 -0.31082222317E+01  0.14784907302E+02 -0.17919726833E+01  0.15213996704E+02  0.51100000000E-03 0.  1.
<mgrwt>
<rscale>  0 0.36514117E+02</rscale>
<asrwt>0</asrwt>
<pdfrwt beam="2">  1        4 0.16755759E-02 0.36514117E+02</pdfrwt>
<pdfrwt beam="1">  1       -4 0.47083722E-02 0.36514117E+02</pdfrwt>
<totfact> 0.31713859E+05</totfact>
</mgrwt>
</event>
<event>
 4    1  0.5401488E-001  0.3848192E+02  0.7818608E-02  0.1519690E+00
          4   -1    0    0  501    0  0.00000000000E+00  0.00000000000E+00  0.12611406034E+02  0.12691097752E+02  0.14200000000E+01 0.  1.
         -4   -1    0    0    0  501 -0.00000000000E+00 -0.00000000000E+00 -0.29166061239E+02  0.29200608354E+02  0.14200000000E+01 0. -1.
        -11    1    1    2    0    0 -0.17659135935E+02 -0.42322855111E+01 -0.15201528249E+02  0.23682140612E+02  0.51100000000E-03 0. -1.
         11    1    1    2    0    0  0.17659135935E+02  0.42322855111E+01 -0.13531269569E+01  0.18209565493E+02  0.51100000000E-03 0.  1.
<mgrwt>
<rscale>  0 0.38481923E+02</rscale>
<asrwt>0</asrwt>
<pdfrwt beam="1">  1        4 0.19490039E-02 0.38481923E+02</pdfrwt>
<pdfrwt beam="2">  1       -4 0.44958739E-02 0.38481923E+02</pdfrwt>
<totfact> 0.27973840E+05</totfact>
</mgrwt>
</event>
<event>
 4    1  0.5401488E-001  0.2687285E+02  0.7818608E-02  0.1635473E+00
          4   -1    0    0  501    0  0.00000000000E+00  0.00000000000E+00  0.23850516793E+02  0.23892751020E+02  0.14200000000E+01 0. -1.
         -4   -1    0    0    0  501 -0.00000000000E+00 -0.00000000000E+00 -0.74535260110E+01  0.75875852546E+01  0.14200000000E+01 0.  1.
        -11    1    1    2    0    0 -0.79761480667E+00 -0.12680121901E+02  0.13320297359E+02  0.18407933149E+02  0.51100000000E-03 0. -1.
         11    1    1    2    0    0  0.79761480667E+00  0.12680121901E+02  0.30766934229E+01  0.13072403126E+02  0.51100000000E-03 0.  1.
<mgrwt>
<rscale>  0 0.26872854E+02</rscale>
<asrwt>0</asrwt>
<pdfrwt beam="1">  1        4 0.36828713E-02 0.26872854E+02</pdfrwt>
<pdfrwt beam="2">  1       -4 0.11602573E-02 0.26872854E+02</pdfrwt>
<totfact> 0.66137173E+05</totfact>
</mgrwt>
</event>
<event>
 4    1  0.5401488E-001  0.2256452E+02  0.7818608E-02  0.1698668E+00
         -4   -1    0    0    0  501 -0.00000000000E+00  0.00000000000E+00  0.10657296546E+01  0.17754378887E+01  0.14200000000E+01 0.  1.
          4   -1    0    0  501    0  0.00000000000E+00 -0.00000000000E+00 -0.88886805409E+02  0.88898147201E+02  0.14200000000E+01 0. -1.
        -11    1    1    2    0    0  0.79769817467E+01 -0.76084504361E+01 -0.53561982298E+02  0.54684611215E+02  0.51100000000E-03 0. -1.
         11    1    1    2    0    0 -0.79769817467E+01  0.76084504361E+01 -0.34259093456E+02  0.35988973874E+02  0.51100000000E-03 0.  1.
<mgrwt>
<rscale>  0 0.22564523E+02</rscale>
<asrwt>0</asrwt>
<pdfrwt beam="2">  1        4 0.13730354E-01 0.22564523E+02</pdfrwt>
<pdfrwt beam="1">  1       -4 0.21942387E-03 0.22564523E+02</pdfrwt>
<totfact> 0.78774554E+05</totfact>
</mgrwt>
</event>
<event>
 4    1  0.5401488E-001  0.2271372E+02  0.7818608E-02  0.1696193E+00
          4   -1    0    0  501    0  0.00000000000E+00  0.00000000000E+00  0.23123223374E+02  0.23166783532E+02  0.14200000000E+01 0. -1.
         -4   -1    0    0    0  501 -0.00000000000E+00 -0.00000000000E+00 -0.54377976551E+01  0.56201462026E+01  0.14200000000E+01 0.  1.
        -11    1    1    2    0    0  0.10617949967E+02 -0.11067805879E+01  0.13753291458E+02  0.17410308756E+02  0.51100000000E-03 0. -1.
         11    1    1    2    0    0 -0.10617949967E+02  0.11067805879E+01  0.39321342608E+01  0.11376620978E+02  0.51100000000E-03 0.  1.
<mgrwt>
<rscale>  0 0.22713719E+02</rscale>
<asrwt>0</asrwt>
<pdfrwt beam="1">  1        4 0.35747966E-02 0.22713719E+02</pdfrwt>
<pdfrwt beam="2">  1       -4 0.85396184E-03 0.22713719E+02</pdfrwt>
<totfact> 0.96118550E+05</totfact>
</mgrwt>
</event>
<event>
 4    1  0.5401488E-001  0.2344007E+02  0.7818608E-02  0.1684474E+00
          4   -1    0    0  501    0  0.00000000000E+00  0.00000000000E+00  0.61826763469E+01  0.63436493291E+01  0.14200000000E+01 0. -1.
         -4   -1    0    0    0  501 -0.00000000000E+00 -0.00000000000E+00 -0.21746859039E+02  0.21793170445E+02  0.14200000000E+01 0.  1.
        -11    1    1    2    0    0 -0.10695304979E+02  0.12933978225E+01 -0.13321624105E+02  0.17132661660E+02  0.51100000000E-03 0.  1.
         11    1    1    2    0    0  0.10695304979E+02 -0.12933978225E+01 -0.22425585870E+01  0.11004158114E+02  0.51100000000E-03 0. -1.
<mgrwt>
<rscale>  0 0.23440069E+02</rscale>
<asrwt>0</asrwt>
<pdfrwt beam="1">  1        4 0.96712594E-03 0.23440069E+02</pdfrwt>
<pdfrwt beam="2">  1       -4 0.33616155E-02 0.23440069E+02</pdfrwt>
<totfact> 0.90155276E+05</totfact>
</mgrwt>
</event>
<event>
 4    1  0.5401488E-001  0.2344290E+02  0.7818608E-02  0.1684430E+00
         -4   -1    0    0    0  501 -0.00000000000E+00  0.00000000000E+00  0.30239495450E+02  0.30272817594E+02  0.14200000000E+01 0. -1.
          4   -1    0    0  501    0  0.00000000000E+00 -0.00000000000E+00 -0.43957569006E+01  0.46194240690E+01  0.14200000000E+01 0.  1.
        -11    1    1    2    0    0 -0.92848219807E+01 -0.40777100888E+01  0.41723506451E+01  0.10965589312E+02  0.51100000000E-03 0.  1.
         11    1    1    2    0    0  0.92848219807E+01  0.40777100888E+01  0.21671387905E+02  0.23926652352E+02  0.51100000000E-03 0. -1.
<mgrwt>
<rscale>  0 0.23442903E+02</rscale>
<asrwt>0</asrwt>
<pdfrwt beam="2">  1        4 0.69603870E-03 0.23442903E+02</pdfrwt>
<pdfrwt beam="1">  1       -4 0.46719985E-02 0.23442903E+02</pdfrwt>
<totfact> 0.87720094E+05</totfact>
</mgrwt>
</event>
<event>
 4    1  0.5401488E-001  0.6505695E+02  0.7818608E-02  0.1377757E+00
         -4   -1    0    0    0  501 -0.00000000000E+00  0.00000000000E+00  0.14994703618E+02  0.15061790617E+02  0.14200000000E+01 0.  1.
          4   -1    0    0  501    0  0.00000000000E+00 -0.00000000000E+00 -0.70333259365E+02  0.70347592517E+02  0.14200000000E+01 0. -1.
        -11    1    1    2    0    0  0.17393966792E+02  0.25159233479E+02 -0.42203589245E+02  0.52121781008E+02  0.51100000000E-03 0. -1.
         11    1    1    2    0    0 -0.17393966792E+02 -0.25159233479E+02 -0.13134966502E+02  0.33287602125E+02  0.51100000000E-03 0.  1.
<mgrwt>
<rscale>  0 0.65056952E+02</rscale>
<asrwt>0</asrwt>
<pdfrwt beam="2">  1        4 0.10826764E-01 0.65056952E+02</pdfrwt>
<pdfrwt beam="1">  1       -4 0.23131406E-02 0.65056952E+02</pdfrwt>
<totfact> 0.66966075E+04</totfact>
</mgrwt>
</event>
<event>
 4    1  0.5401488E-001  0.2060342E+02  0.7818608E-02  0.1733588E+00
          4   -1    0    0  501    0  0.00000000000E+00  0.00000000000E+00  0.32851751222E+01  0.35789349789E+01  0.14200000000E+01 0. -1.
         -4   -1    0    0    0  501 -0.00000000000E+00 -0.00000000000E+00 -0.30610843318E+02  0.30643761659E+02  0.14200000000E+01 0.  1.
        -11    1    1    2    0    0  0.10124380777E+02 -0.90156466830E+00 -0.10878803168E+02  0.14888393587E+02  0.51100000000E-03 0.  1.
         11    1    1    2    0    0 -0.10124380777E+02  0.90156466830E+00 -0.16446865028E+02  0.19334303051E+02  0.51100000000E-03 0. -1.
<mgrwt>
<rscale>  0 0.20603418E+02</rscale>
<asrwt>0</asrwt>
<pdfrwt beam="1">  1        4 0.53054067E-03 0.20603418E+02</pdfrwt>
<pdfrwt beam="2">  1       -4 0.47344894E-02 0.20603418E+02</pdfrwt>
<totfact> 0.11519272E+06</totfact>
</mgrwt>
</event>
<event>
 4    1  0.5401488E-001  0.2906911E+02  0.7818608E-02  0.1608612E+00
         -4   -1    0    0    0  501 -0.00000000000E+00  0.00000000000E+00  0.64007744797E+02  0.64023494078E+02  0.14200000000E+01 0. -1.
          4   -1    0    0  501    0  0.00000000000E+00 -0.00000000000E+00 -0.31307703407E+01  0.34377496893E+01  0.14200000000E+01 0.  1.
        -11    1    1    2    0    0 -0.10117633306E+02  0.41957069734E+01  0.52611118331E+02  0.53739187126E+02  0.51100000000E-03 0. -1.
         11    1    1    2    0    0  0.10117633306E+02 -0.41957069734E+01  0.82658561257E+01  0.13722056641E+02  0.51100000000E-03 0.  1.
<mgrwt>
<rscale>  0 0.29069114E+02</rscale>
<asrwt>0</asrwt>
<pdfrwt beam="2">  1        4 0.50648230E-03 0.29069114E+02</pdfrwt>
<pdfrwt beam="1">  1       -4 0.98721697E-02 0.29069114E+02</pdfrwt>
<totfact> 0.49054060E+05</totfact>
</mgrwt>
</event>
<event>
 4    1  0.5401488E-001  0.2791756E+02  0.7818608E-02  0.1622318E+00
          4   -1    0    0  501    0  0.00000000000E+00  0.00000000000E+00  0.23900845992E+02  0.23942991441E+02  0.14200000000E+01 0.  1.
         -4   -1    0    0    0  501 -0.00000000000E+00 -0.00000000000E+00 -0.80407329096E+01  0.81651568095E+01  0.14200000000E+01 0. -1.
        -11    1    1    2    0    0 -0.13655472790E+02 -0.15053261614E+01  0.10772832516E+02  0.17458289282E+02  0.51100000000E-03 0.  1.
         11    1    1    2    0    0  0.13655472790E+02  0.15053261614E+01  0.50872805661E+01  0.14649858968E+02  0.51100000000E-03 0. -1.
<mgrwt>
<rscale>  0 0.27917557E+02</rscale>
<asrwt>0</asrwt>
<pdfrwt beam="1">  1        4 0.36898662E-02 0.27917557E+02</pdfrwt>
<pdfrwt beam="2">  1       -4 0.12498489E-02 0.27917557E+02</pdfrwt>
<totfact> 0.60638480E+05</totfact>
</mgrwt>
</event>
<event>
 4    1  0.5401488E-001  0.2636087E+02  0.7818608E-02  0.1642191E+00
         -4   -1    0    0    0  501 -0.00000000000E+00  0.00000000000E+00  0.37506375257E+01  0.40104465898E+01  0.14200000000E+01 0.  1.
          4   -1    0    0  501    0  0.00000000000E+00 -0.00000000000E+00 -0.44496425731E+02  0.44519077965E+02  0.14200000000E+01 0. -1.
        -11    1    1    2    0    0 -0.44288029169E+01 -0.12266858124E+02 -0.23882230770E+02  0.27211230224E+02  0.51100000000E-03 0. -1.
         11    1    1    2    0    0  0.44288029169E+01  0.12266858124E+02 -0.16863557436E+02  0.21318294331E+02  0.51100000000E-03 0.  1.
<mgrwt>
<rscale>  0 0.26360871E+02</rscale>
<asrwt>0</asrwt>
<pdfrwt beam="2">  1        4 0.68673314E-02 0.26360871E+02</pdfrwt>
<pdfrwt beam="1">  1       -4 0.59874898E-03 0.26360871E+02</pdfrwt>
<totfact> 0.64773220E+05</totfact>
</mgrwt>
</event>
<event>
 4    1  0.5401488E-001  0.2102252E+02  0.7818608E-02  0.1725727E+00
          4   -1    0    0  501    0  0.00000000000E+00  0.00000000000E+00  0.45337091940E+02  0.45359324351E+02  0.14200000000E+01 0.  1.
         -4   -1    0    0    0  501 -0.00000000000E+00 -0.00000000000E+00 -0.22053087913E+01  0.26229347809E+01  0.14200000000E+01 0. -1.
        -11    1    1    2    0    0  0.31984280525E+01  0.97166673131E+01  0.16048729401E+02  0.19031691500E+02  0.51100000000E-03 0.  1.
         11    1    1    2    0    0 -0.31984280525E+01 -0.97166673131E+01  0.27083053747E+02  0.28950567632E+02  0.51100000000E-03 0. -1.
<mgrwt>
<rscale>  0 0.21022523E+02</rscale>
<asrwt>0</asrwt>
<pdfrwt beam="1">  1        4 0.70087721E-02 0.21022523E+02</pdfrwt>
<pdfrwt beam="2">  1       -4 0.37311356E-03 0.21022523E+02</pdfrwt>
<totfact> 0.10483364E+06</totfact>
</mgrwt>
</event>
<event>
 4    1  0.5401488E-001  0.2863655E+02  0.7818608E-02  0.1613668E+00
         -4   -1    0    0    0  501 -0.00000000000E+00  0.00000000000E+00  0.74570036864E+01  0.75910015136E+01  0.14200000000E+01 0.  1.
          4   -1    0    0  501    0  0.00000000000E+00 -0.00000000000E+00 -0.27095115146E+02  0.27132299290E+02  0.14200000000E+01 0. -1.
        -11    1    1    2    0    0  0.83908227957E+01  0.64751928770E+01 -0.21492283736E+02  0.23963561723E+02  0.51100000000E-03 0. -1.
         11    1    1    2    0    0 -0.83908227957E+01 -0.64751928770E+01  0.18541722772E+01  0.10759739080E+02  0.51100000000E-03 0.  1.
<mgrwt>
<rscale>  0 0.28636554E+02</rscale>
<asrwt>0</asrwt>
<pdfrwt beam="2">  1        4 0.41816471E-02 0.28636554E+02</pdfrwt>
<pdfrwt beam="1">  1       -4 0.11603992E-02 0.28636554E+02</pdfrwt>
<totfact> 0.56734432E+05</totfact>
</mgrwt>
</event>
<event>
 4    1  0.5401488E-001  0.2965532E+02  0.7818608E-02  0.1601930E+00
         -4   -1    0    0    0  501 -0.00000000000E+00  0.00000000000E+00  0.20696276342E+02  0.20744933223E+02  0.14200000000E+01 0.  1.
          4   -1    0    0  501    0  0.00000000000E+00 -0.00000000000E+00 -0.10514227024E+02  0.10609682838E+02  0.14200000000E+01 0. -1.
        -11    1    1    2    0    0 -0.11704596043E+02  0.91002444978E+01  0.53213036041E+01  0.15752088457E+02  0.51100000000E-03 0. -1.
         11    1    1    2    0    0  0.11704596043E+02 -0.91002444978E+01  0.48607457134E+01  0.15602527603E+02  0.51100000000E-03 0.  1.
<mgrwt>
<rscale>  0 0.29655317E+02</rscale>
<asrwt>0</asrwt>
<pdfrwt beam="2">  1        4 0.16286590E-02 0.29655317E+02</pdfrwt>
<pdfrwt beam="1">  1       -4 0.31951281E-02 0.29655317E+02</pdfrwt>
<totfact> 0.53134456E+05</totfact>
</mgrwt>
</event>
<event>
 4    1  0.5401488E-001  0.1034718E+03  0.7818608E-02  0.1273160E+00
          4   -1    0    0  501    0  0.00000000000E+00  0.00000000000E+00  0.68996190130E+02  0.69010800984E+02  0.14200000000E+01 0.  1.
         -4   -1    0    0    0  501 -0.00000000000E+00 -0.00000000000E+00 -0.38761748583E+02  0.38787750041E+02  0.14200000000E+01 0. -1.
        -11    1    1    2    0    0 -0.39462758001E+02 -0.33398290573E+02  0.17160470052E+02  0.54472349086E+02  0.51100000000E-03 0. -1.
         11    1    1    2    0    0  0.39462758001E+02  0.33398290573E+02  0.13073971495E+02  0.53326201939E+02  0.51100000000E-03 0.  1.
<mgrwt>
<rscale>  0 0.10347176E+03</rscale>
<asrwt>0</asrwt>
<pdfrwt beam="1">  1        4 0.10617922E-01 0.10347176E+03</pdfrwt>
<pdfrwt beam="2">  1       -4 0.59664701E-02 0.10347176E+03</pdfrwt>
<totfact> 0.18387571E+04</totfact>
</mgrwt>
</event>
<event>
 4    1  0.5401488E-001  0.2795594E+02  0.7818608E-02  0.1621848E+00
          4   -1    0    0  501    0  0.00000000000E+00  0.00000000000E+00  0.13900090767E+02  0.13972434410E+02  0.14200000000E+01 0.  1.
         -4   -1    0    0    0  501 -0.00000000000E+00 -0.00000000000E+00 -0.13911225972E+02  0.13983512007E+02  0.14200000000E+01 0. -1.
        -11    1    1    2    0    0 -0.12709665833E+02  0.43936797442E+01 -0.38191851473E+01  0.13979492220E+02  0.51100000000E-03 0. -1.
         11    1    1    2    0    0  0.12709665833E+02 -0.43936797442E+01  0.38080499422E+01  0.13976454197E+02  0.51100000000E-03 0.  1.
<mgrwt>
<rscale>  0 0.27955944E+02</rscale>
<asrwt>0</asrwt>
<pdfrwt beam="1">  1        4 0.21496009E-02 0.27955944E+02</pdfrwt>
<pdfrwt beam="2">  1       -4 0.21513140E-02 0.27955944E+02</pdfrwt>
<totfact> 0.61445271E+05</totfact>
</mgrwt>
</event>
<event>
 4    1  0.5401488E-001  0.2165237E+02  0.7818608E-02  0.1714334E+00
          4   -1    0    0  501    0  0.00000000000E+00  0.00000000000E+00  0.72546600370E+02  0.72560496313E+02  0.14200000000E+01 0.  1.
         -4   -1    0    0    0  501 -0.00000000000E+00 -0.00000000000E+00 -0.12867560178E+01  0.19162831339E+01  0.14200000000E+01 0. -1.
        -11    1    1    2    0    0 -0.81033413549E+01  0.67764902192E+01  0.27474699014E+02  0.29435421637E+02  0.51100000000E-03 0. -1.
         11    1    1    2    0    0  0.81033413549E+01 -0.67764902192E+01  0.43785145338E+02  0.45041357810E+02  0.51100000000E-03 0.  1.
<mgrwt>
<rscale>  0 0.21652373E+02</rscale>
<asrwt>0</asrwt>
<pdfrwt beam="1">  1        4 0.11210510E-01 0.21652373E+02</pdfrwt>
<pdfrwt beam="2">  1       -4 0.24745653E-03 0.21652373E+02</pdfrwt>
<totfact> 0.90151926E+05</totfact>
</mgrwt>
</event>
<event>
 4    1  0.5401488E-001  0.2296365E+02  0.7818608E-02  0.1692100E+00
          4   -1    0    0  501    0  0.00000000000E+00  0.00000000000E+00  0.13902359622E+01  0.19872483565E+01  0.14200000000E+01 0. -1.
         -4   -1    0    0    0  501 -0.00000000000E+00 -0.00000000000E+00 -0.77460709855E+02  0.77473724392E+02  0.14200000000E+01 0.  1.
        -11    1    1    2    0    0  0.18746042215E+01 -0.98237699750E+01 -0.57551938050E+02  0.58414434613E+02  0.51100000000E-03 0. -1.
         11    1    1    2    0    0 -0.18746042215E+01  0.98237699750E+01 -0.18518535842E+02  0.21046538136E+02  0.51100000000E-03 0.  1.
<mgrwt>
<rscale>  0 0.22963649E+02</rscale>
<asrwt>0</asrwt>
<pdfrwt beam="1">  1        4 0.26080766E-03 0.22963649E+02</pdfrwt>
<pdfrwt beam="2">  1       -4 0.11963955E-01 0.22963649E+02</pdfrwt>
<totfact> 0.78570633E+05</totfact>
</mgrwt>
</event>
<event>
 4    1  0.5401488E-001  0.2116849E+02  0.7818608E-02  0.1723042E+00
         -4   -1    0    0    0  501 -0.00000000000E+00  0.00000000000E+00  0.36375153677E+02  0.36402859847E+02  0.14200000000E+01 0.  1.
          4   -1    0    0  501    0  0.00000000000E+00 -0.00000000000E+00 -0.28855687458E+01  0.32160390213E+01  0.14200000000E+01 0. -1.
        -11    1    1    2    0    0  0.77648136576E+01  0.64302202601E+01  0.22776493906E+02  0.24908005513E+02  0.51100000000E-03 0.  1.
         11    1    1    2    0    0 -0.77648136576E+01 -0.64302202601E+01  0.10713091025E+02  0.14710893355E+02  0.51100000000E-03 0. -1.
<mgrwt>
<rscale>  0 0.21168487E+02</rscale>
<asrwt>0</asrwt>
<pdfrwt beam="2">  1        4 0.47148569E-03 0.21168487E+02</pdfrwt>
<pdfrwt beam="1">  1       -4 0.56237295E-02 0.21168487E+02</pdfrwt>
<totfact> 0.10665045E+06</totfact>
</mgrwt>
</event>
<event>
 4    1  0.5401488E-001  0.3848639E+02  0.7818608E-02  0.1519655E+00
         -4   -1    0    0    0  501 -0.00000000000E+00  0.00000000000E+00  0.96577289911E+01  0.97615638740E+01  0.14200000000E+01 0.  1.
          4   -1    0    0  501    0  0.00000000000E+00 -0.00000000000E+00 -0.38020231927E+02  0.38046740146E+02  0.14200000000E+01 0. -1.
        -11    1    1    2    0    0 -0.65651262094E+01 -0.17016960988E+02 -0.65618406922E+01  0.19383900457E+02  0.51100000000E-03 0. -1.
         11    1    1    2    0    0  0.65651262094E+01  0.17016960988E+02 -0.21800662243E+02  0.28424403563E+02  0.51100000000E-03 0.  1.
<mgrwt>
<rscale>  0 0.38486392E+02</rscale>
<asrwt>0</asrwt>
<pdfrwt beam="2">  1        4 0.58592928E-02 0.38486392E+02</pdfrwt>
<pdfrwt beam="1">  1       -4 0.14958309E-02 0.38486392E+02</pdfrwt>
<totfact> 0.27417429E+05</totfact>
</mgrwt>
</event>
<event>
 4    1  0.5401488E-001  0.2857991E+02  0.7818608E-02  0.1614338E+00
          4   -1    0    0  501    0  0.00000000000E+00  0.00000000000E+00  0.12263899208E+02  0.12345834269E+02  0.14200000000E+01 0.  1.
         -4   -1    0    0    0  501 -0.00000000000E+00 -0.00000000000E+00 -0.16482722254E+02  0.16543776259E+02  0.14200000000E+01 0. -1.
        -11    1    1    2    0    0  0.95927297954E+01 -0.56197153543E+01  0.69656879117E+01  0.13119545493E+02  0.51100000000E-03 0.  1.
         11    1    1    2    0    0 -0.95927297954E+01  0.56197153543E+01 -0.11184510957E+02  0.15770065035E+02  0.51100000000E-03 0. -1.
<mgrwt>
<rscale>  0 0.28579908E+02</rscale>
<asrwt>0</asrwt>
<pdfrwt beam="1">  1        4 0.18977529E-02 0.28579908E+02</pdfrwt>
<pdfrwt beam="2">  1       -4 0.25468026E-02 0.28579908E+02</pdfrwt>
<totfact> 0.58279353E+05</totfact>
</mgrwt>
</event>
<event>
 4    1  0.5401488E-001  0.2230010E+02  0.7818608E-02  0.1703113E+00
         -4   -1    0    0    0  501 -0.00000000000E+00  0.00000000000E+00  0.59457897798E+01  0.61130038529E+01  0.14200000000E+01 0. -1.
          4   -1    0    0  501    0  0.00000000000E+00 -0.00000000000E+00 -0.20427377365E+02  0.20476673216E+02  0.14200000000E+01 0.  1.
        -11    1    1    2    0    0 -0.99385004129E+01 -0.24895699762E+01 -0.19955234145E+01  0.10438096717E+02  0.51100000000E-03 0.  1.
         11    1    1    2    0    0  0.99385004129E+01  0.24895699762E+01 -0.12486064170E+02  0.16151580352E+02  0.51100000000E-03 0. -1.
<mgrwt>
<rscale>  0 0.22300102E+02</rscale>
<asrwt>0</asrwt>
<pdfrwt beam="2">  1        4 0.31593280E-02 0.22300102E+02</pdfrwt>
<pdfrwt beam="1">  1       -4 0.93139151E-03 0.22300102E+02</pdfrwt>
<totfact> 0.10083602E+06</totfact>
</mgrwt>
</event>
<event>
 4    1  0.5401488E-001  0.2039062E+02  0.7818608E-02  0.1737670E+00
         -4   -1    0    0    0  501 -0.00000000000E+00  0.00000000000E+00  0.48819393259E+01  0.50842631307E+01  0.14200000000E+01 0. -1.
          4   -1    0    0  501    0  0.00000000000E+00 -0.00000000000E+00 -0.20632142306E+02  0.20680950078E+02  0.14200000000E+01 0.  1.
        -11    1    1    2    0    0 -0.11316709421E+01  0.10125375580E+02 -0.83485981738E+01  0.13172053807E+02  0.51100000000E-03 0.  1.
         11    1    1    2    0    0  0.11316709421E+01 -0.10125375580E+02 -0.74016048065E+01  0.12593159402E+02  0.51100000000E-03 0. -1.
<mgrwt>
<rscale>  0 0.20390618E+02</rscale>
<asrwt>0</asrwt>
<pdfrwt beam="2">  1        4 0.31934935E-02 0.20390618E+02</pdfrwt>
<pdfrwt beam="1">  1       -4 0.77038541E-03 0.20390618E+02</pdfrwt>
<totfact> 0.12191163E+06</totfact>
</mgrwt>
</event>
<event>
 4    1  0.5401488E-001  0.3626610E+02  0.7818608E-02  0.1537636E+00
         -4   -1    0    0    0  501 -0.00000000000E+00  0.00000000000E+00  0.54495097142E+01  0.56314790353E+01  0.14200000000E+01 0.  1.
          4   -1    0    0  501    0  0.00000000000E+00 -0.00000000000E+00 -0.59155618693E+02  0.59172659421E+02  0.14200000000E+01 0. -1.
        -11    1    1    2    0    0 -0.65504924610E+01  0.14982763142E+02 -0.12849427449E+02  0.20796632633E+02  0.51100000000E-03 0. -1.
         11    1    1    2    0    0  0.65504924610E+01 -0.14982763142E+02 -0.40856681530E+02  0.44007505823E+02  0.51100000000E-03 0.  1.
<mgrwt>
<rscale>  0 0.36266103E+02</rscale>
<asrwt>0</asrwt>
<pdfrwt beam="2">  1        4 0.91161724E-02 0.36266103E+02</pdfrwt>
<pdfrwt beam="1">  1       -4 0.85369462E-03 0.36266103E+02</pdfrwt>
<totfact> 0.29875907E+05</totfact>
</mgrwt>
</event>
<event>
 4    1  0.5401488E-001  0.2738911E+02  0.7818608E-02  0.1628882E+00
          4   -1    0    0  501    0  0.00000000000E+00  0.00000000000E+00  0.43960899220E+01  0.46197409670E+01  0.14200000000E+01 0. -1.
         -4   -1    0    0    0  501 -0.00000000000E+00 -0.00000000000E+00 -0.41366429073E+02  0.41390794318E+02  0.14200000000E+01 0.  1.
        -11    1    1    2    0    0 -0.12865792106E+02  0.12574906186E+01 -0.10891989555E+02  0.16904003250E+02  0.51100000000E-03 0. -1.
         11    1    1    2    0    0  0.12865792106E+02 -0.12574906186E+01 -0.26078349596E+02  0.29106532035E+02  0.51100000000E-03 0.  1.
<mgrwt>
<rscale>  0 0.27389111E+02</rscale>
<asrwt>0</asrwt>
<pdfrwt beam="1">  1        4 0.69539973E-03 0.27389111E+02</pdfrwt>
<pdfrwt beam="2">  1       -4 0.63831439E-02 0.27389111E+02</pdfrwt>
<totfact> 0.60092362E+05</totfact>
</mgrwt>
</event>
<event>
 4    1  0.5401488E-001  0.4373939E+02  0.7818608E-02  0.1482368E+00
         -4   -1    0    0    0  501 -0.00000000000E+00  0.00000000000E+00  0.76736417733E+02  0.76749555090E+02  0.14200000000E+01 0.  1.
          4   -1    0    0  501    0  0.00000000000E+00 -0.00000000000E+00 -0.61380766109E+01  0.63001892417E+01  0.14200000000E+01 0. -1.
        -11    1    1    2    0    0 -0.12890146704E+02  0.10201629014E+02  0.79115641096E+01  0.18243408769E+02  0.51100000000E-03 0. -1.
         11    1    1    2    0    0  0.12890146704E+02 -0.10201629014E+02  0.62686777012E+02  0.64806335562E+02  0.51100000000E-03 0.  1.
<mgrwt>
<rscale>  0 0.43739390E+02</rscale>
<asrwt>0</asrwt>
<pdfrwt beam="2">  1        4 0.95780026E-03 0.43739390E+02</pdfrwt>
<pdfrwt beam="1">  1       -4 0.11819083E-01 0.43739390E+02</pdfrwt>
<totfact> 0.18159315E+05</totfact>
</mgrwt>
</event>
<event>
 4    1  0.5401488E-001  0.2178126E+02  0.7818608E-02  0.1712063E+00
         -4   -1    0    0    0  501 -0.00000000000E+00  0.00000000000E+00  0.21499949794E+02  0.21546791899E+02  0.14200000000E+01 0. -1.
          4   -1    0    0  501    0  0.00000000000E+00 -0.00000000000E+00 -0.53713503023E+01  0.55558801346E+01  0.14200000000E+01 0.  1.
        -11    1    1    2    0    0  0.22699111462E+00 -0.10312395858E+02  0.12412050943E+02  0.16138650569E+02  0.51100000000E-03 0. -1.
         11    1    1    2    0    0 -0.22699111462E+00  0.10312395858E+02  0.37165485483E+01  0.10964021465E+02  0.51100000000E-03 0.  1.
<mgrwt>
<rscale>  0 0.21781256E+02</rscale>
<asrwt>0</asrwt>
<pdfrwt beam="2">  1        4 0.84415943E-03 0.21781256E+02</pdfrwt>
<pdfrwt beam="1">  1       -4 0.33254824E-02 0.21781256E+02</pdfrwt>
<totfact> 0.10571147E+06</totfact>
</mgrwt>
</event>
<event>
 4    1  0.5401488E-001  0.6370901E+02  0.7818608E-02  0.1382895E+00
          4   -1    0    0  501    0  0.00000000000E+00  0.00000000000E+00  0.11126782231E+02  0.11217026469E+02  0.14200000000E+01 0.  1.
         -4   -1    0    0    0  501 -0.00000000000E+00 -0.00000000000E+00 -0.90731074570E+02  0.90742185849E+02  0.14200000000E+01 0. -1.
        -11    1    1    2    0    0 -0.27467377367E+02 -0.92608481429E+01 -0.18661901757E+02  0.34474435532E+02  0.51100000000E-03 0.  1.
         11    1    1    2    0    0  0.27467377367E+02  0.92608481429E+01 -0.60942390582E+02  0.67484776787E+02  0.51100000000E-03 0. -1.
<mgrwt>
<rscale>  0 0.63709007E+02</rscale>
<asrwt>0</asrwt>
<pdfrwt beam="1">  1        4 0.17196093E-02 0.63709007E+02</pdfrwt>
<pdfrwt beam="2">  1       -4 0.13966423E-01 0.63709007E+02</pdfrwt>
<totfact> 0.67771382E+04</totfact>
</mgrwt>
</event>
<event>
 4    1  0.5401488E-001  0.2333490E+02  0.7818608E-02  0.1686138E+00
         -4   -1    0    0    0  501 -0.00000000000E+00  0.00000000000E+00  0.21563993548E+02  0.21610696836E+02  0.14200000000E+01 0.  1.
          4   -1    0    0  501    0  0.00000000000E+00 -0.00000000000E+00 -0.61786528901E+01  0.63397280333E+01  0.14200000000E+01 0. -1.
        -11    1    1    2    0    0  0.80824752395E+01  0.64170845406E+01  0.14212021357E+02  0.17563796040E+02  0.51100000000E-03 0.  1.
         11    1    1    2    0    0 -0.80824752395E+01 -0.64170845406E+01  0.11733193004E+01  0.10386628829E+02  0.51100000000E-03 0. -1.
<mgrwt>
<rscale>  0 0.23334900E+02</rscale>
<asrwt>0</asrwt>
<pdfrwt beam="2">  1        4 0.96654494E-03 0.23334900E+02</pdfrwt>
<pdfrwt beam="1">  1       -4 0.33335204E-02 0.23334900E+02</pdfrwt>
<totfact> 0.91091857E+05</totfact>
</mgrwt>
</event>
<event>
 4    1  0.5401488E-001  0.3444134E+02  0.7818608E-02  0.1553618E+00
          4   -1    0    0  501    0  0.00000000000E+00  0.00000000000E+00  0.13377574768E+03  0.13378328396E+03  0.14200000000E+01 0.  1.
         -4   -1    0    0    0  501 -0.00000000000E+00 -0.00000000000E+00 -0.19809906365E+01  0.24373600272E+01  0.14200000000E+01 0. -1.
        -11    1    1    2    0    0 -0.11177739568E+01  0.16966307231E+02  0.76690274858E+02  0.78552550931E+02  0.51100000000E-03 0. -1.
         11    1    1    2    0    0  0.11177739568E+01 -0.16966307231E+02  0.55104482183E+02  0.57668093054E+02  0.51100000000E-03 0.  1.
<mgrwt>
<rscale>  0 0.34441339E+02</rscale>
<asrwt>0</asrwt>
<pdfrwt beam="1">  1        4 0.20616567E-01 0.34441339E+02</pdfrwt>
<pdfrwt beam="2">  1       -4 0.34045288E-03 0.34441339E+02</pdfrwt>
<totfact> 0.27700554E+05</totfact>
</mgrwt>
</event>
<event>
 4    1  0.5401488E-001  0.6844786E+02  0.7818608E-02  0.1365452E+00
          4   -1    0    0  501    0  0.00000000000E+00  0.00000000000E+00  0.29028459860E+02  0.29063170540E+02  0.14200000000E+01 0. -1.
         -4   -1    0    0    0  501 -0.00000000000E+00 -0.00000000000E+00 -0.40277943895E+02  0.40302967191E+02  0.14200000000E+01 0.  1.
        -11    1    1    2    0    0  0.19564120852E+02 -0.15014635094E+02  0.18422982702E+02  0.30783118484E+02  0.51100000000E-03 0. -1.
         11    1    1    2    0    0 -0.19564120852E+02  0.15014635094E+02 -0.29672466737E+02  0.38583019247E+02  0.51100000000E-03 0.  1.
<mgrwt>
<rscale>  0 0.68447865E+02</rscale>
<asrwt>0</asrwt>
<pdfrwt beam="1">  1        4 0.44705118E-02 0.68447865E+02</pdfrwt>
<pdfrwt beam="2">  1       -4 0.62012017E-02 0.68447865E+02</pdfrwt>
<totfact> 0.61233633E+04</totfact>
</mgrwt>
</event>
<event>
 4    1  0.5401488E-001  0.2392880E+02  0.7818608E-02  0.1676882E+00
          4   -1    0    0  501    0  0.00000000000E+00  0.00000000000E+00  0.95880522312E+01  0.96926335734E+01  0.14200000000E+01 0. -1.
         -4   -1    0    0    0  501 -0.00000000000E+00 -0.00000000000E+00 -0.14709771022E+02  0.14778151559E+02  0.14200000000E+01 0.  1.
        -11    1    1    2    0    0 -0.79375817954E+01 -0.74516664775E+01  0.25127930624E+01  0.11173480536E+02  0.51100000000E-03 0. -1.
         11    1    1    2    0    0  0.79375817954E+01  0.74516664775E+01 -0.76345118529E+01  0.13297304597E+02  0.51100000000E-03 0.  1.
<mgrwt>
<rscale>  0 0.23928797E+02</rscale>
<asrwt>0</asrwt>
<pdfrwt beam="1">  1        4 0.14883897E-02 0.23928797E+02</pdfrwt>
<pdfrwt beam="2">  1       -4 0.22763465E-02 0.23928797E+02</pdfrwt>
<totfact> 0.87600511E+05</totfact>
</mgrwt>
</event>
<event>
 4    1  0.5401488E-001  0.3392560E+02  0.7818608E-02  0.1558354E+00
         -4   -1    0    0    0  501 -0.00000000000E+00  0.00000000000E+00  0.42958804588E+02  0.42982267176E+02  0.14200000000E+01 0.  1.
          4   -1    0    0  501    0  0.00000000000E+00 -0.00000000000E+00 -0.65971080948E+01  0.67482023691E+01  0.14200000000E+01 0. -1.
        -11    1    1    2    0    0  0.14225868932E+02  0.61275568897E+01  0.80446726398E+01  0.17453912411E+02  0.51100000000E-03 0.  1.
         11    1    1    2    0    0 -0.14225868932E+02 -0.61275568897E+01  0.28317023853E+02  0.32276557135E+02  0.51100000000E-03 0. -1.
<mgrwt>
<rscale>  0 0.33925604E+02</rscale>
<asrwt>0</asrwt>
<pdfrwt beam="2">  1        4 0.10283671E-02 0.33925604E+02</pdfrwt>
<pdfrwt beam="1">  1       -4 0.66224745E-02 0.33925604E+02</pdfrwt>
<totfact> 0.36599828E+05</totfact>
</mgrwt>
</event>
<event>
 4    1  0.5401488E-001  0.2582053E+02  0.7818608E-02  0.1649489E+00
          4   -1    0    0  501    0  0.00000000000E+00  0.00000000000E+00  0.10247384388E+02  0.10345302644E+02  0.14200000000E+01 0. -1.
         -4   -1    0    0    0  501 -0.00000000000E+00 -0.00000000000E+00 -0.16058379802E+02  0.16121040967E+02  0.14200000000E+01 0.  1.
        -11    1    1    2    0    0 -0.51365189231E+01  0.92239783159E+01  0.47106438710E+01  0.11560958808E+02  0.51100000000E-03 0. -1.
         11    1    1    2    0    0  0.51365189231E+01 -0.92239783159E+01 -0.10521639285E+02  0.14905384803E+02  0.51100000000E-03 0.  1.
<mgrwt>
<rscale>  0 0.25820528E+02</rscale>
<asrwt>0</asrwt>
<pdfrwt beam="1">  1        4 0.15888729E-02 0.25820528E+02</pdfrwt>
<pdfrwt beam="2">  1       -4 0.24828722E-02 0.25820528E+02</pdfrwt>
<totfact> 0.73663374E+05</totfact>
</mgrwt>
</event>
<event>
 4    1  0.5401488E-001  0.4995192E+02  0.7818608E-02  0.1445601E+00
         -4   -1    0    0    0  501 -0.00000000000E+00  0.00000000000E+00  0.17135252727E+03  0.17135841095E+03  0.14200000000E+01 0.  1.
          4   -1    0    0  501    0  0.00000000000E+00 -0.00000000000E+00 -0.34957930793E+01  0.37731908583E+01  0.14200000000E+01 0. -1.
        -11    1    1    2    0    0 -0.20707725967E+02  0.11413056259E+02  0.55720634760E+02  0.60529801802E+02  0.51100000000E-03 0. -1.
         11    1    1    2    0    0  0.20707725967E+02 -0.11413056259E+02  0.11213609943E+03  0.11460180000E+03  0.51100000000E-03 0.  1.
<mgrwt>
<rscale>  0 0.49951924E+02</rscale>
<asrwt>0</asrwt>
<pdfrwt beam="2">  1        4 0.55960518E-03 0.49951924E+02</pdfrwt>
<pdfrwt beam="1">  1       -4 0.26383719E-01 0.49951924E+02</pdfrwt>
<totfact> 0.10512046E+05</totfact>
</mgrwt>
</event>
<event>
 4    1  0.5401488E-001  0.4411962E+02  0.7818608E-02  0.1479914E+00
          4   -1    0    0  501    0  0.00000000000E+00  0.00000000000E+00  0.11665578372E+03  0.11666442592E+03  0.14200000000E+01 0.  1.
         -4   -1    0    0    0  501 -0.00000000000E+00 -0.00000000000E+00 -0.40416482863E+01  0.42838441697E+01  0.14200000000E+01 0. -1.
        -11    1    1    2    0    0  0.13527743819E+02 -0.17193186361E+02  0.64075180913E+02  0.67706973935E+02  0.51100000000E-03 0.  1.
         11    1    1    2    0    0 -0.13527743819E+02  0.17193186361E+02  0.48538954519E+02  0.53241296154E+02  0.51100000000E-03 0. -1.
<mgrwt>
<rscale>  0 0.44119616E+02</rscale>
<asrwt>0</asrwt>
<pdfrwt beam="1">  1        4 0.17966336E-01 0.44119616E+02</pdfrwt>
<pdfrwt beam="2">  1       -4 0.64108738E-03 0.44119616E+02</pdfrwt>
<totfact> 0.16100175E+05</totfact>
</mgrwt>
</event>
<event>
 4    1  0.5401488E-001  0.3277895E+02  0.7818608E-02  0.1569257E+00
         -4   -1    0    0    0  501 -0.00000000000E+00  0.00000000000E+00  0.39195565815E+02  0.39221279677E+02  0.14200000000E+01 0. -1.
          4   -1    0    0  501    0  0.00000000000E+00 -0.00000000000E+00 -0.67513511789E+01  0.68990682517E+01  0.14200000000E+01 0.  1.
        -11    1    1    2    0    0  0.13143984527E+02  0.97629252662E+01  0.17252033942E+02  0.23784694961E+02  0.51100000000E-03 0.  1.
         11    1    1    2    0    0 -0.13143984527E+02 -0.97629252662E+01  0.15192180694E+02  0.22335652968E+02  0.51100000000E-03 0. -1.
<mgrwt>
<rscale>  0 0.32778948E+02</rscale>
<asrwt>0</asrwt>
<pdfrwt beam="2">  1        4 0.10520103E-02 0.32778948E+02</pdfrwt>
<pdfrwt beam="1">  1       -4 0.60434277E-02 0.32778948E+02</pdfrwt>
<totfact> 0.40098768E+05</totfact>
</mgrwt>
</event>
<event>
 4    1  0.5401488E-001  0.5526798E+02  0.7818608E-02  0.1418836E+00
          4   -1    0    0  501    0  0.00000000000E+00  0.00000000000E+00  0.53607114971E+02  0.53625918879E+02  0.14200000000E+01 0.  1.
         -4   -1    0    0    0  501 -0.00000000000E+00 -0.00000000000E+00 -0.14188326416E+02  0.14259207779E+02  0.14200000000E+01 0. -1.
        -11    1    1    2    0    0 -0.84340298178E+01  0.18972615916E+02 -0.26894621313E+01  0.20936241795E+02  0.51100000000E-03 0. -1.
         11    1    1    2    0    0  0.84340298178E+01 -0.18972615916E+02  0.42108250687E+02  0.46948884863E+02  0.51100000000E-03 0.  1.
<mgrwt>
<rscale>  0 0.55267979E+02</rscale>
<asrwt>0</asrwt>
<pdfrwt beam="1">  1        4 0.82541472E-02 0.55267979E+02</pdfrwt>
<pdfrwt beam="2">  1       -4 0.21897183E-02 0.55267979E+02</pdfrwt>
<totfact> 0.10641230E+05</totfact>
</mgrwt>
</event>
<event>
 4    1  0.5401488E-001  0.2780310E+02  0.7818608E-02  0.1623724E+00
          4   -1    0    0  501    0  0.00000000000E+00  0.00000000000E+00  0.30466392330E+01  0.33613108479E+01  0.14200000000E+01 0. -1.
         -4   -1    0    0    0  501 -0.00000000000E+00 -0.00000000000E+00 -0.59993197405E+02  0.60010000290E+02  0.14200000000E+01 0.  1.
        -11    1    1    2    0    0 -0.56258933009E+01  0.11689108183E+02 -0.17084307391E+02  0.21451328277E+02  0.51100000000E-03 0. -1.
         11    1    1    2    0    0  0.56258933009E+01 -0.11689108183E+02 -0.39862250781E+02  0.41919982861E+02  0.51100000000E-03 0.  1.
<mgrwt>
<rscale>  0 0.27803104E+02</rscale>
<asrwt>0</asrwt>
<pdfrwt beam="1">  1        4 0.49421181E-03 0.27803104E+02</pdfrwt>
<pdfrwt beam="2">  1       -4 0.92552199E-02 0.27803104E+02</pdfrwt>
<totfact> 0.54833721E+05</totfact>
</mgrwt>
</event>
<event>
 4    1  0.5401488E-001  0.5819844E+02  0.7818608E-02  0.1405551E+00
          4   -1    0    0  501    0  0.00000000000E+00  0.00000000000E+00  0.90998440615E+01  0.92099707896E+01  0.14200000000E+01 0. -1.
         -4   -1    0    0    0  501 -0.00000000000E+00 -0.00000000000E+00 -0.92377360010E+02  0.92388273295E+02  0.14200000000E+01 0.  1.
        -11    1    1    2    0    0  0.11156557506E+02  0.23833555541E+02 -0.19956825876E+02  0.33026989636E+02  0.51100000000E-03 0. -1.
         11    1    1    2    0    0 -0.11156557506E+02 -0.23833555541E+02 -0.63320690073E+02  0.68571254449E+02  0.51100000000E-03 0.  1.
<mgrwt>
<rscale>  0 0.58198441E+02</rscale>
<asrwt>0</asrwt>
<pdfrwt beam="1">  1        4 0.14092868E-02 0.58198441E+02</pdfrwt>
<pdfrwt beam="2">  1       -4 0.14221212E-01 0.58198441E+02</pdfrwt>
<totfact> 0.85383404E+04</totfact>
</mgrwt>
</event>
<event>
 4    1  0.5401488E-001  0.2445638E+02  0.7818608E-02  0.1668935E+00
          4   -1    0    0  501    0  0.00000000000E+00  0.00000000000E+00  0.11246719757E+01  0.18114323208E+01  0.14200000000E+01 0. -1.
         -4   -1    0    0    0  501 -0.00000000000E+00 -0.00000000000E+00 -0.10116225421E+03  0.10117221988E+03  0.14200000000E+01 0.  1.
        -11    1    1    2    0    0  0.64869794246E+01  0.97474116083E+01 -0.35169281475E+02  0.37067118783E+02  0.51100000000E-03 0. -1.
         11    1    1    2    0    0 -0.64869794246E+01 -0.97474116083E+01 -0.64868300757E+02  0.65916533423E+02  0.51100000000E-03 0.  1.
<mgrwt>
<rscale>  0 0.24456385E+02</rscale>
<asrwt>0</asrwt>
<pdfrwt beam="1">  1        4 0.22662085E-03 0.24456385E+02</pdfrwt>
<pdfrwt beam="2">  1       -4 0.15617013E-01 0.24456385E+02</pdfrwt>
<totfact> 0.64238348E+05</totfact>
</mgrwt>
</event>
<event>
 4    1  0.5401488E-001  0.2479415E+02  0.7818608E-02  0.1663976E+00
         -4   -1    0    0    0  501 -0.00000000000E+00  0.00000000000E+00  0.50899037251E+02  0.50918841239E+02  0.14200000000E+01 0.  1.
          4   -1    0    0  501    0  0.00000000000E+00 -0.00000000000E+00 -0.28309455222E+01  0.31671205455E+01  0.14200000000E+01 0. -1.
        -11    1    1    2    0    0  0.11708886762E+02 -0.33373680170E+01  0.18940861660E+02  0.22516489406E+02  0.51100000000E-03 0.  1.
         11    1    1    2    0    0 -0.11708886762E+02  0.33373680170E+01  0.29127230069E+02  0.31569472378E+02  0.51100000000E-03 0. -1.
<mgrwt>
<rscale>  0 0.24794149E+02</rscale>
<asrwt>0</asrwt>
<pdfrwt beam="2">  1        4 0.46291309E-03 0.24794149E+02</pdfrwt>
<pdfrwt beam="1">  1       -4 0.78580040E-02 0.24794149E+02</pdfrwt>
<totfact> 0.72552942E+05</totfact>
</mgrwt>
</event>
<event>
 4    1  0.5401488E-001  0.5128406E+02  0.7818608E-02  0.1438536E+00
         -4   -1    0    0    0  501 -0.00000000000E+00  0.00000000000E+00  0.15741076307E+02  0.15804995518E+02  0.14200000000E+01 0. -1.
          4   -1    0    0  501    0  0.00000000000E+00 -0.00000000000E+00 -0.41609878437E+02  0.41634101210E+02  0.14200000000E+01 0.  1.
        -11    1    1    2    0    0 -0.19286644554E+02 -0.15661911714E+02 -0.58292461098E+01  0.25519605153E+02  0.51100000000E-03 0. -1.
         11    1    1    2    0    0  0.19286644554E+02  0.15661911714E+02 -0.20039556020E+02  0.31919491575E+02  0.51100000000E-03 0.  1.
<mgrwt>
<rscale>  0 0.51284061E+02</rscale>
<asrwt>0</asrwt>
<pdfrwt beam="2">  1        4 0.64082999E-02 0.51284061E+02</pdfrwt>
<pdfrwt beam="1">  1       -4 0.24284842E-02 0.51284061E+02</pdfrwt>
<totfact> 0.13234316E+05</totfact>
</mgrwt>
</event>
<event>
 4    1  0.5401488E-001  0.2273300E+02  0.7818608E-02  0.1695875E+00
          4   -1    0    0  501    0  0.00000000000E+00  0.00000000000E+00  0.37054342229E+01  0.39682039741E+01  0.14200000000E+01 0.  1.
         -4   -1    0    0    0  501 -0.00000000000E+00 -0.00000000000E+00 -0.33394667451E+02  0.33424844265E+02  0.14200000000E+01 0. -1.
        -11    1    1    2    0    0  0.11366393912E+02  0.35911049146E-01 -0.14900911804E+02  0.18741221225E+02  0.51100000000E-03 0.  1.
         11    1    1    2    0    0 -0.11366393912E+02 -0.35911049146E-01 -0.14788321424E+02  0.18651827014E+02  0.51100000000E-03 0. -1.
<mgrwt>
<rscale>  0 0.22733004E+02</rscale>
<asrwt>0</asrwt>
<pdfrwt beam="1">  1        4 0.59260118E-03 0.22733004E+02</pdfrwt>
<pdfrwt beam="2">  1       -4 0.51601753E-02 0.22733004E+02</pdfrwt>
<totfact> 0.92705275E+05</totfact>
</mgrwt>
</event>
<event>
 4    1  0.5401488E-001  0.2819574E+02  0.7818608E-02  0.1618934E+00
         -4   -1    0    0    0  501 -0.00000000000E+00  0.00000000000E+00  0.35514470724E+01  0.38248106239E+01  0.14200000000E+01 0. -1.
          4   -1    0    0  501    0  0.00000000000E+00 -0.00000000000E+00 -0.53605976878E+02  0.53624781184E+02  0.14200000000E+01 0.  1.
        -11    1    1    2    0    0 -0.92535068704E+01  0.84636767049E+01 -0.38151330243E+02  0.40159497163E+02  0.51100000000E-03 0.  1.
         11    1    1    2    0    0  0.92535068704E+01 -0.84636767049E+01 -0.11903199563E+02  0.17290094646E+02  0.51100000000E-03 0. -1.
<mgrwt>
<rscale>  0 0.28195738E+02</rscale>
<asrwt>0</asrwt>
<pdfrwt beam="2">  1        4 0.82695473E-02 0.28195738E+02</pdfrwt>
<pdfrwt beam="1">  1       -4 0.56885096E-03 0.28195738E+02</pdfrwt>
<totfact> 0.54202819E+05</totfact>
</mgrwt>
</event>
<event>
 4    1  0.5401488E-001  0.2725348E+02  0.7818608E-02  0.1630596E+00
         -4   -1    0    0    0  501 -0.00000000000E+00  0.00000000000E+00  0.40674640725E+02  0.40699420120E+02  0.14200000000E+01 0. -1.
          4   -1    0    0  501    0  0.00000000000E+00 -0.00000000000E+00 -0.44279406199E+01  0.46500600139E+01  0.14200000000E+01 0.  1.
        -11    1    1    2    0    0  0.85985932081E+01  0.10538344274E+02  0.16735624860E+02  0.21565566186E+02  0.51100000000E-03 0. -1.
         11    1    1    2    0    0 -0.85985932081E+01 -0.10538344274E+02  0.19511075245E+02  0.23783913948E+02  0.51100000000E-03 0.  1.
<mgrwt>
<rscale>  0 0.27253478E+02</rscale>
<asrwt>0</asrwt>
<pdfrwt beam="2">  1        4 0.70021385E-03 0.27253478E+02</pdfrwt>
<pdfrwt beam="1">  1       -4 0.62766292E-02 0.27253478E+02</pdfrwt>
<totfact> 0.60895382E+05</totfact>
</mgrwt>
</event>
<event>
 4    1  0.5401488E-001  0.4086998E+02  0.7818608E-02  0.1501905E+00
         -4   -1    0    0    0  501 -0.00000000000E+00  0.00000000000E+00  0.38372070992E+01  0.40915227388E+01  0.14200000000E+01 0.  1.
          4   -1    0    0  501    0  0.00000000000E+00 -0.00000000000E+00 -0.10507636232E+03  0.10508595681E+03  0.14200000000E+01 0. -1.
        -11    1    1    2    0    0  0.32774243706E+01 -0.15907322628E+02 -0.17490216693E+02  0.23868223728E+02  0.51100000000E-03 0. -1.
         11    1    1    2    0    0 -0.32774243706E+01  0.15907322628E+02 -0.83748938525E+02  0.85309255817E+02  0.51100000000E-03 0.  1.
<mgrwt>
<rscale>  0 0.40869983E+02</rscale>
<asrwt>0</asrwt>
<pdfrwt beam="2">  1        4 0.16185893E-01 0.40869983E+02</pdfrwt>
<pdfrwt beam="1">  1       -4 0.61064041E-03 0.40869983E+02</pdfrwt>
<totfact> 0.19909310E+05</totfact>
</mgrwt>
</event>
<event>
 4    1  0.5401488E-001  0.2971921E+02  0.7818608E-02  0.1601213E+00
          4   -1    0    0  501    0  0.00000000000E+00  0.00000000000E+00  0.76139478376E+02  0.76152718713E+02  0.14200000000E+01 0.  1.
         -4   -1    0    0    0  501 -0.00000000000E+00 -0.00000000000E+00 -0.27118992698E+01  0.30611758606E+01  0.14200000000E+01 0. -1.
        -11    1    1    2    0    0  0.10774533356E+02  0.71403027463E+01  0.17175508653E+02  0.21495873792E+02  0.51100000000E-03 0. -1.
         11    1    1    2    0    0 -0.10774533356E+02 -0.71403027463E+01  0.56252070453E+02  0.57718020781E+02  0.51100000000E-03 0.  1.
<mgrwt>
<rscale>  0 0.29719215E+02</rscale>
<asrwt>0</asrwt>
<pdfrwt beam="1">  1        4 0.11741653E-01 0.29719215E+02</pdfrwt>
<pdfrwt beam="2">  1       -4 0.44510116E-03 0.29719215E+02</pdfrwt>
<totfact> 0.45048443E+05</totfact>
</mgrwt>
</event>
<event>
 4    1  0.5401488E-001  0.7487171E+02  0.7818608E-02  0.1344269E+00
          4   -1    0    0  501    0  0.00000000000E+00  0.00000000000E+00  0.23185622620E+02  0.23229065764E+02  0.14200000000E+01 0.  1.
         -4   -1    0    0    0  501 -0.00000000000E+00 -0.00000000000E+00 -0.60336108828E+02  0.60352816243E+02  0.14200000000E+01 0. -1.
        -11    1    1    2    0    0  0.23858059286E+02  0.72356853849E+01  0.12599908527E+02  0.27934205394E+02  0.51100000000E-03 0.  1.
         11    1    1    2    0    0 -0.23858059286E+02 -0.72356853849E+01 -0.49750394735E+02  0.55647676613E+02  0.51100000000E-03 0. -1.
<mgrwt>
<rscale>  0 0.74871706E+02</rscale>
<asrwt>0</asrwt>
<pdfrwt beam="1">  1        4 0.35716459E-02 0.74871706E+02</pdfrwt>
<pdfrwt beam="2">  1       -4 0.92871052E-02 0.74871706E+02</pdfrwt>
<totfact> 0.46638785E+04</totfact>
</mgrwt>
</event>
<event>
 4    1  0.5401488E-001  0.3265011E+02  0.7818608E-02  0.1570516E+00
          4   -1    0    0  501    0  0.00000000000E+00  0.00000000000E+00  0.44724883035E+02  0.44747419618E+02  0.14200000000E+01 0. -1.
         -4   -1    0    0    0  501 -0.00000000000E+00 -0.00000000000E+00 -0.58498195097E+01  0.60197000171E+01  0.14200000000E+01 0.  1.
        -11    1    1    2    0    0  0.56266775631E+01  0.14652522569E+02  0.12457585788E+02  0.20038646710E+02  0.51100000000E-03 0.  1.
         11    1    1    2    0    0 -0.56266775631E+01 -0.14652522569E+02  0.26417477738E+02  0.30728472925E+02  0.51100000000E-03 0. -1.
<mgrwt>
<rscale>  0 0.32650113E+02</rscale>
<asrwt>0</asrwt>
<pdfrwt beam="1">  1        4 0.68955524E-02 0.32650113E+02</pdfrwt>
<pdfrwt beam="2">  1       -4 0.91477357E-03 0.32650113E+02</pdfrwt>
<totfact> 0.39830751E+05</totfact>
</mgrwt>
</event>
<event>
 4    1  0.5401488E-001  0.2428925E+02  0.7818608E-02  0.1671426E+00
          4   -1    0    0  501    0  0.00000000000E+00  0.00000000000E+00  0.92357209348E+01  0.93442464214E+01  0.14200000000E+01 0.  1.
         -4   -1    0    0    0  501 -0.00000000000E+00 -0.00000000000E+00 -0.15735759952E+02  0.15799700670E+02  0.14200000000E+01 0. -1.
        -11    1    1    2    0    0 -0.39812205582E+01 -0.99278686231E+01 -0.92038556639E+01  0.14111118023E+02  0.51100000000E-03 0. -1.
         11    1    1    2    0    0  0.39812205582E+01  0.99278686231E+01  0.27038166465E+01  0.11032829068E+02  0.51100000000E-03 0.  1.
<mgrwt>
<rscale>  0 0.24289248E+02</rscale>
<asrwt>0</asrwt>
<pdfrwt beam="1">  1        4 0.14341468E-02 0.24289248E+02</pdfrwt>
<pdfrwt beam="2">  1       -4 0.24341528E-02 0.24289248E+02</pdfrwt>
<totfact> 0.84595619E+05</totfact>
</mgrwt>
</event>
<event>
 4    1  0.5401488E-001  0.2237342E+02  0.7818608E-02  0.1701873E+00
          4   -1    0    0  501    0  0.00000000000E+00  0.00000000000E+00  0.21656018835E+02  0.21702524088E+02  0.14200000000E+01 0. -1.
         -4   -1    0    0    0  501 -0.00000000000E+00 -0.00000000000E+00 -0.56378088103E+01  0.58138875274E+01  0.14200000000E+01 0.  1.
        -11    1    1    2    0    0 -0.87563079089E+01  0.65693692875E+01  0.10843929645E+02  0.15408450650E+02  0.51100000000E-03 0. -1.
         11    1    1    2    0    0  0.87563079089E+01 -0.65693692875E+01  0.51742803802E+01  0.12107960966E+02  0.51100000000E-03 0.  1.
<mgrwt>
<rscale>  0 0.22373419E+02</rscale>
<asrwt>0</asrwt>
<pdfrwt beam="1">  1        4 0.33488170E-02 0.22373419E+02</pdfrwt>
<pdfrwt beam="2">  1       -4 0.88447705E-03 0.22373419E+02</pdfrwt>
<totfact> 0.99752318E+05</totfact>
</mgrwt>
</event>
<event>
 4    1  0.5401488E-001  0.7241858E+02  0.7818608E-02  0.1352056E+00
         -4   -1    0    0    0  501 -0.00000000000E+00  0.00000000000E+00  0.15048528463E+03  0.15049198413E+03  0.14200000000E+01 0. -1.
          4   -1    0    0  501    0  0.00000000000E+00 -0.00000000000E+00 -0.86477655799E+01  0.87635751566E+01  0.14200000000E+01 0.  1.
        -11    1    1    2    0    0  0.33218343746E+02  0.64867759731E+01  0.42621554190E+02  0.54425485809E+02  0.51100000000E-03 0.  1.
         11    1    1    2    0    0 -0.33218343746E+02 -0.64867759731E+01  0.99215964856E+02  0.10483007348E+03  0.51100000000E-03 0. -1.
<mgrwt>
<rscale>  0 0.72418584E+02</rscale>
<asrwt>0</asrwt>
<pdfrwt beam="2">  1        4 0.13398494E-02 0.72418584E+02</pdfrwt>
<pdfrwt beam="1">  1       -4 0.23161003E-01 0.72418584E+02</pdfrwt>
<totfact> 0.42665937E+04</totfact>
</mgrwt>
</event>
<event>
 4    1  0.5401488E-001  0.3492971E+02  0.7818608E-02  0.1549226E+00
          4   -1    0    0  501    0  0.00000000000E+00  0.00000000000E+00  0.33331978916E+02  0.33362212433E+02  0.14200000000E+01 0. -1.
         -4   -1    0    0    0  501 -0.00000000000E+00 -0.00000000000E+00 -0.90613046740E+01  0.91718941553E+01  0.14200000000E+01 0.  1.
        -11    1    1    2    0    0 -0.49974481095E+00  0.17298722132E+02  0.14997752810E+02  0.22900395671E+02  0.51100000000E-03 0.  1.
         11    1    1    2    0    0  0.49974481095E+00 -0.17298722132E+02  0.92729214313E+01  0.19633710918E+02  0.51100000000E-03 0. -1.
<mgrwt>
<rscale>  0 0.34929709E+02</rscale>
<asrwt>0</asrwt>
<pdfrwt beam="1">  1        4 0.51388295E-02 0.34929709E+02</pdfrwt>
<pdfrwt beam="2">  1       -4 0.14048794E-02 0.34929709E+02</pdfrwt>
<totfact> 0.35056918E+05</totfact>
</mgrwt>
</event>
<event>
 4    1  0.5401488E-001  0.2675811E+02  0.7818608E-02  0.1636962E+00
         -4   -1    0    0    0  501 -0.00000000000E+00  0.00000000000E+00  0.29100129958E+02  0.29134755251E+02  0.14200000000E+01 0. -1.
          4   -1    0    0  501    0  0.00000000000E+00 -0.00000000000E+00 -0.60303492453E+01  0.61952814319E+01  0.14200000000E+01 0.  1.
        -11    1    1    2    0    0  0.27967170341E+01 -0.13055382327E+02  0.10403279024E+02  0.16926099627E+02  0.51100000000E-03 0. -1.
         11    1    1    2    0    0 -0.27967170341E+01  0.13055382327E+02  0.12666501688E+02  0.18403937056E+02  0.51100000000E-03 0.  1.
<mgrwt>
<rscale>  0 0.26758115E+02</rscale>
<asrwt>0</asrwt>
<pdfrwt beam="2">  1        4 0.94309661E-03 0.26758115E+02</pdfrwt>
<pdfrwt beam="1">  1       -4 0.44922937E-02 0.26758115E+02</pdfrwt>
<totfact> 0.65780364E+05</totfact>
</mgrwt>
</event>
<event>
 4    1  0.5401488E-001  0.2921851E+02  0.7818608E-02  0.1606891E+00
         -4   -1    0    0    0  501 -0.00000000000E+00  0.00000000000E+00  0.77850693018E+02  0.77863642372E+02  0.14200000000E+01 0. -1.
          4   -1    0    0  501    0  0.00000000000E+00 -0.00000000000E+00 -0.25435765534E+01  0.29131051617E+01  0.14200000000E+01 0.  1.
        -11    1    1    2    0    0  0.58731496850E+01  0.91266506263E+01  0.10617112461E+02  0.15182645229E+02  0.51100000000E-03 0.  1.
         11    1    1    2    0    0 -0.58731496850E+01 -0.91266506263E+01  0.64690004004E+02  0.65594102305E+02  0.51100000000E-03 0. -1.
<mgrwt>
<rscale>  0 0.29218507E+02</rscale>
<asrwt>0</asrwt>
<pdfrwt beam="2">  1        4 0.42074092E-03 0.29218507E+02</pdfrwt>
<pdfrwt beam="1">  1       -4 0.12006449E-01 0.29218507E+02</pdfrwt>
<totfact> 0.46566521E+05</totfact>
</mgrwt>
</event>
<event>
 4    1  0.5401488E-001  0.2203946E+02  0.7818608E-02  0.1707570E+00
         -4   -1    0    0    0  501 -0.00000000000E+00  0.00000000000E+00  0.16219971790E+02  0.16282011082E+02  0.14200000000E+01 0.  1.
          4   -1    0    0  501    0  0.00000000000E+00 -0.00000000000E+00 -0.73422393032E+01  0.74782937884E+01  0.14200000000E+01 0. -1.
        -11    1    1    2    0    0  0.10735273175E+02  0.18511586400E+01  0.62304294491E+01  0.12549546997E+02  0.51100000000E-03 0. -1.
         11    1    1    2    0    0 -0.10735273175E+02 -0.18511586400E+01  0.26473030376E+01  0.11210757873E+02  0.51100000000E-03 0.  1.
<mgrwt>
<rscale>  0 0.22039464E+02</rscale>
<asrwt>0</asrwt>
<pdfrwt beam="2">  1        4 0.11448133E-02 0.22039464E+02</pdfrwt>
<pdfrwt beam="1">  1       -4 0.25106183E-02 0.22039464E+02</pdfrwt>
<totfact> 0.10461695E+06</totfact>
</mgrwt>
</event>
<event>
 4    1  0.5401488E-001  0.1580784E+03  0.7818608E-02  0.1190883E+00
          4   -1    0    0  501    0  0.00000000000E+00  0.00000000000E+00  0.11028651892E+02  0.11119692556E+02  0.14200000000E+01 0.  1.
         -4   -1    0    0    0  501 -0.00000000000E+00 -0.00000000000E+00 -0.56403084848E+03  0.56403263597E+03  0.14200000000E+01 0. -1.
        -11    1    1    2    0    0 -0.77624158503E+02  0.14836269900E+02 -0.27194509276E+03  0.28319561855E+03  0.51100000000E-03 0. -1.
         11    1    1    2    0    0  0.77624158503E+02 -0.14836269900E+02 -0.28105710383E+03  0.29195670998E+03  0.51100000000E-03 0.  1.
<mgrwt>
<rscale>  0 0.15807837E+03</rscale>
<asrwt>0</asrwt>
<pdfrwt beam="1">  1        4 0.17038567E-02 0.15807837E+03</pdfrwt>
<pdfrwt beam="2">  1       -4 0.86781095E-01 0.15807837E+03</pdfrwt>
<totfact> 0.26245381E+03</totfact>
</mgrwt>
</event>
<event>
 4    1  0.5401488E-001  0.3252015E+02  0.7818608E-02  0.1571793E+00
         -4   -1    0    0    0  501 -0.00000000000E+00  0.00000000000E+00  0.13931422248E+02  0.14003604031E+02  0.14200000000E+01 0.  1.
          4   -1    0    0  501    0  0.00000000000E+00 -0.00000000000E+00 -0.18829946177E+02  0.18883412643E+02  0.14200000000E+01 0. -1.
        -11    1    1    2    0    0  0.78801573887E+01 -0.10669192986E+02  0.70622401288E+01  0.15026769291E+02  0.51100000000E-03 0.  1.
         11    1    1    2    0    0 -0.78801573887E+01  0.10669192986E+02 -0.11960764058E+02  0.17860247382E+02  0.51100000000E-03 0. -1.
<mgrwt>
<rscale>  0 0.32520153E+02</rscale>
<asrwt>0</asrwt>
<pdfrwt beam="2">  1        4 0.29065800E-02 0.32520153E+02</pdfrwt>
<pdfrwt beam="1">  1       -4 0.21529610E-02 0.32520153E+02</pdfrwt>
<totfact> 0.42808901E+05</totfact>
</mgrwt>
</event>
<event>
 4    1  0.5401488E-001  0.2573467E+02  0.7818608E-02  0.1650668E+00
         -4   -1    0    0    0  501 -0.00000000000E+00  0.00000000000E+00  0.66936324562E+01  0.68425956668E+01  0.14200000000E+01 0.  1.
          4   -1    0    0  501    0  0.00000000000E+00 -0.00000000000E+00 -0.24293064031E+02  0.24334530199E+02  0.14200000000E+01 0. -1.
        -11    1    1    2    0    0 -0.71765325444E+01  0.84028444944E+01 -0.16786128777E+02  0.20096878727E+02  0.51100000000E-03 0. -1.
         11    1    1    2    0    0  0.71765325444E+01 -0.84028444944E+01 -0.81330279692E+00  0.11080247139E+02  0.51100000000E-03 0.  1.
<mgrwt>
<rscale>  0 0.25734669E+02</rscale>
<asrwt>0</asrwt>
<pdfrwt beam="2">  1        4 0.37520428E-02 0.25734669E+02</pdfrwt>
<pdfrwt beam="1">  1       -4 0.10444380E-02 0.25734669E+02</pdfrwt>
<totfact> 0.72809927E+05</totfact>
</mgrwt>
</event>
<event>
 4    1  0.5401488E-001  0.2682707E+02  0.7818608E-02  0.1636066E+00
          4   -1    0    0  501    0  0.00000000000E+00  0.00000000000E+00  0.64994573465E+02  0.65010083679E+02  0.14200000000E+01 0.  1.
         -4   -1    0    0    0  501 -0.00000000000E+00 -0.00000000000E+00 -0.25692644525E+01  0.29355612456E+01  0.14200000000E+01 0. -1.
        -11    1    1    2    0    0 -0.66181943897E+01  0.93316270203E+01  0.13475766313E+02  0.17676991763E+02  0.51100000000E-03 0. -1.
         11    1    1    2    0    0  0.66181943897E+01 -0.93316270203E+01  0.48949542700E+02  0.50268653161E+02  0.51100000000E-03 0.  1.
<mgrwt>
<rscale>  0 0.26827066E+02</rscale>
<asrwt>0</asrwt>
<pdfrwt beam="1">  1        4 0.10028534E-01 0.26827066E+02</pdfrwt>
<pdfrwt beam="2">  1       -4 0.42464127E-03 0.26827066E+02</pdfrwt>
<totfact> 0.58436180E+05</totfact>
</mgrwt>
</event>
<event>
 4    1  0.5401488E-001  0.4015383E+02  0.7818608E-02  0.1507082E+00
          4   -1    0    0  501    0  0.00000000000E+00  0.00000000000E+00  0.35360384750E+01  0.38105075904E+01  0.14200000000E+01 0. -1.
         -4   -1    0    0    0  501 -0.00000000000E+00 -0.00000000000E+00 -0.10945465704E+03  0.10946386777E+03  0.14200000000E+01 0.  1.
        -11    1    1    2    0    0 -0.68141475693E+01 -0.17720388676E+02 -0.71379837867E+02  0.73861532858E+02  0.51100000000E-03 0. -1.
         11    1    1    2    0    0  0.68141475693E+01  0.17720388676E+02 -0.34538780694E+02  0.39412842501E+02  0.51100000000E-03 0.  1.
<mgrwt>
<rscale>  0 0.40153834E+02</rscale>
<asrwt>0</asrwt>
<pdfrwt beam="1">  1        4 0.56582753E-03 0.40153834E+02</pdfrwt>
<pdfrwt beam="2">  1       -4 0.16860997E-01 0.40153834E+02</pdfrwt>
<totfact> 0.20541076E+05</totfact>
</mgrwt>
</event>
<event>
 4    1  0.5401488E-001  0.4609507E+02  0.7818608E-02  0.1467619E+00
         -4   -1    0    0    0  501 -0.00000000000E+00  0.00000000000E+00  0.14958734767E+02  0.15025982358E+02  0.14200000000E+01 0. -1.
          4   -1    0    0  501    0  0.00000000000E+00 -0.00000000000E+00 -0.35349100306E+02  0.35377610044E+02  0.14200000000E+01 0.  1.
        -11    1    1    2    0    0  0.13323708422E+02 -0.18446351756E+02 -0.14197894107E+02  0.26821060690E+02  0.51100000000E-03 0.  1.
         11    1    1    2    0    0 -0.13323708422E+02  0.18446351756E+02 -0.61924714328E+01  0.23582531712E+02  0.51100000000E-03 0. -1.
<mgrwt>
<rscale>  0 0.46095066E+02</rscale>
<asrwt>0</asrwt>
<pdfrwt beam="2">  1        4 0.54456890E-02 0.46095066E+02</pdfrwt>
<pdfrwt beam="1">  1       -4 0.23087098E-02 0.46095066E+02</pdfrwt>
<totfact> 0.17599359E+05</totfact>
</mgrwt>
</event>
<event>
 4    1  0.5401488E-001  0.4430579E+02  0.7818608E-02  0.1478723E+00
          4   -1    0    0  501    0  0.00000000000E+00  0.00000000000E+00  0.39166857697E+02  0.39192590395E+02  0.14200000000E+01 0. -1.
         -4   -1    0    0    0  501 -0.00000000000E+00 -0.00000000000E+00 -0.12459557338E+02  0.12540214076E+02  0.14200000000E+01 0.  1.
        -11    1    1    2    0    0 -0.16311425483E+02 -0.12905361513E+02  0.22256774070E+02  0.30462681256E+02  0.51100000000E-03 0. -1.
         11    1    1    2    0    0  0.16311425483E+02  0.12905361513E+02  0.44505262892E+01  0.21270123215E+02  0.51100000000E-03 0.  1.
<mgrwt>
<rscale>  0 0.44305792E+02</rscale>
<asrwt>0</asrwt>
<pdfrwt beam="1">  1        4 0.60338541E-02 0.44305792E+02</pdfrwt>
<pdfrwt beam="2">  1       -4 0.19250388E-02 0.44305792E+02</pdfrwt>
<totfact> 0.19307318E+05</totfact>
</mgrwt>
</event>
<event>
 4    1  0.5401488E-001  0.2124060E+02  0.7818608E-02  0.1721726E+00
          4   -1    0    0  501    0  0.00000000000E+00  0.00000000000E+00  0.20020163547E+02  0.20070459597E+02  0.14200000000E+01 0.  1.
         -4   -1    0    0    0  501 -0.00000000000E+00 -0.00000000000E+00 -0.54859799290E+01  0.56667782541E+01  0.14200000000E+01 0. -1.
        -11    1    1    2    0    0 -0.36142604602E+01  0.99863260130E+01  0.73080666630E+01  0.12891758008E+02  0.51100000000E-03 0.  1.
         11    1    1    2    0    0  0.36142604602E+01 -0.99863260130E+01  0.72261169549E+01  0.12845479844E+02  0.51100000000E-03 0. -1.
<mgrwt>
<rscale>  0 0.21240596E+02</rscale>
<asrwt>0</asrwt>
<pdfrwt beam="1">  1        4 0.30978017E-02 0.21240596E+02</pdfrwt>
<pdfrwt beam="2">  1       -4 0.86177339E-03 0.21240596E+02</pdfrwt>
<totfact> 0.11205062E+06</totfact>
</mgrwt>
</event>
<event>
 4    1  0.5401488E-001  0.2531567E+02  0.7818608E-02  0.1656509E+00
         -4   -1    0    0    0  501 -0.00000000000E+00  0.00000000000E+00  0.65241165047E+01  0.66768627489E+01  0.14200000000E+01 0. -1.
          4   -1    0    0  501    0  0.00000000000E+00 -0.00000000000E+00 -0.24100187732E+02  0.24141985186E+02  0.14200000000E+01 0.  1.
        -11    1    1    2    0    0 -0.89309261842E+01  0.58250157610E+01 -0.17092022090E+02  0.20145209617E+02  0.51100000000E-03 0.  1.
         11    1    1    2    0    0  0.89309261842E+01 -0.58250157610E+01 -0.48404913780E+00  0.10673638318E+02  0.51100000000E-03 0. -1.
<mgrwt>
<rscale>  0 0.25315669E+02</rscale>
<asrwt>0</asrwt>
<pdfrwt beam="2">  1        4 0.37226860E-02 0.25315669E+02</pdfrwt>
<pdfrwt beam="1">  1       -4 0.10186751E-02 0.25315669E+02</pdfrwt>
<totfact> 0.75569352E+05</totfact>
</mgrwt>
</event>
<event>
 4    1  0.5401488E-001  0.2387840E+02  0.7818608E-02  0.1677655E+00
          4   -1    0    0  501    0  0.00000000000E+00  0.00000000000E+00  0.53586271353E+01  0.55435805013E+01  0.14200000000E+01 0.  1.
         -4   -1    0    0    0  501 -0.00000000000E+00 -0.00000000000E+00 -0.25944964080E+02  0.25983794202E+02  0.14200000000E+01 0. -1.
        -11    1    1    2    0    0  0.91492217234E+01 -0.73270255965E+01 -0.13289753484E+02  0.17720358635E+02  0.51100000000E-03 0.  1.
         11    1    1    2    0    0 -0.91492217234E+01  0.73270255965E+01 -0.72965834611E+01  0.13807016068E+02  0.51100000000E-03 0. -1.
<mgrwt>
<rscale>  0 0.23878402E+02</rscale>
<asrwt>0</asrwt>
<pdfrwt beam="1">  1        4 0.84161830E-03 0.23878402E+02</pdfrwt>
<pdfrwt beam="2">  1       -4 0.40087470E-02 0.23878402E+02</pdfrwt>
<totfact> 0.85480131E+05</totfact>
</mgrwt>
</event>
<event>
 4    1  0.5401488E-001  0.2526069E+02  0.7818608E-02  0.1657285E+00
          4   -1    0    0  501    0  0.00000000000E+00  0.00000000000E+00  0.11137739862E+02  0.11227896028E+02  0.14200000000E+01 0.  1.
         -4   -1    0    0    0  501 -0.00000000000E+00 -0.00000000000E+00 -0.14139385983E+02  0.14210511461E+02  0.14200000000E+01 0. -1.
        -11    1    1    2    0    0  0.15042145077E+01  0.10748750381E+02  0.50042949074E+01  0.11951621807E+02  0.51100000000E-03 0.  1.
         11    1    1    2    0    0 -0.15042145077E+01 -0.10748750381E+02 -0.80059410287E+01  0.13486785682E+02  0.51100000000E-03 0. -1.
<mgrwt>
<rscale>  0 0.25260695E+02</rscale>
<asrwt>0</asrwt>
<pdfrwt beam="1">  1        4 0.17259047E-02 0.25260695E+02</pdfrwt>
<pdfrwt beam="2">  1       -4 0.21876964E-02 0.25260695E+02</pdfrwt>
<totfact> 0.77604165E+05</totfact>
</mgrwt>
</event>
<event>
 4    1  0.5401488E-001  0.4082170E+02  0.7818608E-02  0.1502250E+00
          4   -1    0    0  501    0  0.00000000000E+00  0.00000000000E+00  0.13712281579E+02  0.13785610835E+02  0.14200000000E+01 0. -1.
         -4   -1    0    0    0  501 -0.00000000000E+00 -0.00000000000E+00 -0.30210651177E+02  0.30244005101E+02  0.14200000000E+01 0.  1.
        -11    1    1    2    0    0  0.14583446034E+02 -0.46746087079E+01  0.63046568276E+01  0.16561327325E+02  0.51100000000E-03 0. -1.
         11    1    1    2    0    0 -0.14583446034E+02  0.46746087079E+01 -0.22803026426E+02  0.27468288611E+02  0.51100000000E-03 0.  1.
<mgrwt>
<rscale>  0 0.40821696E+02</rscale>
<asrwt>0</asrwt>
<pdfrwt beam="1">  1        4 0.21177882E-02 0.40821696E+02</pdfrwt>
<pdfrwt beam="2">  1       -4 0.46559989E-02 0.40821696E+02</pdfrwt>
<totfact> 0.24124401E+05</totfact>
</mgrwt>
</event>
<event>
 4    1  0.5401488E-001  0.2498561E+02  0.7818608E-02  0.1661209E+00
         -4   -1    0    0    0  501 -0.00000000000E+00  0.00000000000E+00  0.10527127185E+02  0.10622467076E+02  0.14200000000E+01 0.  1.
          4   -1    0    0  501    0  0.00000000000E+00 -0.00000000000E+00 -0.14628813177E+02  0.14697570376E+02  0.14200000000E+01 0. -1.
        -11    1    1    2    0    0  0.24337735799E+01 -0.12198348782E+02 -0.87463953059E+00  0.12469481201E+02  0.51100000000E-03 0. -1.
         11    1    1    2    0    0 -0.24337735799E+01  0.12198348782E+02 -0.32270464612E+01  0.12850556251E+02  0.51100000000E-03 0.  1.
<mgrwt>
<rscale>  0 0.24985605E+02</rscale>
<asrwt>0</asrwt>
<pdfrwt beam="2">  1        4 0.22632095E-02 0.24985605E+02</pdfrwt>
<pdfrwt beam="1">  1       -4 0.16321809E-02 0.24985605E+02</pdfrwt>
<totfact> 0.79515057E+05</totfact>
</mgrwt>
</event>
<event>
 4    1  0.5401488E-001  0.2582164E+02  0.7818608E-02  0.1649473E+00
          4   -1    0    0  501    0  0.00000000000E+00  0.00000000000E+00  0.42082601598E+02  0.42106552427E+02  0.14200000000E+01 0. -1.
         -4   -1    0    0    0  501 -0.00000000000E+00 -0.00000000000E+00 -0.38078114146E+01  0.40639669990E+01  0.14200000000E+01 0.  1.
        -11    1    1    2    0    0 -0.55251213543E+01  0.11234435265E+02  0.24777517783E+02  0.27760851742E+02  0.51100000000E-03 0. -1.
         11    1    1    2    0    0  0.55251213543E+01 -0.11234435265E+02  0.13497272400E+02  0.18409667683E+02  0.51100000000E-03 0.  1.
<mgrwt>
<rscale>  0 0.25821644E+02</rscale>
<asrwt>0</asrwt>
<pdfrwt beam="1">  1        4 0.64957931E-02 0.25821644E+02</pdfrwt>
<pdfrwt beam="2">  1       -4 0.60736378E-03 0.25821644E+02</pdfrwt>
<totfact> 0.68325032E+05</totfact>
</mgrwt>
</event>
<event>
 4    1  0.5401488E-001  0.6297965E+02  0.7818608E-02  0.1385737E+00
         -4   -1    0    0    0  501 -0.00000000000E+00  0.00000000000E+00  0.75948166204E+02  0.75961439888E+02  0.14200000000E+01 0. -1.
          4   -1    0    0  501    0  0.00000000000E+00 -0.00000000000E+00 -0.13003320702E+02  0.13080624958E+02  0.14200000000E+01 0.  1.
        -11    1    1    2    0    0  0.84257932764E+01  0.29620325467E+02  0.22174318796E+02  0.37948097283E+02  0.51100000000E-03 0.  1.
         11    1    1    2    0    0 -0.84257932764E+01 -0.29620325467E+02  0.40770526706E+02  0.51093967562E+02  0.51100000000E-03 0. -1.
<mgrwt>
<rscale>  0 0.62979645E+02</rscale>
<asrwt>0</asrwt>
<pdfrwt beam="2">  1        4 0.20074784E-02 0.62979645E+02</pdfrwt>
<pdfrwt beam="1">  1       -4 0.11691301E-01 0.62979645E+02</pdfrwt>
<totfact> 0.72126813E+04</totfact>
</mgrwt>
</event>
<event>
 4    1  0.5401488E-001  0.4084282E+02  0.7818608E-02  0.1502099E+00
         -4   -1    0    0    0  501 -0.00000000000E+00  0.00000000000E+00  0.84920906374E+01  0.86099943899E+01  0.14200000000E+01 0.  1.
          4   -1    0    0  501    0  0.00000000000E+00 -0.00000000000E+00 -0.48641615813E+02  0.48662338507E+02  0.14200000000E+01 0. -1.
        -11    1    1    2    0    0  0.88935900090E+01  0.16626071445E+02 -0.31072622621E+02  0.36345977380E+02  0.51100000000E-03 0. -1.
         11    1    1    2    0    0 -0.88935900090E+01 -0.16626071445E+02 -0.90769025555E+01  0.20926355516E+02  0.51100000000E-03 0.  1.
<mgrwt>
<rscale>  0 0.40842818E+02</rscale>
<asrwt>0</asrwt>
<pdfrwt beam="2">  1        4 0.74939889E-02 0.40842818E+02</pdfrwt>
<pdfrwt beam="1">  1       -4 0.13171391E-02 0.40842818E+02</pdfrwt>
<totfact> 0.23089822E+05</totfact>
</mgrwt>
</event>
<event>
 4    1  0.5401488E-001  0.3067141E+02  0.7818608E-02  0.1590784E+00
          4   -1    0    0  501    0  0.00000000000E+00  0.00000000000E+00  0.77145062152E+02  0.77158129931E+02  0.14200000000E+01 0. -1.
         -4   -1    0    0    0  501 -0.00000000000E+00 -0.00000000000E+00 -0.28691702546E+01  0.32013337767E+01  0.14200000000E+01 0.  1.
        -11    1    1    2    0    0  0.12931272871E+02 -0.44845735144E+01  0.19013481702E+02  0.23427370838E+02  0.51100000000E-03 0.  1.
         11    1    1    2    0    0 -0.12931272871E+02  0.44845735144E+01  0.55262410195E+02  0.56932092870E+02  0.51100000000E-03 0. -1.
<mgrwt>
<rscale>  0 0.30671408E+02</rscale>
<asrwt>0</asrwt>
<pdfrwt beam="1">  1        4 0.11895026E-01 0.30671408E+02</pdfrwt>
<pdfrwt beam="2">  1       -4 0.46796711E-03 0.30671408E+02</pdfrwt>
<totfact> 0.41831712E+05</totfact>
</mgrwt>
</event>
<event>
 4    1  0.5401488E-001  0.2934155E+02  0.7818608E-02  0.1605483E+00
          4   -1    0    0  501    0  0.00000000000E+00  0.00000000000E+00  0.13607020723E+02  0.13680914185E+02  0.14200000000E+01 0. -1.
         -4   -1    0    0    0  501 -0.00000000000E+00 -0.00000000000E+00 -0.15668765962E+02  0.15732978954E+02  0.14200000000E+01 0.  1.
        -11    1    1    2    0    0 -0.65844470825E+01  0.80015549392E+01  0.93799039222E+01  0.13977210833E+02  0.51100000000E-03 0. -1.
         11    1    1    2    0    0  0.65844470825E+01 -0.80015549392E+01 -0.11441649162E+02  0.15436682306E+02  0.51100000000E-03 0.  1.
<mgrwt>
<rscale>  0 0.29341546E+02</rscale>
<asrwt>0</asrwt>
<pdfrwt beam="1">  1        4 0.21040114E-02 0.29341546E+02</pdfrwt>
<pdfrwt beam="2">  1       -4 0.24212030E-02 0.29341546E+02</pdfrwt>
<totfact> 0.54833571E+05</totfact>
</mgrwt>
</event>
<event>
 4    1  0.5401488E-001  0.3344045E+02  0.7818608E-02  0.1562902E+00
          4   -1    0    0  501    0  0.00000000000E+00  0.00000000000E+00  0.12914845198E+02  0.12992675879E+02  0.14200000000E+01 0. -1.
         -4   -1    0    0    0  501 -0.00000000000E+00 -0.00000000000E+00 -0.21480491440E+02  0.21527375885E+02  0.14200000000E+01 0.  1.
        -11    1    1    2    0    0 -0.11838928415E+02 -0.10946373275E+02  0.28526596978E+00  0.16126521349E+02  0.51100000000E-03 0. -1.
         11    1    1    2    0    0  0.11838928415E+02  0.10946373275E+02 -0.88509122116E+01  0.18393530415E+02  0.51100000000E-03 0.  1.
<mgrwt>
<rscale>  0 0.33440450E+02</rscale>
<asrwt>0</asrwt>
<pdfrwt beam="1">  1        4 0.19964927E-02 0.33440450E+02</pdfrwt>
<pdfrwt beam="2">  1       -4 0.33142845E-02 0.33440450E+02</pdfrwt>
<totfact> 0.39900611E+05</totfact>
</mgrwt>
</event>
<event>
 4    1  0.5401488E-001  0.3116712E+02  0.7818608E-02  0.1585535E+00
         -4   -1    0    0    0  501 -0.00000000000E+00  0.00000000000E+00  0.41717879673E+02  0.41742039773E+02  0.14200000000E+01 0. -1.
          4   -1    0    0  501    0  0.00000000000E+00 -0.00000000000E+00 -0.57083286691E+01  0.58822968469E+01  0.14200000000E+01 0.  1.
        -11    1    1    2    0    0  0.24288434223E+01 -0.13245256559E+02  0.29988993760E+02  0.32873634552E+02  0.51100000000E-03 0. -1.
         11    1    1    2    0    0 -0.24288434223E+01  0.13245256559E+02  0.60205572440E+01  0.14750702067E+02  0.51100000000E-03 0.  1.
<mgrwt>
<rscale>  0 0.31167125E+02</rscale>
<asrwt>0</asrwt>
<pdfrwt beam="2">  1        4 0.89344502E-03 0.31167125E+02</pdfrwt>
<pdfrwt beam="1">  1       -4 0.64333762E-02 0.31167125E+02</pdfrwt>
<totfact> 0.44759051E+05</totfact>
</mgrwt>
</event>
<event>
 4    1  0.5401488E-001  0.3808724E+02  0.7818608E-02  0.1522778E+00
         -4   -1    0    0    0  501 -0.00000000000E+00  0.00000000000E+00  0.69336406887E+01  0.70775541821E+01  0.14200000000E+01 0.  1.
          4   -1    0    0  501    0  0.00000000000E+00 -0.00000000000E+00 -0.51613313136E+02  0.51632843161E+02  0.14200000000E+01 0. -1.
        -11    1    1    2    0    0 -0.41508277194E+01 -0.91029283947E+01 -0.47317706088E+02  0.48363808636E+02  0.51100000000E-03 0. -1.
         11    1    1    2    0    0  0.41508277194E+01  0.91029283947E+01  0.26380336407E+01  0.10346588707E+02  0.51100000000E-03 0.  1.
<mgrwt>
<rscale>  0 0.38087237E+02</rscale>
<asrwt>0</asrwt>
<pdfrwt beam="2">  1        4 0.79530820E-02 0.38087237E+02</pdfrwt>
<pdfrwt beam="1">  1       -4 0.10792866E-02 0.38087237E+02</pdfrwt>
<totfact> 0.27134948E+05</totfact>
</mgrwt>
</event>
<event>
 4    1  0.5401488E-001  0.2882535E+02  0.7818608E-02  0.1611448E+00
          4   -1    0    0  501    0  0.00000000000E+00  0.00000000000E+00  0.18163048197E+01  0.23055071455E+01  0.14200000000E+01 0. -1.
         -4   -1    0    0    0  501 -0.00000000000E+00 -0.00000000000E+00 -0.10029829181E+03  0.10030834332E+03  0.14200000000E+01 0.  1.
        -11    1    1    2    0    0 -0.15263990030E+01  0.13826142960E+02 -0.35810873644E+02  0.38417584444E+02  0.51100000000E-03 0. -1.
         11    1    1    2    0    0  0.15263990030E+01 -0.13826142960E+02 -0.62671113347E+02  0.64196266024E+02  0.51100000000E-03 0.  1.
<mgrwt>
<rscale>  0 0.28825346E+02</rscale>
<asrwt>0</asrwt>
<pdfrwt beam="1">  1        4 0.31783573E-03 0.28825346E+02</pdfrwt>
<pdfrwt beam="2">  1       -4 0.15468907E-01 0.28825346E+02</pdfrwt>
<totfact> 0.45075291E+05</totfact>
</mgrwt>
</event>
<event>
 4    1  0.5401488E-001  0.2518713E+02  0.7818608E-02  0.1658328E+00
          4   -1    0    0  501    0  0.00000000000E+00  0.00000000000E+00  0.83187529564E+02  0.83199648286E+02  0.14200000000E+01 0.  1.
         -4   -1    0    0    0  501 -0.00000000000E+00 -0.00000000000E+00 -0.16281105623E+01  0.21603573785E+01  0.14200000000E+01 0. -1.
        -11    1    1    2    0    0 -0.62342099672E+01 -0.10413112803E+02  0.29387498370E+02  0.31795020882E+02  0.51100000000E-03 0.  1.
         11    1    1    2    0    0  0.62342099672E+01  0.10413112803E+02  0.52171920631E+02  0.53564984783E+02  0.51100000000E-03 0. -1.
<mgrwt>
<rscale>  0 0.25187134E+02</rscale>
<asrwt>0</asrwt>
<pdfrwt beam="1">  1        4 0.12839955E-01 0.25187134E+02</pdfrwt>
<pdfrwt beam="2">  1       -4 0.29235283E-03 0.25187134E+02</pdfrwt>
<totfact> 0.63484311E+05</totfact>
</mgrwt>
</event>
<event>
 4    1  0.5401488E-001  0.2482095E+02  0.7818608E-02  0.1663587E+00
         -4   -1    0    0    0  501 -0.00000000000E+00  0.00000000000E+00  0.11194841726E+02  0.11284541696E+02  0.14200000000E+01 0. -1.
          4   -1    0    0  501    0  0.00000000000E+00 -0.00000000000E+00 -0.13576336934E+02  0.13650396498E+02  0.14200000000E+01 0.  1.
        -11    1    1    2    0    0 -0.57435989129E+01 -0.95884726150E+01  0.42277381017E+01  0.11949958380E+02  0.51100000000E-03 0. -1.
         11    1    1    2    0    0  0.57435989129E+01  0.95884726150E+01 -0.66092333095E+01  0.12984979814E+02  0.51100000000E-03 0.  1.
<mgrwt>
<rscale>  0 0.24820951E+02</rscale>
<asrwt>0</asrwt>
<pdfrwt beam="2">  1        4 0.21012641E-02 0.24820951E+02</pdfrwt>
<pdfrwt beam="1">  1       -4 0.17348802E-02 0.24820951E+02</pdfrwt>
<totfact> 0.80795652E+05</totfact>
</mgrwt>
</event>
<event>
 4    1  0.5401488E-001  0.2454848E+02  0.7818608E-02  0.1667573E+00
         -4   -1    0    0    0  501 -0.00000000000E+00  0.00000000000E+00  0.55266869143E+01  0.57061956020E+01  0.14200000000E+01 0. -1.
          4   -1    0    0  501    0  0.00000000000E+00 -0.00000000000E+00 -0.26625539282E+02  0.26663378294E+02  0.14200000000E+01 0.  1.
        -11    1    1    2    0    0 -0.19509619834E+01 -0.12113709246E+02 -0.10114626351E+02  0.15901379527E+02  0.51100000000E-03 0.  1.
         11    1    1    2    0    0  0.19509619834E+01  0.12113709246E+02 -0.10984226017E+02  0.16468194370E+02  0.51100000000E-03 0. -1.
<mgrwt>
<rscale>  0 0.24548477E+02</rscale>
<asrwt>0</asrwt>
<pdfrwt beam="2">  1        4 0.41129558E-02 0.24548477E+02</pdfrwt>
<pdfrwt beam="1">  1       -4 0.86697859E-03 0.24548477E+02</pdfrwt>
<totfact> 0.80288077E+05</totfact>
</mgrwt>
</event>
<event>
 4    1  0.5401488E-001  0.3125767E+02  0.7818608E-02  0.1584589E+00
          4   -1    0    0  501    0  0.00000000000E+00  0.00000000000E+00  0.16120479707E+02  0.16182900419E+02  0.14200000000E+01 0. -1.
         -4   -1    0    0    0  501 -0.00000000000E+00 -0.00000000000E+00 -0.15026947321E+02  0.15093891009E+02  0.14200000000E+01 0.  1.
        -11    1    1    2    0    0 -0.13793433341E+02  0.44180527885E+01  0.64225365014E+01  0.15843830633E+02  0.51100000000E-03 0.  1.
         11    1    1    2    0    0  0.13793433341E+02 -0.44180527885E+01 -0.53290041151E+01  0.15432960795E+02  0.51100000000E-03 0. -1.
<mgrwt>
<rscale>  0 0.31257669E+02</rscale>
<asrwt>0</asrwt>
<pdfrwt beam="1">  1        4 0.24900249E-02 0.31257669E+02</pdfrwt>
<pdfrwt beam="2">  1       -4 0.23217892E-02 0.31257669E+02</pdfrwt>
<totfact> 0.47159182E+05</totfact>
</mgrwt>
</event>
<event>
 4    1  0.5401488E-001  0.3498508E+02  0.7818608E-02  0.1548733E+00
         -4   -1    0    0    0  501 -0.00000000000E+00  0.00000000000E+00  0.24883183052E+02  0.24923667443E+02  0.14200000000E+01 0. -1.
          4   -1    0    0  501    0  0.00000000000E+00 -0.00000000000E+00 -0.12205340572E+02  0.12287666112E+02  0.14200000000E+01 0.  1.
        -11    1    1    2    0    0 -0.15331015741E+01  0.14798134712E+02  0.16125151312E+02  0.21939819883E+02  0.51100000000E-03 0. -1.
         11    1    1    2    0    0  0.15331015741E+01 -0.14798134712E+02 -0.34473088325E+01  0.15271513672E+02  0.51100000000E-03 0.  1.
<mgrwt>
<rscale>  0 0.34985078E+02</rscale>
<asrwt>0</asrwt>
<pdfrwt beam="2">  1        4 0.18871916E-02 0.34985078E+02</pdfrwt>
<pdfrwt beam="1">  1       -4 0.38376289E-02 0.34985078E+02</pdfrwt>
<totfact> 0.35586665E+05</totfact>
</mgrwt>
</event>
<event>
 4    1  0.5401488E-001  0.2282996E+02  0.7818608E-02  0.1694281E+00
          4   -1    0    0  501    0  0.00000000000E+00  0.00000000000E+00  0.13777803638E+02  0.13850786009E+02  0.14200000000E+01 0. -1.
         -4   -1    0    0    0  501 -0.00000000000E+00 -0.00000000000E+00 -0.93053991646E+01  0.94131213534E+01  0.14200000000E+01 0.  1.
        -11    1    1    2    0    0 -0.93346830410E+01 -0.57520076357E+01 -0.99902287020E+00  0.11009993019E+02  0.51100000000E-03 0.  1.
         11    1    1    2    0    0  0.93346830410E+01  0.57520076357E+01  0.54714273432E+01  0.12253914344E+02  0.51100000000E-03 0. -1.
<mgrwt>
<rscale>  0 0.22829958E+02</rscale>
<asrwt>0</asrwt>
<pdfrwt beam="1">  1        4 0.21335624E-02 0.22829958E+02</pdfrwt>
<pdfrwt beam="2">  1       -4 0.14455002E-02 0.22829958E+02</pdfrwt>
<totfact> 0.97329649E+05</totfact>
</mgrwt>
</event>
<event>
 4    1  0.5401488E-001  0.2044905E+02  0.7818608E-02  0.1736543E+00
          4   -1    0    0  501    0  0.00000000000E+00  0.00000000000E+00  0.24708143924E+01  0.28497936350E+01  0.14200000000E+01 0. -1.
         -4   -1    0    0    0  501 -0.00000000000E+00 -0.00000000000E+00 -0.38903731120E+02  0.38929637746E+02  0.14200000000E+01 0.  1.
        -11    1    1    2    0    0 -0.11843945062E+01 -0.10096629384E+02 -0.15981947624E+02  0.18941155334E+02  0.51100000000E-03 0. -1.
         11    1    1    2    0    0  0.11843945062E+01  0.10096629384E+02 -0.20450969104E+02  0.22838276047E+02  0.51100000000E-03 0.  1.
<mgrwt>
<rscale>  0 0.20449046E+02</rscale>
<asrwt>0</asrwt>
<pdfrwt beam="1">  1        4 0.41127039E-03 0.20449046E+02</pdfrwt>
<pdfrwt beam="2">  1       -4 0.60163340E-02 0.20449046E+02</pdfrwt>
<totfact> 0.11356023E+06</totfact>
</mgrwt>
</event>
<event>
 4    1  0.5401488E-001  0.2139914E+02  0.7818608E-02  0.1718856E+00
         -4   -1    0    0    0  501 -0.00000000000E+00  0.00000000000E+00  0.26931051479E+02  0.26968461836E+02  0.14200000000E+01 0.  1.
          4   -1    0    0  501    0  0.00000000000E+00 -0.00000000000E+00 -0.40907148348E+01  0.43301671861E+01  0.14200000000E+01 0. -1.
        -11    1    1    2    0    0 -0.25364801573E+01  0.10233464060E+02  0.87538465183E+01  0.13703552364E+02  0.51100000000E-03 0. -1.
         11    1    1    2    0    0  0.25364801573E+01 -0.10233464060E+02  0.14086490126E+02  0.17595076658E+02  0.51100000000E-03 0.  1.
<mgrwt>
<rscale>  0 0.21399140E+02</rscale>
<asrwt>0</asrwt>
<pdfrwt beam="2">  1        4 0.65063785E-03 0.21399140E+02</pdfrwt>
<pdfrwt beam="1">  1       -4 0.41645360E-02 0.21399140E+02</pdfrwt>
<totfact> 0.10778949E+06</totfact>
</mgrwt>
</event>
<event>
 4    1  0.5401488E-001  0.6592035E+02  0.7818608E-02  0.1374543E+00
         -4   -1    0    0    0  501 -0.00000000000E+00  0.00000000000E+00  0.59383003861E+02  0.59399979356E+02  0.14200000000E+01 0. -1.
          4   -1    0    0  501    0  0.00000000000E+00 -0.00000000000E+00 -0.18247167358E+02  0.18302336370E+02  0.14200000000E+01 0.  1.
        -11    1    1    2    0    0  0.31794790007E+02 -0.53713156068E+00  0.10347842387E+02  0.33440619375E+02  0.51100000000E-03 0.  1.
         11    1    1    2    0    0 -0.31794790007E+02  0.53713156068E+00  0.30787994116E+02  0.44261696351E+02  0.51100000000E-03 0. -1.
<mgrwt>
<rscale>  0 0.65920352E+02</rscale>
<asrwt>0</asrwt>
<pdfrwt beam="2">  1        4 0.28128061E-02 0.65920352E+02</pdfrwt>
<pdfrwt beam="1">  1       -4 0.91413962E-02 0.65920352E+02</pdfrwt>
<totfact> 0.66041152E+04</totfact>
</mgrwt>
</event>
<event>
 4    1  0.5401488E-001  0.4422014E+02  0.7818608E-02  0.1479270E+00
         -4   -1    0    0    0  501 -0.00000000000E+00  0.00000000000E+00  0.38941533264E+02  0.38967414759E+02  0.14200000000E+01 0. -1.
          4   -1    0    0  501    0  0.00000000000E+00 -0.00000000000E+00 -0.12483247976E+02  0.12563752625E+02  0.14200000000E+01 0.  1.
        -11    1    1    2    0    0 -0.40812923222E+01 -0.95897952155E+01  0.35952650336E+02  0.37432795591E+02  0.51100000000E-03 0. -1.
         11    1    1    2    0    0  0.40812923222E+01  0.95897952155E+01 -0.94943650478E+01  0.14098371793E+02  0.51100000000E-03 0.  1.
<mgrwt>
<rscale>  0 0.44220135E+02</rscale>
<asrwt>0</asrwt>
<pdfrwt beam="2">  1        4 0.19286833E-02 0.44220135E+02</pdfrwt>
<pdfrwt beam="1">  1       -4 0.59991886E-02 0.44220135E+02</pdfrwt>
<totfact> 0.19410881E+05</totfact>
</mgrwt>
</event>
<event>
 4    1  0.5401488E-001  0.2626946E+02  0.7818608E-02  0.1643410E+00
          4   -1    0    0  501    0  0.00000000000E+00  0.00000000000E+00  0.41471567299E+02  0.41495870810E+02  0.14200000000E+01 0.  1.
         -4   -1    0    0    0  501 -0.00000000000E+00 -0.00000000000E+00 -0.40125017304E+01  0.42563564391E+01  0.14200000000E+01 0. -1.
        -11    1    1    2    0    0  0.95134640820E+00  0.12304178456E+02  0.26561793639E+02  0.29288679538E+02  0.51100000000E-03 0.  1.
         11    1    1    2    0    0 -0.95134640820E+00 -0.12304178456E+02  0.10897271930E+02  0.16463547711E+02  0.51100000000E-03 0. -1.
<mgrwt>
<rscale>  0 0.26269463E+02</rscale>
<asrwt>0</asrwt>
<pdfrwt beam="1">  1        4 0.64008684E-02 0.26269463E+02</pdfrwt>
<pdfrwt beam="2">  1       -4 0.63793554E-03 0.26269463E+02</pdfrwt>
<totfact> 0.65911576E+05</totfact>
</mgrwt>
</event>
<event>
 4    1  0.5401488E-001  0.1240992E+03  0.7818608E-02  0.1236484E+00
          4   -1    0    0  501    0  0.00000000000E+00  0.00000000000E+00  0.11472985604E+03  0.11473864330E+03  0.14200000000E+01 0. -1.
         -4   -1    0    0    0  501 -0.00000000000E+00 -0.00000000000E+00 -0.33533308762E+02  0.33563360924E+02  0.14200000000E+01 0.  1.
        -11    1    1    2    0    0 -0.29076110062E+02  0.54649341416E+02  0.35502827555E+02  0.71361204154E+02  0.51100000000E-03 0.  1.
         11    1    1    2    0    0  0.29076110062E+02 -0.54649341416E+02  0.45693719723E+02  0.76940800073E+02  0.51100000000E-03 0. -1.
<mgrwt>
<rscale>  0 0.12409917E+03</rscale>
<asrwt>0</asrwt>
<pdfrwt beam="1">  1        4 0.17653735E-01 0.12409917E+03</pdfrwt>
<pdfrwt beam="2">  1       -4 0.51619582E-02 0.12409917E+03</pdfrwt>
<totfact> 0.10169097E+04</totfact>
</mgrwt>
</event>
<event>
 4    1  0.5401488E-001  0.5799827E+02  0.7818608E-02  0.1406429E+00
         -4   -1    0    0    0  501 -0.00000000000E+00  0.00000000000E+00  0.37073506354E+01  0.39699935433E+01  0.14200000000E+01 0.  1.
          4   -1    0    0  501    0  0.00000000000E+00 -0.00000000000E+00 -0.21880805682E+03  0.21881266447E+03  0.14200000000E+01 0. -1.
        -11    1    1    2    0    0 -0.38902872402E+01 -0.26237710289E+02 -0.15257564073E+03  0.15486406272E+03  0.51100000000E-03 0. -1.
         11    1    1    2    0    0  0.38902872402E+01  0.26237710289E+02 -0.62525065456E+02  0.67918595293E+02  0.51100000000E-03 0.  1.
<mgrwt>
<rscale>  0 0.57998266E+02</rscale>
<asrwt>0</asrwt>
<pdfrwt beam="2">  1        4 0.33683326E-01 0.57998266E+02</pdfrwt>
<pdfrwt beam="1">  1       -4 0.59091954E-03 0.57998266E+02</pdfrwt>
<totfact> 0.65874395E+04</totfact>
</mgrwt>
</event>
<event>
 4    1  0.5401488E-001  0.2066555E+02  0.7818608E-02  0.1732408E+00
          4   -1    0    0  501    0  0.00000000000E+00  0.00000000000E+00  0.51516145733E+01  0.53437377098E+01  0.14200000000E+01 0. -1.
         -4   -1    0    0    0  501 -0.00000000000E+00 -0.00000000000E+00 -0.20127845659E+02  0.20177873299E+02  0.14200000000E+01 0.  1.
        -11    1    1    2    0    0 -0.41246894007E+01 -0.94692373671E+01 -0.71243432762E+01  0.12547341804E+02  0.51100000000E-03 0.  1.
         11    1    1    2    0    0  0.41246894007E+01  0.94692373671E+01 -0.78518878096E+01  0.12974269205E+02  0.51100000000E-03 0. -1.
<mgrwt>
<rscale>  0 0.20665554E+02</rscale>
<asrwt>0</asrwt>
<pdfrwt beam="1">  1        4 0.81118308E-03 0.20665554E+02</pdfrwt>
<pdfrwt beam="2">  1       -4 0.31152186E-02 0.20665554E+02</pdfrwt>
<totfact> 0.11871792E+06</totfact>
</mgrwt>
</event>
<event>
 4    1  0.5401488E-001  0.2471007E+02  0.7818608E-02  0.1665202E+00
         -4   -1    0    0    0  501 -0.00000000000E+00  0.00000000000E+00  0.59689616540E+01  0.61355442486E+01  0.14200000000E+01 0.  1.
          4   -1    0    0  501    0  0.00000000000E+00 -0.00000000000E+00 -0.25034513811E+02  0.25074753873E+02  0.14200000000E+01 0. -1.
        -11    1    1    2    0    0  0.99562644755E+01 -0.13253968651E+01 -0.44550225773E+00  0.10053971935E+02  0.51100000000E-03 0.  1.
         11    1    1    2    0    0 -0.99562644755E+01  0.13253968651E+01 -0.18620049900E+02  0.21156326186E+02  0.51100000000E-03 0. -1.
<mgrwt>
<rscale>  0 0.24710067E+02</rscale>
<asrwt>0</asrwt>
<pdfrwt beam="2">  1        4 0.38673730E-02 0.24710067E+02</pdfrwt>
<pdfrwt beam="1">  1       -4 0.93421124E-03 0.24710067E+02</pdfrwt>
<totfact> 0.79521966E+05</totfact>
</mgrwt>
</event>
<event>
 4    1  0.5401488E-001  0.3592283E+02  0.7818608E-02  0.1540555E+00
         -4   -1    0    0    0  501 -0.00000000000E+00  0.00000000000E+00  0.49482934658E+02  0.49503305166E+02  0.14200000000E+01 0.  1.
          4   -1    0    0  501    0  0.00000000000E+00 -0.00000000000E+00 -0.64203622662E+01  0.65755191148E+01  0.14200000000E+01 0. -1.
        -11    1    1    2    0    0 -0.88145474751E+01 -0.63827546277E+01  0.43837781194E+02  0.45168427736E+02  0.51100000000E-03 0.  1.
         11    1    1    2    0    0  0.88145474751E+01  0.63827546277E+01 -0.77520880212E+00  0.10910396545E+02  0.51100000000E-03 0. -1.
<mgrwt>
<rscale>  0 0.35922825E+02</rscale>
<asrwt>0</asrwt>
<pdfrwt beam="2">  1        4 0.10012501E-02 0.35922825E+02</pdfrwt>
<pdfrwt beam="1">  1       -4 0.76262613E-02 0.35922825E+02</pdfrwt>
<totfact> 0.31395230E+05</totfact>
</mgrwt>
</event>
<event>
 4    1  0.5401488E-001  0.2633476E+02  0.7818608E-02  0.1642539E+00
          4   -1    0    0  501    0  0.00000000000E+00  0.00000000000E+00  0.11801875375E+01  0.18464134488E+01  0.14200000000E+01 0. -1.
         -4   -1    0    0    0  501 -0.00000000000E+00 -0.00000000000E+00 -0.11389907133E+03  0.11390792268E+03  0.14200000000E+01 0.  1.
        -11    1    1    2    0    0  0.12401837360E+02 -0.39217250832E+01 -0.47357368418E+02  0.49111158012E+02  0.51100000000E-03 0. -1.
         11    1    1    2    0    0 -0.12401837360E+02  0.39217250832E+01 -0.65361515373E+02  0.66643178118E+02  0.51100000000E-03 0.  1.
<mgrwt>
<rscale>  0 0.26334760E+02</rscale>
<asrwt>0</asrwt>
<pdfrwt beam="1">  1        4 0.23349642E-03 0.26334760E+02</pdfrwt>
<pdfrwt beam="2">  1       -4 0.17574856E-01 0.26334760E+02</pdfrwt>
<totfact> 0.52955978E+05</totfact>
</mgrwt>
</event>
<event>
 4    1  0.5401488E-001  0.5095566E+02  0.7818608E-02  0.1440254E+00
          4   -1    0    0  501    0  0.00000000000E+00  0.00000000000E+00  0.46237198378E+01  0.48368569483E+01  0.14200000000E+01 0. -1.
         -4   -1    0    0    0  501 -0.00000000000E+00 -0.00000000000E+00 -0.13700935889E+03  0.13701671732E+03  0.14200000000E+01 0.  1.
        -11    1    1    2    0    0 -0.12675157978E+02 -0.20105063537E+02 -0.40640874105E+02  0.47080291608E+02  0.51100000000E-03 0.  1.
         11    1    1    2    0    0  0.12675157978E+02  0.20105063537E+02 -0.91744764951E+02  0.94773282658E+02  0.51100000000E-03 0. -1.
<mgrwt>
<rscale>  0 0.50955658E+02</rscale>
<asrwt>0</asrwt>
<pdfrwt beam="1">  1        4 0.72830281E-03 0.50955658E+02</pdfrwt>
<pdfrwt beam="2">  1       -4 0.21095321E-01 0.50955658E+02</pdfrwt>
<totfact> 0.10789645E+05</totfact>
</mgrwt>
</event>
<event>
 4    1  0.5401488E-001  0.2202417E+02  0.7818608E-02  0.1707834E+00
          4   -1    0    0  501    0  0.00000000000E+00  0.00000000000E+00  0.16579157646E+01  0.21829073921E+01  0.14200000000E+01 0.  1.
         -4   -1    0    0    0  501 -0.00000000000E+00 -0.00000000000E+00 -0.62611725023E+02  0.62627825369E+02  0.14200000000E+01 0. -1.
        -11    1    1    2    0    0  0.32931426829E+01 -0.10004081658E+02 -0.21014543696E+02  0.23506115918E+02  0.51100000000E-03 0.  1.
         11    1    1    2    0    0 -0.32931426829E+01  0.10004081658E+02 -0.39939265563E+02  0.41304616843E+02  0.51100000000E-03 0. -1.
<mgrwt>
<rscale>  0 0.22024173E+02</rscale>
<asrwt>0</asrwt>
<pdfrwt beam="1">  1        4 0.29668647E-03 0.22024173E+02</pdfrwt>
<pdfrwt beam="2">  1       -4 0.96741940E-02 0.22024173E+02</pdfrwt>
<totfact> 0.89812432E+05</totfact>
</mgrwt>
</event>
<event>
 4    1  0.5401488E-001  0.8410974E+02  0.7818608E-02  0.1317777E+00
         -4   -1    0    0    0  501 -0.00000000000E+00  0.00000000000E+00  0.22206956687E+02  0.22252310561E+02  0.14200000000E+01 0.  1.
          4   -1    0    0  501    0  0.00000000000E+00 -0.00000000000E+00 -0.79509307476E+02  0.79521986742E+02  0.14200000000E+01 0. -1.
        -11    1    1    2    0    0 -0.36613946709E+02 -0.15092737048E+02 -0.45773688486E+02  0.60527699140E+02  0.51100000000E-03 0. -1.
         11    1    1    2    0    0  0.36613946709E+02  0.15092737048E+02 -0.11528662303E+02  0.41246598163E+02  0.51100000000E-03 0.  1.
<mgrwt>
<rscale>  0 0.84109739E+02</rscale>
<asrwt>0</asrwt>
<pdfrwt beam="2">  1        4 0.12236665E-01 0.84109739E+02</pdfrwt>
<pdfrwt beam="1">  1       -4 0.34209190E-02 0.84109739E+02</pdfrwt>
<totfact> 0.32734705E+04</totfact>
</mgrwt>
</event>
<event>
 4    1  0.5401488E-001  0.3906256E+02  0.7818608E-02  0.1515226E+00
          4   -1    0    0  501    0  0.00000000000E+00  0.00000000000E+00  0.10544777600E+02  0.10639959334E+02  0.14200000000E+01 0. -1.
         -4   -1    0    0    0  501 -0.00000000000E+00 -0.00000000000E+00 -0.35904476721E+02  0.35932545813E+02  0.14200000000E+01 0.  1.
        -11    1    1    2    0    0 -0.59204722252E+01  0.13960723997E+02 -0.27355581705E+02  0.31277494410E+02  0.51100000000E-03 0.  1.
         11    1    1    2    0    0  0.59204722252E+01 -0.13960723997E+02  0.19958825841E+01  0.15295010737E+02  0.51100000000E-03 0. -1.
<mgrwt>
<rscale>  0 0.39062564E+02</rscale>
<asrwt>0</asrwt>
<pdfrwt beam="1">  1        4 0.16317543E-02 0.39062564E+02</pdfrwt>
<pdfrwt beam="2">  1       -4 0.55332464E-02 0.39062564E+02</pdfrwt>
<totfact> 0.26574716E+05</totfact>
</mgrwt>
</event>
<event>
 4    1  0.5401488E-001  0.2701189E+02  0.7818608E-02  0.1633680E+00
         -4   -1    0    0    0  501 -0.00000000000E+00  0.00000000000E+00  0.63354976735E+01  0.64926828638E+01  0.14200000000E+01 0. -1.
          4   -1    0    0  501    0  0.00000000000E+00 -0.00000000000E+00 -0.28263809828E+02  0.28299458404E+02  0.14200000000E+01 0.  1.
        -11    1    1    2    0    0 -0.47315305698E+01  0.99400727530E+01 -0.88634532521E+00  0.11044366716E+02  0.51100000000E-03 0. -1.
         11    1    1    2    0    0  0.47315305698E+01 -0.99400727530E+01 -0.21041966829E+02  0.23747774552E+02  0.51100000000E-03 0.  1.
<mgrwt>
<rscale>  0 0.27011890E+02</rscale>
<asrwt>0</asrwt>
<pdfrwt beam="2">  1        4 0.43631117E-02 0.27011890E+02</pdfrwt>
<pdfrwt beam="1">  1       -4 0.98952533E-03 0.27011890E+02</pdfrwt>
<totfact> 0.64560033E+05</totfact>
</mgrwt>
</event>
<event>
 4    1  0.5401488E-001  0.3127864E+02  0.7818608E-02  0.1584370E+00
         -4   -1    0    0    0  501 -0.00000000000E+00  0.00000000000E+00  0.97429458500E+02  0.97439805950E+02  0.14200000000E+01 0. -1.
          4   -1    0    0  501    0  0.00000000000E+00 -0.00000000000E+00 -0.22982764537E+01  0.27015689252E+01  0.14200000000E+01 0.  1.
        -11    1    1    2    0    0 -0.12950712327E+02 -0.13601745687E+01  0.19835816429E+02  0.23728266652E+02  0.51100000000E-03 0.  1.
         11    1    1    2    0    0  0.12950712327E+02  0.13601745687E+01  0.75295365617E+02  0.76413108224E+02  0.51100000000E-03 0. -1.
<mgrwt>
<rscale>  0 0.31278638E+02</rscale>
<asrwt>0</asrwt>
<pdfrwt beam="2">  1        4 0.38539948E-03 0.31278638E+02</pdfrwt>
<pdfrwt beam="1">  1       -4 0.15020965E-01 0.31278638E+02</pdfrwt>
<totfact> 0.37833347E+05</totfact>
</mgrwt>
</event>
<event>
 4    1  0.5401488E-001  0.5007972E+02  0.7818608E-02  0.1444912E+00
         -4   -1    0    0    0  501 -0.00000000000E+00  0.00000000000E+00  0.85430829323E+02  0.85442629868E+02  0.14200000000E+01 0.  1.
          4   -1    0    0  501    0  0.00000000000E+00 -0.00000000000E+00 -0.72580928645E+01  0.73956955068E+01  0.14200000000E+01 0. -1.
        -11    1    1    2    0    0 -0.18848161888E+02  0.11295674639E+02  0.16829129916E+02  0.27677880810E+02  0.51100000000E-03 0. -1.
         11    1    1    2    0    0  0.18848161888E+02 -0.11295674639E+02  0.61343606542E+02  0.65160444565E+02  0.51100000000E-03 0.  1.
<mgrwt>
<rscale>  0 0.50079716E+02</rscale>
<asrwt>0</asrwt>
<pdfrwt beam="2">  1        4 0.11281222E-02 0.50079716E+02</pdfrwt>
<pdfrwt beam="1">  1       -4 0.13154697E-01 0.50079716E+02</pdfrwt>
<totfact> 0.12710208E+05</totfact>
</mgrwt>
</event>
<event>
 4    1  0.5401488E-001  0.2546016E+02  0.7818608E-02  0.1654479E+00
          4   -1    0    0  501    0  0.00000000000E+00  0.00000000000E+00  0.14566409812E+01  0.20342573456E+01  0.14200000000E+01 0. -1.
         -4   -1    0    0    0  501 -0.00000000000E+00 -0.00000000000E+00 -0.92260286494E+02  0.92271213626E+02  0.14200000000E+01 0.  1.
        -11    1    1    2    0    0  0.12594858482E+02  0.17858911568E+01 -0.43605891991E+02  0.45423492644E+02  0.51100000000E-03 0. -1.
         11    1    1    2    0    0 -0.12594858482E+02 -0.17858911568E+01 -0.47197753522E+02  0.48881978327E+02  0.51100000000E-03 0.  1.
<mgrwt>
<rscale>  0 0.25460161E+02</rscale>
<asrwt>0</asrwt>
<pdfrwt beam="1">  1        4 0.26937126E-03 0.25460161E+02</pdfrwt>
<pdfrwt beam="2">  1       -4 0.14239159E-01 0.25460161E+02</pdfrwt>
<totfact> 0.60429943E+05</totfact>
</mgrwt>
</event>
<event>
 4    1  0.5401488E-001  0.3161111E+02  0.7818608E-02  0.1580934E+00
         -4   -1    0    0    0  501 -0.00000000000E+00  0.00000000000E+00  0.30047501152E+02  0.30081035977E+02  0.14200000000E+01 0.  1.
          4   -1    0    0  501    0  0.00000000000E+00 -0.00000000000E+00 -0.82149026881E+01  0.83367275459E+01  0.14200000000E+01 0. -1.
        -11    1    1    2    0    0 -0.40846631246E+01 -0.12733728813E+02  0.21155598094E+02  0.25027817590E+02  0.51100000000E-03 0.  1.
         11    1    1    2    0    0  0.40846631246E+01  0.12733728813E+02  0.67700036940E+00  0.13389945933E+02  0.51100000000E-03 0. -1.
<mgrwt>
<rscale>  0 0.31611109E+02</rscale>
<asrwt>0</asrwt>
<pdfrwt beam="2">  1        4 0.12757820E-02 0.31611109E+02</pdfrwt>
<pdfrwt beam="1">  1       -4 0.46346431E-02 0.31611109E+02</pdfrwt>
<totfact> 0.44765798E+05</totfact>
</mgrwt>
</event>
<event>
 4    1  0.5401488E-001  0.3244055E+02  0.7818608E-02  0.1572579E+00
          4   -1    0    0  501    0  0.00000000000E+00  0.00000000000E+00  0.56695667524E+02  0.56713447400E+02  0.14200000000E+01 0.  1.
         -4   -1    0    0    0  501 -0.00000000000E+00 -0.00000000000E+00 -0.45129283768E+01  0.47310593458E+01  0.14200000000E+01 0. -1.
        -11    1    1    2    0    0  0.96635274459E+01 -0.12799015969E+02  0.30691535838E+02  0.34629018826E+02  0.51100000000E-03 0.  1.
         11    1    1    2    0    0 -0.96635274459E+01  0.12799015969E+02  0.21491203309E+02  0.26815487920E+02  0.51100000000E-03 0. -1.
<mgrwt>
<rscale>  0 0.32440548E+02</rscale>
<asrwt>0</asrwt>
<pdfrwt beam="1">  1        4 0.87405573E-02 0.32440548E+02</pdfrwt>
<pdfrwt beam="2">  1       -4 0.71244366E-03 0.32440548E+02</pdfrwt>
<totfact> 0.39040048E+05</totfact>
</mgrwt>
</event>
<event>
 4    1  0.5401488E-001  0.2276271E+02  0.7818608E-02  0.1695386E+00
          4   -1    0    0  501    0  0.00000000000E+00  0.00000000000E+00  0.62065012413E+02  0.62081254545E+02  0.14200000000E+01 0. -1.
         -4   -1    0    0    0  501 -0.00000000000E+00 -0.00000000000E+00 -0.18270802531E+01  0.23140056722E+01  0.14200000000E+01 0.  1.
        -11    1    1    2    0    0  0.88139011438E+01 -0.63498311243E+01  0.39725033699E+02  0.41183534469E+02  0.51100000000E-03 0. -1.
         11    1    1    2    0    0 -0.88139011438E+01  0.63498311243E+01  0.20512898461E+02  0.23211725748E+02  0.51100000000E-03 0.  1.
<mgrwt>
<rscale>  0 0.22762712E+02</rscale>
<asrwt>0</asrwt>
<pdfrwt beam="1">  1        4 0.95871686E-02 0.22762712E+02</pdfrwt>
<pdfrwt beam="2">  1       -4 0.31979447E-03 0.22762712E+02</pdfrwt>
<totfact> 0.83970195E+05</totfact>
</mgrwt>
</event>
<event>
 4    1  0.5401488E-001  0.3081767E+02  0.7818608E-02  0.1589222E+00
          4   -1    0    0  501    0  0.00000000000E+00  0.00000000000E+00  0.48293037227E+02  0.48313909432E+02  0.14200000000E+01 0.  1.
         -4   -1    0    0    0  501 -0.00000000000E+00 -0.00000000000E+00 -0.47915411367E+01  0.49975260344E+01  0.14200000000E+01 0. -1.
        -11    1    1    2    0    0 -0.63211441281E+01  0.88458249903E+01  0.28618158333E+01  0.11242574126E+02  0.51100000000E-03 0. -1.
         11    1    1    2    0    0  0.63211441281E+01 -0.88458249903E+01  0.40639680257E+02  0.42068861341E+02  0.51100000000E-03 0.  1.
<mgrwt>
<rscale>  0 0.30817673E+02</rscale>
<asrwt>0</asrwt>
<pdfrwt beam="1">  1        4 0.74471485E-02 0.30817673E+02</pdfrwt>
<pdfrwt beam="2">  1       -4 0.75461073E-03 0.30817673E+02</pdfrwt>
<totfact> 0.45043606E+05</totfact>
</mgrwt>
</event>
<event>
 4    1  0.5401488E-001  0.3196320E+02  0.7818608E-02  0.1577350E+00
          4   -1    0    0  501    0  0.00000000000E+00  0.00000000000E+00  0.92920418425E+01  0.93999171062E+01  0.14200000000E+01 0.  1.
         -4   -1    0    0    0  501 -0.00000000000E+00 -0.00000000000E+00 -0.27201990387E+02  0.27239028636E+02  0.14200000000E+01 0. -1.
        -11    1    1    2    0    0  0.65492250686E+00 -0.10257568698E+02  0.50730893148E+01  0.11462236891E+02  0.51100000000E-03 0.  1.
         11    1    1    2    0    0 -0.65492250686E+00  0.10257568698E+02 -0.22983037860E+02  0.25176708852E+02  0.51100000000E-03 0. -1.
<mgrwt>
<rscale>  0 0.31963199E+02</rscale>
<asrwt>0</asrwt>
<pdfrwt beam="1">  1        4 0.14406921E-02 0.31963199E+02</pdfrwt>
<pdfrwt beam="2">  1       -4 0.41960688E-02 0.31963199E+02</pdfrwt>
<totfact> 0.43929086E+05</totfact>
</mgrwt>
</event>
<event>
 4    1  0.5401488E-001  0.2709772E+02  0.7818608E-02  0.1632580E+00
         -4   -1    0    0    0  501 -0.00000000000E+00  0.00000000000E+00  0.16560150855E+02  0.16620920442E+02  0.14200000000E+01 0. -1.
          4   -1    0    0  501    0  0.00000000000E+00 -0.00000000000E+00 -0.10958173819E+02  0.11049795177E+02  0.14200000000E+01 0.  1.
        -11    1    1    2    0    0 -0.10982907940E+02 -0.27079833831E+01 -0.48141938042E+01  0.12293652959E+02  0.51100000000E-03 0.  1.
         11    1    1    2    0    0  0.10982907940E+02  0.27079833831E+01  0.10416170840E+02  0.15377062660E+02  0.51100000000E-03 0. -1.
<mgrwt>
<rscale>  0 0.27097719E+02</rscale>
<asrwt>0</asrwt>
<pdfrwt beam="2">  1        4 0.16975953E-02 0.27097719E+02</pdfrwt>
<pdfrwt beam="1">  1       -4 0.25594379E-02 0.27097719E+02</pdfrwt>
<totfact> 0.65918677E+05</totfact>
</mgrwt>
</event>
<event>
 4    1  0.5401488E-001  0.2315261E+02  0.7818608E-02  0.1689048E+00
         -4   -1    0    0    0  501 -0.00000000000E+00  0.00000000000E+00  0.51707925810E+02  0.51727420113E+02  0.14200000000E+01 0.  1.
          4   -1    0    0  501    0  0.00000000000E+00 -0.00000000000E+00 -0.23756475565E+01  0.27676888035E+01  0.14200000000E+01 0. -1.
        -11    1    1    2    0    0 -0.43238142186E+01  0.10683403167E+02  0.22108968834E+02  0.24932648792E+02  0.51100000000E-03 0. -1.
         11    1    1    2    0    0  0.43238142186E+01 -0.10683403167E+02  0.27223309419E+02  0.29562460124E+02  0.51100000000E-03 0.  1.
<mgrwt>
<rscale>  0 0.23152607E+02</rscale>
<asrwt>0</asrwt>
<pdfrwt beam="2">  1        4 0.39714079E-03 0.23152607E+02</pdfrwt>
<pdfrwt beam="1">  1       -4 0.79867226E-02 0.23152607E+02</pdfrwt>
<totfact> 0.83795395E+05</totfact>
</mgrwt>
</event>
<event>
 4    1  0.5401488E-001  0.2332726E+02  0.7818608E-02  0.1686260E+00
         -4   -1    0    0    0  501 -0.00000000000E+00  0.00000000000E+00  0.12910736254E+02  0.12988591556E+02  0.14200000000E+01 0.  1.
          4   -1    0    0  501    0  0.00000000000E+00 -0.00000000000E+00 -0.10378971497E+02  0.10475659852E+02  0.14200000000E+01 0. -1.
        -11    1    1    2    0    0 -0.90052148468E+01 -0.68726774396E+01 -0.15276057426E+01  0.11430711666E+02  0.51100000000E-03 0.  1.
         11    1    1    2    0    0  0.90052148468E+01  0.68726774396E+01  0.40593704987E+01  0.12033539742E+02  0.51100000000E-03 0. -1.
<mgrwt>
<rscale>  0 0.23327264E+02</rscale>
<asrwt>0</asrwt>
<pdfrwt beam="2">  1        4 0.16101913E-02 0.23327264E+02</pdfrwt>
<pdfrwt beam="1">  1       -4 0.19996936E-02 0.23327264E+02</pdfrwt>
<totfact> 0.92893851E+05</totfact>
</mgrwt>
</event>
<event>
 4    1  0.5401488E-001  0.5245142E+02  0.7818608E-02  0.1432551E+00
          4   -1    0    0  501    0  0.00000000000E+00  0.00000000000E+00  0.50652348704E+02  0.50672249104E+02  0.14200000000E+01 0. -1.
         -4   -1    0    0    0  501 -0.00000000000E+00 -0.00000000000E+00 -0.13518835266E+02  0.13593208118E+02  0.14200000000E+01 0.  1.
        -11    1    1    2    0    0  0.16596291169E+00 -0.18463457775E+02  0.41385834839E+02  0.45317922969E+02  0.51100000000E-03 0. -1.
         11    1    1    2    0    0 -0.16596291169E+00  0.18463457775E+02 -0.42523214004E+01  0.18947534252E+02  0.51100000000E-03 0.  1.
<mgrwt>
<rscale>  0 0.52451417E+02</rscale>
<asrwt>0</asrwt>
<pdfrwt beam="1">  1        4 0.77999208E-02 0.52451417E+02</pdfrwt>
<pdfrwt beam="2">  1       -4 0.20870726E-02 0.52451417E+02</pdfrwt>
<totfact> 0.12262583E+05</totfact>
</mgrwt>
</event>
<event>
 4    1  0.5401488E-001  0.2510424E+02  0.7818608E-02  0.1659509E+00
         -4   -1    0    0    0  501 -0.00000000000E+00  0.00000000000E+00  0.59139261750E+01  0.60820163436E+01  0.14200000000E+01 0. -1.
          4   -1    0    0  501    0  0.00000000000E+00 -0.00000000000E+00 -0.26080483610E+02  0.26119112261E+02  0.14200000000E+01 0.  1.
        -11    1    1    2    0    0 -0.24895926000E+01 -0.11747844975E+02 -0.53973548704E+01  0.13165917087E+02  0.51100000000E-03 0. -1.
         11    1    1    2    0    0  0.24895926000E+01  0.11747844975E+02 -0.14769202564E+02  0.19035211518E+02  0.51100000000E-03 0.  1.
<mgrwt>
<rscale>  0 0.25104236E+02</rscale>
<asrwt>0</asrwt>
<pdfrwt beam="2">  1        4 0.40282835E-02 0.25104236E+02</pdfrwt>
<pdfrwt beam="1">  1       -4 0.92573626E-03 0.25104236E+02</pdfrwt>
<totfact> 0.76540191E+05</totfact>
</mgrwt>
</event>
<event>
 4    1  0.5401488E-001  0.2557304E+02  0.7818608E-02  0.1652905E+00
         -4   -1    0    0    0  501 -0.00000000000E+00  0.00000000000E+00  0.39481202848E+01  0.41957185062E+01  0.14200000000E+01 0. -1.
          4   -1    0    0  501    0  0.00000000000E+00 -0.00000000000E+00 -0.39891246508E+02  0.39916512222E+02  0.14200000000E+01 0.  1.
        -11    1    1    2    0    0 -0.78390871640E+01  0.91498979128E+01 -0.10587803517E+02  0.16039747596E+02  0.51100000000E-03 0. -1.
         11    1    1    2    0    0  0.78390871640E+01 -0.91498979128E+01 -0.25355322706E+02  0.28072483132E+02  0.51100000000E-03 0.  1.
<mgrwt>
<rscale>  0 0.25573044E+02</rscale>
<asrwt>0</asrwt>
<pdfrwt beam="2">  1        4 0.61581041E-02 0.25573044E+02</pdfrwt>
<pdfrwt beam="1">  1       -4 0.62839268E-03 0.25573044E+02</pdfrwt>
<totfact> 0.70295375E+05</totfact>
</mgrwt>
</event>
<event>
 4    1  0.5401488E-001  0.4011579E+02  0.7818608E-02  0.1507361E+00
          4   -1    0    0  501    0  0.00000000000E+00  0.00000000000E+00  0.19341867786E+02  0.19393923003E+02  0.14200000000E+01 0.  1.
         -4   -1    0    0    0  501 -0.00000000000E+00 -0.00000000000E+00 -0.20696059720E+02  0.20744717109E+02  0.14200000000E+01 0. -1.
        -11    1    1    2    0    0 -0.54389410277E+01  0.11108987154E+02 -0.16476196952E+02  0.20602347958E+02  0.51100000000E-03 0. -1.
         11    1    1    2    0    0  0.54389410277E+01 -0.11108987154E+02  0.15122005018E+02  0.19536292154E+02  0.51100000000E-03 0.  1.
<mgrwt>
<rscale>  0 0.40115790E+02</rscale>
<asrwt>0</asrwt>
<pdfrwt beam="1">  1        4 0.29834191E-02 0.40115790E+02</pdfrwt>
<pdfrwt beam="2">  1       -4 0.31917563E-02 0.40115790E+02</pdfrwt>
<totfact> 0.25485306E+05</totfact>
</mgrwt>
</event>
<event>
 4    1  0.5401488E-001  0.6062922E+02  0.7818608E-02  0.1395210E+00
         -4   -1    0    0    0  501 -0.00000000000E+00  0.00000000000E+00  0.86639026961E+01  0.87794994121E+01  0.14200000000E+01 0.  1.
          4   -1    0    0  501    0  0.00000000000E+00 -0.00000000000E+00 -0.10524613947E+03  0.10525571849E+03  0.14200000000E+01 0. -1.
        -11    1    1    2    0    0  0.54481134987E+01 -0.16764871367E+02 -0.19045855867E+01  0.17730490663E+02  0.51100000000E-03 0.  1.
         11    1    1    2    0    0 -0.54481134987E+01  0.16764871367E+02 -0.94677651190E+02  0.96304727235E+02  0.51100000000E-03 0. -1.
<mgrwt>
<rscale>  0 0.60629221E+02</rscale>
<asrwt>0</asrwt>
<pdfrwt beam="2">  1        4 0.16201342E-01 0.60629221E+02</pdfrwt>
<pdfrwt beam="1">  1       -4 0.13425371E-02 0.60629221E+02</pdfrwt>
<totfact> 0.74653348E+04</totfact>
</mgrwt>
</event>
<event>
 4    1  0.5401488E-001  0.2703870E+02  0.7818608E-02  0.1633336E+00
         -4   -1    0    0    0  501 -0.00000000000E+00  0.00000000000E+00  0.43446924637E+01  0.45708590663E+01  0.14200000000E+01 0.  1.
          4   -1    0    0  501    0  0.00000000000E+00 -0.00000000000E+00 -0.40762047079E+02  0.40786773372E+02  0.14200000000E+01 0. -1.
        -11    1    1    2    0    0 -0.12987621133E+02  0.46074048880E+00 -0.24458873303E+02  0.27697058833E+02  0.51100000000E-03 0. -1.
         11    1    1    2    0    0  0.12987621133E+02 -0.46074048880E+00 -0.11958481312E+02  0.17660573605E+02  0.51100000000E-03 0.  1.
<mgrwt>
<rscale>  0 0.27038696E+02</rscale>
<asrwt>0</asrwt>
<pdfrwt beam="2">  1        4 0.62903834E-02 0.27038696E+02</pdfrwt>
<pdfrwt beam="1">  1       -4 0.68771371E-03 0.27038696E+02</pdfrwt>
<totfact> 0.61962105E+05</totfact>
</mgrwt>
</event>
<event>
 4    1  0.5401488E-001  0.5482705E+02  0.7818608E-02  0.1420919E+00
          4   -1    0    0  501    0  0.00000000000E+00  0.00000000000E+00  0.78697580295E+01  0.79968425921E+01  0.14200000000E+01 0.  1.
         -4   -1    0    0    0  501 -0.00000000000E+00 -0.00000000000E+00 -0.94594993630E+02  0.94605651099E+02  0.14200000000E+01 0. -1.
        -11    1    1    2    0    0 -0.10080141528E+02 -0.25187174029E+02 -0.35995369422E+02  0.45074045845E+02  0.51100000000E-03 0.  1.
         11    1    1    2    0    0  0.10080141528E+02  0.25187174029E+02 -0.50729866178E+02  0.57528447846E+02  0.51100000000E-03 0. -1.
<mgrwt>
<rscale>  0 0.54827048E+02</rscale>
<asrwt>0</asrwt>
<pdfrwt beam="1">  1        4 0.12213276E-02 0.54827048E+02</pdfrwt>
<pdfrwt beam="2">  1       -4 0.14563671E-01 0.54827048E+02</pdfrwt>
<totfact> 0.98953805E+04</totfact>
</mgrwt>
</event>
<event>
 4    1  0.5401488E-001  0.4525191E+02  0.7818608E-02  0.1472775E+00
         -4   -1    0    0    0  501 -0.00000000000E+00  0.00000000000E+00  0.92140104512E+02  0.92151045895E+02  0.14200000000E+01 0.  1.
          4   -1    0    0  501    0  0.00000000000E+00 -0.00000000000E+00 -0.54538451999E+01  0.56356745350E+01  0.14200000000E+01 0. -1.
        -11    1    1    2    0    0 -0.10927664684E+02  0.19557220261E+02  0.50188596603E+02  0.54961749873E+02  0.51100000000E-03 0. -1.
         11    1    1    2    0    0  0.10927664684E+02 -0.19557220261E+02  0.36497662709E+02  0.42824970557E+02  0.51100000000E-03 0.  1.
<mgrwt>
<rscale>  0 0.45251908E+02</rscale>
<asrwt>0</asrwt>
<pdfrwt beam="2">  1        4 0.85388170E-03 0.45251908E+02</pdfrwt>
<pdfrwt beam="1">  1       -4 0.14190228E-01 0.45251908E+02</pdfrwt>
<totfact> 0.16070037E+05</totfact>
</mgrwt>
</event>
<event>
 4    1  0.5401488E-001  0.2382843E+02  0.7818608E-02  0.1678423E+00
         -4   -1    0    0    0  501 -0.00000000000E+00  0.00000000000E+00  0.87204426548E+02  0.87215987122E+02  0.14200000000E+01 0.  1.
          4   -1    0    0  501    0  0.00000000000E+00 -0.00000000000E+00 -0.13041497269E+01  0.19280058377E+01  0.14200000000E+01 0. -1.
        -11    1    1    2    0    0 -0.87224802174E+01 -0.81026536569E+01  0.41220226761E+02  0.42905031779E+02  0.51100000000E-03 0.  1.
         11    1    1    2    0    0  0.87224802174E+01  0.81026536569E+01  0.44680050060E+02  0.46238961181E+02  0.51100000000E-03 0. -1.
<mgrwt>
<rscale>  0 0.23828427E+02</rscale>
<asrwt>0</asrwt>
<pdfrwt beam="2">  1        4 0.24951660E-03 0.23828427E+02</pdfrwt>
<pdfrwt beam="1">  1       -4 0.13464945E-01 0.23828427E+02</pdfrwt>
<totfact> 0.70618856E+05</totfact>
</mgrwt>
</event>
<event>
 4    1  0.5401488E-001  0.7214374E+02  0.7818608E-02  0.1352951E+00
          4   -1    0    0  501    0  0.00000000000E+00  0.00000000000E+00  0.50109677813E+01  0.52082816845E+01  0.14200000000E+01 0. -1.
         -4   -1    0    0    0  501 -0.00000000000E+00 -0.00000000000E+00 -0.25445337401E+03  0.25445733620E+03  0.14200000000E+01 0.  1.
        -11    1    1    2    0    0  0.60113064676E+01 -0.35210835336E+02 -0.10663824696E+03  0.11246179105E+03  0.51100000000E-03 0. -1.
         11    1    1    2    0    0 -0.60113064676E+01  0.35210835336E+02 -0.14280415927E+03  0.14720382684E+03  0.51100000000E-03 0.  1.
<mgrwt>
<rscale>  0 0.72143739E+02</rscale>
<asrwt>0</asrwt>
<pdfrwt beam="1">  1        4 0.78640110E-03 0.72143739E+02</pdfrwt>
<pdfrwt beam="2">  1       -4 0.39162146E-01 0.72143739E+02</pdfrwt>
<totfact> 0.35315591E+04</totfact>
</mgrwt>
</event>
<event>
 4    1  0.5401488E-001  0.5567998E+02  0.7818608E-02  0.1416910E+00
          4   -1    0    0  501    0  0.00000000000E+00  0.00000000000E+00  0.30586360989E+01  0.33721884268E+01  0.14200000000E+01 0.  1.
         -4   -1    0    0    0  501 -0.00000000000E+00 -0.00000000000E+00 -0.24073113693E+03  0.24073532497E+03  0.14200000000E+01 0. -1.
        -11    1    1    2    0    0  0.14985953802E+02 -0.22649496201E+02 -0.91993920669E+02  0.95919027986E+02  0.51100000000E-03 0.  1.
         11    1    1    2    0    0 -0.14985953802E+02  0.22649496201E+02 -0.14567858016E+03  0.14818848541E+03  0.51100000000E-03 0. -1.
<mgrwt>
<rscale>  0 0.55679982E+02</rscale>
<asrwt>0</asrwt>
<pdfrwt beam="1">  1        4 0.49500115E-03 0.55679982E+02</pdfrwt>
<pdfrwt beam="2">  1       -4 0.37059987E-01 0.55679982E+02</pdfrwt>
<totfact> 0.69938938E+04</totfact>
</mgrwt>
</event>
<event>
 4    1  0.5401488E-001  0.2175895E+02  0.7818608E-02  0.1712455E+00
          4   -1    0    0  501    0  0.00000000000E+00  0.00000000000E+00  0.47413592540E+01  0.49494330560E+01  0.14200000000E+01 0. -1.
         -4   -1    0    0    0  501 -0.00000000000E+00 -0.00000000000E+00 -0.24198583131E+02  0.24240210922E+02  0.14200000000E+01 0.  1.
        -11    1    1    2    0    0 -0.68271312549E+01 -0.84529591107E+01 -0.10464238279E+02  0.15085175568E+02  0.51100000000E-03 0.  1.
         11    1    1    2    0    0  0.68271312549E+01  0.84529591107E+01 -0.89929855980E+01  0.14104468410E+02  0.51100000000E-03 0. -1.
<mgrwt>
<rscale>  0 0.21758947E+02</rscale>
<asrwt>0</asrwt>
<pdfrwt beam="1">  1        4 0.74864771E-03 0.21758947E+02</pdfrwt>
<pdfrwt beam="2">  1       -4 0.37420667E-02 0.21758947E+02</pdfrwt>
<totfact> 0.10501675E+06</totfact>
</mgrwt>
</event>
<event>
 4    1  0.5401488E-001  0.5345711E+02  0.7818608E-02  0.1427539E+00
          4   -1    0    0  501    0  0.00000000000E+00  0.00000000000E+00  0.11248356418E+03  0.11249252691E+03  0.14200000000E+01 0. -1.
         -4   -1    0    0    0  501 -0.00000000000E+00 -0.00000000000E+00 -0.62625845405E+01  0.64215547282E+01  0.14200000000E+01 0.  1.
        -11    1    1    2    0    0  0.13717812054E+01 -0.26276189266E+02  0.63566870834E+02  0.68797289002E+02  0.51100000000E-03 0. -1.
         11    1    1    2    0    0 -0.13717812054E+01  0.26276189266E+02  0.42654108806E+02  0.50116792638E+02  0.51100000000E-03 0.  1.
<mgrwt>
<rscale>  0 0.53457107E+02</rscale>
<asrwt>0</asrwt>
<pdfrwt beam="1">  1        4 0.17318082E-01 0.53457107E+02</pdfrwt>
<pdfrwt beam="2">  1       -4 0.97639245E-03 0.53457107E+02</pdfrwt>
<totfact> 0.10121632E+05</totfact>
</mgrwt>
</event>
<event>
 4    1  0.5401488E-001  0.2608743E+02  0.7818608E-02  0.1645857E+00
          4   -1    0    0  501    0  0.00000000000E+00  0.00000000000E+00  0.83651066986E+02  0.83663118564E+02  0.14200000000E+01 0.  1.
         -4   -1    0    0    0  501 -0.00000000000E+00 -0.00000000000E+00 -0.17723455579E+01  0.22710369386E+01  0.14200000000E+01 0. -1.
        -11    1    1    2    0    0  0.58328754507E+01  0.91999081032E+01  0.64573748618E+02  0.65486103533E+02  0.51100000000E-03 0.  1.
         11    1    1    2    0    0 -0.58328754507E+01 -0.91999081032E+01  0.17304972810E+02  0.20448051970E+02  0.51100000000E-03 0. -1.
<mgrwt>
<rscale>  0 0.26087431E+02</rscale>
<asrwt>0</asrwt>
<pdfrwt beam="1">  1        4 0.12908682E-01 0.26087431E+02</pdfrwt>
<pdfrwt beam="2">  1       -4 0.31195648E-03 0.26087431E+02</pdfrwt>
<totfact> 0.58764863E+05</totfact>
</mgrwt>
</event>
<event>
 4    1  0.5401488E-001  0.5970735E+02  0.7818608E-02  0.1399064E+00
          4   -1    0    0  501    0  0.00000000000E+00  0.00000000000E+00  0.69670329947E+01  0.71102706523E+01  0.14200000000E+01 0. -1.
         -4   -1    0    0    0  501 -0.00000000000E+00 -0.00000000000E+00 -0.12647386166E+03  0.12648183302E+03  0.14200000000E+01 0.  1.
        -11    1    1    2    0    0  0.19324152145E+02  0.12295186911E+01 -0.89132249096E+01  0.21316194569E+02  0.51100000000E-03 0. -1.
         11    1    1    2    0    0 -0.19324152145E+02 -0.12295186911E+01 -0.11059360376E+03  0.11227590910E+03  0.51100000000E-03 0.  1.
<mgrwt>
<rscale>  0 0.59707354E+02</rscale>
<asrwt>0</asrwt>
<pdfrwt beam="1">  1        4 0.10834828E-02 0.59707354E+02</pdfrwt>
<pdfrwt beam="2">  1       -4 0.19469147E-01 0.59707354E+02</pdfrwt>
<totfact> 0.74084034E+04</totfact>
</mgrwt>
</event>
<event>
 4    1  0.5401488E-001  0.2557646E+02  0.7818608E-02  0.1652857E+00
          4   -1    0    0  501    0  0.00000000000E+00  0.00000000000E+00  0.12608338651E+02  0.12688049635E+02  0.14200000000E+01 0.  1.
         -4   -1    0    0    0  501 -0.00000000000E+00 -0.00000000000E+00 -0.12810755219E+02  0.12889214456E+02  0.14200000000E+01 0. -1.
        -11    1    1    2    0    0 -0.37307854885E+01 -0.97169906948E+01 -0.75311245092E+01  0.12847431851E+02  0.51100000000E-03 0. -1.
         11    1    1    2    0    0  0.37307854885E+01  0.97169906948E+01  0.73287079412E+01  0.12729832241E+02  0.51100000000E-03 0.  1.
<mgrwt>
<rscale>  0 0.25576463E+02</rscale>
<asrwt>0</asrwt>
<pdfrwt beam="1">  1        4 0.19519114E-02 0.25576463E+02</pdfrwt>
<pdfrwt beam="2">  1       -4 0.19830524E-02 0.25576463E+02</pdfrwt>
<totfact> 0.75485944E+05</totfact>
</mgrwt>
</event>
<event>
 4    1  0.5401488E-001  0.2849990E+02  0.7818608E-02  0.1615288E+00
         -4   -1    0    0    0  501 -0.00000000000E+00  0.00000000000E+00  0.49531779905E+02  0.49552130333E+02  0.14200000000E+01 0. -1.
          4   -1    0    0  501    0  0.00000000000E+00 -0.00000000000E+00 -0.39547908487E+01  0.42019960325E+01  0.14200000000E+01 0.  1.
        -11    1    1    2    0    0 -0.13890088989E+02  0.28815670445E+01  0.25335129973E+02  0.29036301620E+02  0.51100000000E-03 0.  1.
         11    1    1    2    0    0  0.13890088989E+02 -0.28815670445E+01  0.20241859083E+02  0.24717824746E+02  0.51100000000E-03 0. -1.
<mgrwt>
<rscale>  0 0.28499898E+02</rscale>
<asrwt>0</asrwt>
<pdfrwt beam="2">  1        4 0.62901057E-03 0.28499898E+02</pdfrwt>
<pdfrwt beam="1">  1       -4 0.76408550E-02 0.28499898E+02</pdfrwt>
<totfact> 0.53588204E+05</totfact>
</mgrwt>
</event>
<event>
 4    1  0.5401488E-001  0.4636515E+02  0.7818608E-02  0.1465995E+00
         -4   -1    0    0    0  501 -0.00000000000E+00  0.00000000000E+00  0.31766090987E+02  0.31797813393E+02  0.14200000000E+01 0.  1.
          4   -1    0    0  501    0  0.00000000000E+00 -0.00000000000E+00 -0.16848362543E+02  0.16908096297E+02  0.14200000000E+01 0. -1.
        -11    1    1    2    0    0  0.66350097329E+01  0.18173754851E+02 -0.59578956708E+01  0.20243646920E+02  0.51100000000E-03 0. -1.
         11    1    1    2    0    0 -0.66350097329E+01 -0.18173754851E+02  0.20875624115E+02  0.28462262770E+02  0.51100000000E-03 0.  1.
<mgrwt>
<rscale>  0 0.46365149E+02</rscale>
<asrwt>0</asrwt>
<pdfrwt beam="2">  1        4 0.25990909E-02 0.46365149E+02</pdfrwt>
<pdfrwt beam="1">  1       -4 0.48941259E-02 0.46365149E+02</pdfrwt>
<totfact> 0.17441987E+05</totfact>
</mgrwt>
</event>
<event>
 4    1  0.5401488E-001  0.3959133E+02  0.7818608E-02  0.1511241E+00
         -4   -1    0    0    0  501 -0.00000000000E+00  0.00000000000E+00  0.44806487965E+01  0.47002780383E+01  0.14200000000E+01 0. -1.
          4   -1    0    0  501    0  0.00000000000E+00 -0.00000000000E+00 -0.85140057099E+02  0.85151897940E+02  0.14200000000E+01 0.  1.
        -11    1    1    2    0    0  0.19726582270E+02 -0.91996536026E+00 -0.37214658536E+02  0.42129742398E+02  0.51100000000E-03 0.  1.
         11    1    1    2    0    0 -0.19726582270E+02  0.91996536026E+00 -0.43444749766E+02  0.47722433580E+02  0.51100000000E-03 0. -1.
<mgrwt>
<rscale>  0 0.39591330E+02</rscale>
<asrwt>0</asrwt>
<pdfrwt beam="2">  1        4 0.13116274E-01 0.39591330E+02</pdfrwt>
<pdfrwt beam="1">  1       -4 0.70713604E-03 0.39591330E+02</pdfrwt>
<totfact> 0.22601798E+05</totfact>
</mgrwt>
</event>
<event>
 4    1  0.5401488E-001  0.3324539E+02  0.7818608E-02  0.1564758E+00
         -4   -1    0    0    0  501 -0.00000000000E+00  0.00000000000E+00  0.14789059705E+03  0.14789741410E+03  0.14200000000E+01 0.  1.
          4   -1    0    0  501    0  0.00000000000E+00 -0.00000000000E+00 -0.15906988431E+01  0.21323045771E+01  0.14200000000E+01 0. -1.
        -11    1    1    2    0    0 -0.14539455396E+01  0.16179507035E+02  0.57243596452E+02  0.59503947269E+02  0.51100000000E-03 0. -1.
         11    1    1    2    0    0  0.14539455396E+01 -0.16179507035E+02  0.89056301756E+02  0.90525771404E+02  0.51100000000E-03 0.  1.
<mgrwt>
<rscale>  0 0.33245395E+02</rscale>
<asrwt>0</asrwt>
<pdfrwt beam="2">  1        4 0.28690938E-03 0.33245395E+02</pdfrwt>
<pdfrwt beam="1">  1       -4 0.22794577E-01 0.33245395E+02</pdfrwt>
<totfact> 0.29029238E+05</totfact>
</mgrwt>
</event>
<event>
 4    1  0.5401488E-001  0.3687310E+02  0.7818608E-02  0.1532569E+00
          4   -1    0    0  501    0  0.00000000000E+00  0.00000000000E+00  0.74231686406E+01  0.75577663808E+01  0.14200000000E+01 0.  1.
         -4   -1    0    0    0  501 -0.00000000000E+00 -0.00000000000E+00 -0.45232688355E+02  0.45254972056E+02  0.14200000000E+01 0. -1.
        -11    1    1    2    0    0 -0.29543821078E+01 -0.16623590621E+02 -0.29510841958E+02  0.33999440174E+02  0.51100000000E-03 0.  1.
         11    1    1    2    0    0  0.29543821078E+01  0.16623590621E+02 -0.82986777556E+01  0.18813298263E+02  0.51100000000E-03 0. -1.
<mgrwt>
<rscale>  0 0.36873101E+02</rscale>
<asrwt>0</asrwt>
<pdfrwt beam="1">  1        4 0.11540938E-02 0.36873101E+02</pdfrwt>
<pdfrwt beam="2">  1       -4 0.69709428E-02 0.36873101E+02</pdfrwt>
<totfact> 0.29842797E+05</totfact>
</mgrwt>
</event>
<event>
 4    1  0.5401488E-001  0.2342738E+02  0.7818608E-02  0.1684675E+00
          4   -1    0    0  501    0  0.00000000000E+00  0.00000000000E+00  0.23692826978E+02  0.23735341797E+02  0.14200000000E+01 0. -1.
         -4   -1    0    0    0  501 -0.00000000000E+00 -0.00000000000E+00 -0.56556736667E+01  0.58312129634E+01  0.14200000000E+01 0.  1.
        -11    1    1    2    0    0  0.34965370943E+00  0.11562363293E+02  0.11345705277E+02  0.16202948223E+02  0.51100000000E-03 0. -1.
         11    1    1    2    0    0 -0.34965370943E+00 -0.11562363293E+02  0.66914480340E+01  0.13363606537E+02  0.51100000000E-03 0.  1.
<mgrwt>
<rscale>  0 0.23427383E+02</rscale>
<asrwt>0</asrwt>
<pdfrwt beam="1">  1        4 0.36618237E-02 0.23427383E+02</pdfrwt>
<pdfrwt beam="2">  1       -4 0.88687703E-03 0.23427383E+02</pdfrwt>
<totfact> 0.89731675E+05</totfact>
</mgrwt>
</event>
<event>
 4    1  0.5401488E-001  0.3767524E+02  0.7818608E-02  0.1526051E+00
         -4   -1    0    0    0  501 -0.00000000000E+00  0.00000000000E+00  0.35950394467E+02  0.35978427736E+02  0.14200000000E+01 0. -1.
          4   -1    0    0  501    0  0.00000000000E+00 -0.00000000000E+00 -0.97875717216E+01  0.98900434886E+01  0.14200000000E+01 0.  1.
        -11    1    1    2    0    0  0.14269939443E+02  0.11427042066E+02  0.75493022482E+01  0.19778787293E+02  0.51100000000E-03 0.  1.
         11    1    1    2    0    0 -0.14269939443E+02 -0.11427042066E+02  0.18613520497E+02  0.26089683931E+02  0.51100000000E-03 0. -1.
<mgrwt>
<rscale>  0 0.37675235E+02</rscale>
<asrwt>0</asrwt>
<pdfrwt beam="2">  1        4 0.15158191E-02 0.37675235E+02</pdfrwt>
<pdfrwt beam="1">  1       -4 0.55408688E-02 0.37675235E+02</pdfrwt>
<totfact> 0.29021997E+05</totfact>
</mgrwt>
</event>
<event>
 4    1  0.5401488E-001  0.2701998E+02  0.7818608E-02  0.1633576E+00
         -4   -1    0    0    0  501 -0.00000000000E+00  0.00000000000E+00  0.23218123532E+01  0.27216194817E+01  0.14200000000E+01 0.  1.
          4   -1    0    0  501    0  0.00000000000E+00 -0.00000000000E+00 -0.71971873431E+02  0.71985880318E+02  0.14200000000E+01 0. -1.
        -11    1    1    2    0    0 -0.65760715842E+01  0.11596526274E+02 -0.40879930095E+02  0.42998753749E+02  0.51100000000E-03 0. -1.
         11    1    1    2    0    0  0.65760715842E+01 -0.11596526274E+02 -0.28770130983E+02  0.31708746051E+02  0.51100000000E-03 0.  1.
<mgrwt>
<rscale>  0 0.27019984E+02</rscale>
<asrwt>0</asrwt>
<pdfrwt beam="2">  1        4 0.11104426E-01 0.27019984E+02</pdfrwt>
<pdfrwt beam="1">  1       -4 0.38903380E-03 0.27019984E+02</pdfrwt>
<totfact> 0.56326837E+05</totfact>
</mgrwt>
</event>
<event>
 4    1  0.5401488E-001  0.4648156E+02  0.7818608E-02  0.1465299E+00
         -4   -1    0    0    0  501 -0.00000000000E+00  0.00000000000E+00  0.13783285315E+02  0.13856238814E+02  0.14200000000E+01 0.  1.
          4   -1    0    0  501    0  0.00000000000E+00 -0.00000000000E+00 -0.38998247561E+02  0.39024091442E+02  0.14200000000E+01 0. -1.
        -11    1    1    2    0    0 -0.19012966558E+02  0.22136313976E+01  0.23881336865E+01  0.19289796372E+02  0.51100000000E-03 0.  1.
         11    1    1    2    0    0  0.19012966558E+02 -0.22136313976E+01 -0.27603095933E+02  0.33590533884E+02  0.51100000000E-03 0. -1.
<mgrwt>
<rscale>  0 0.46481556E+02</rscale>
<asrwt>0</asrwt>
<pdfrwt beam="2">  1        4 0.60073302E-02 0.46481556E+02</pdfrwt>
<pdfrwt beam="1">  1       -4 0.21281052E-02 0.46481556E+02</pdfrwt>
<totfact> 0.17109911E+05</totfact>
</mgrwt>
</event>
<event>
 4    1  0.5401488E-001  0.3186665E+02  0.7818608E-02  0.1578327E+00
         -4   -1    0    0    0  501 -0.00000000000E+00  0.00000000000E+00  0.17690638993E+02  0.17747538082E+02  0.14200000000E+01 0. -1.
          4   -1    0    0  501    0  0.00000000000E+00 -0.00000000000E+00 -0.14235257440E+02  0.14305906276E+02  0.14200000000E+01 0.  1.
        -11    1    1    2    0    0 -0.91811824691E+01 -0.12236008620E+02  0.62099178161E+01  0.16509909086E+02  0.51100000000E-03 0. -1.
         11    1    1    2    0    0  0.91811824691E+01  0.12236008620E+02 -0.27545362633E+01  0.15543535273E+02  0.51100000000E-03 0.  1.
<mgrwt>
<rscale>  0 0.31866654E+02</rscale>
<asrwt>0</asrwt>
<pdfrwt beam="2">  1        4 0.21998510E-02 0.31866654E+02</pdfrwt>
<pdfrwt beam="1">  1       -4 0.27314481E-02 0.31866654E+02</pdfrwt>
<totfact> 0.44990798E+05</totfact>
</mgrwt>
</event>
<event>
 4    1  0.5401488E-001  0.3639496E+02  0.7818608E-02  0.1536551E+00
         -4   -1    0    0    0  501 -0.00000000000E+00  0.00000000000E+00  0.54811145199E+02  0.54829536183E+02  0.14200000000E+01 0.  1.
          4   -1    0    0  501    0  0.00000000000E+00 -0.00000000000E+00 -0.59384965836E+01  0.61059103886E+01  0.14200000000E+01 0. -1.
        -11    1    1    2    0    0  0.12395877558E+01  0.12298921315E+02  0.20767709169E+01  0.12534473305E+02  0.51100000000E-03 0. -1.
         11    1    1    2    0    0 -0.12395877558E+01 -0.12298921315E+02  0.46795877699E+02  0.48400973267E+02  0.51100000000E-03 0.  1.
<mgrwt>
<rscale>  0 0.36394957E+02</rscale>
<asrwt>0</asrwt>
<pdfrwt beam="2">  1        4 0.92790752E-03 0.36394957E+02</pdfrwt>
<pdfrwt beam="1">  1       -4 0.84467767E-02 0.36394957E+02</pdfrwt>
<totfact> 0.29986343E+05</totfact>
</mgrwt>
</event>
<event>
 4    1  0.5401488E-001  0.3174446E+02  0.7818608E-02  0.1579569E+00
          4   -1    0    0  501    0  0.00000000000E+00  0.00000000000E+00  0.62249983204E+01  0.63849043915E+01  0.14200000000E+01 0. -1.
         -4   -1    0    0    0  501 -0.00000000000E+00 -0.00000000000E+00 -0.39784392415E+02  0.39809725945E+02  0.14200000000E+01 0.  1.
        -11    1    1    2    0    0  0.77592050357E+01 -0.13646375708E+02 -0.13367284749E+02  0.20618271862E+02  0.51100000000E-03 0.  1.
         11    1    1    2    0    0 -0.77592050357E+01  0.13646375708E+02 -0.20192109345E+02  0.25576358475E+02  0.51100000000E-03 0. -1.
<mgrwt>
<rscale>  0 0.31744463E+02</rscale>
<asrwt>0</asrwt>
<pdfrwt beam="1">  1        4 0.97194127E-03 0.31744463E+02</pdfrwt>
<pdfrwt beam="2">  1       -4 0.61349248E-02 0.31744463E+02</pdfrwt>
<totfact> 0.43139569E+05</totfact>
</mgrwt>
</event>
<event>
 4    1  0.5401488E-001  0.2471368E+02  0.7818608E-02  0.1665149E+00
          4   -1    0    0  501    0  0.00000000000E+00  0.00000000000E+00  0.32935846139E+01  0.35866557695E+01  0.14200000000E+01 0. -1.
         -4   -1    0    0    0  501 -0.00000000000E+00 -0.00000000000E+00 -0.44080512259E+02  0.44103378113E+02  0.14200000000E+01 0.  1.
        -11    1    1    2    0    0 -0.85284994252E+01  0.86935100622E+01 -0.16355336357E+02  0.20391406211E+02  0.51100000000E-03 0. -1.
         11    1    1    2    0    0  0.85284994252E+01 -0.86935100622E+01 -0.24431591287E+02  0.27298627671E+02  0.51100000000E-03 0.  1.
<mgrwt>
<rscale>  0 0.24713678E+02</rscale>
<asrwt>0</asrwt>
<pdfrwt beam="1">  1        4 0.53100820E-03 0.24713678E+02</pdfrwt>
<pdfrwt beam="2">  1       -4 0.68059197E-02 0.24713678E+02</pdfrwt>
<totfact> 0.74717445E+05</totfact>
</mgrwt>
</event>
<event>
 4    1  0.5401488E-001  0.3277412E+02  0.7818608E-02  0.1569305E+00
          4   -1    0    0  501    0  0.00000000000E+00  0.00000000000E+00  0.10189542299E+02  0.10288011093E+02  0.14200000000E+01 0.  1.
         -4   -1    0    0    0  501 -0.00000000000E+00 -0.00000000000E+00 -0.26109465717E+02  0.26148051553E+02  0.14200000000E+01 0. -1.
        -11    1    1    2    0    0  0.10011362738E+02  0.17229499286E+01 -0.22255123244E+02  0.24463982734E+02  0.51100000000E-03 0. -1.
         11    1    1    2    0    0 -0.10011362738E+02 -0.17229499286E+01  0.63351998258E+01  0.11972079912E+02  0.51100000000E-03 0.  1.
<mgrwt>
<rscale>  0 0.32774116E+02</rscale>
<asrwt>0</asrwt>
<pdfrwt beam="1">  1        4 0.15781646E-02 0.32774116E+02</pdfrwt>
<pdfrwt beam="2">  1       -4 0.40273835E-02 0.32774116E+02</pdfrwt>
<totfact> 0.41504697E+05</totfact>
</mgrwt>
</event>
<event>
 4    1  0.5401488E-001  0.2900250E+02  0.7818608E-02  0.1609384E+00
          4   -1    0    0  501    0  0.00000000000E+00  0.00000000000E+00  0.49359744940E+02  0.49380166267E+02  0.14200000000E+01 0.  1.
         -4   -1    0    0    0  501 -0.00000000000E+00 -0.00000000000E+00 -0.41200305104E+01  0.43578723486E+01  0.14200000000E+01 0. -1.
        -11    1    1    2    0    0  0.10610352336E+02 -0.43884980970E+01  0.39030918150E+02  0.40684776811E+02  0.51100000000E-03 0.  1.
         11    1    1    2    0    0 -0.10610352336E+02  0.43884980970E+01  0.62087962793E+01  0.13053261805E+02  0.51100000000E-03 0. -1.
<mgrwt>
<rscale>  0 0.29002500E+02</rscale>
<asrwt>0</asrwt>
<pdfrwt beam="1">  1        4 0.76136731E-02 0.29002500E+02</pdfrwt>
<pdfrwt beam="2">  1       -4 0.65371727E-03 0.29002500E+02</pdfrwt>
<totfact> 0.51551301E+05</totfact>
</mgrwt>
</event>
<event>
 4    1  0.5401488E-001  0.3495154E+02  0.7818608E-02  0.1549031E+00
          4   -1    0    0  501    0  0.00000000000E+00  0.00000000000E+00  0.66598242052E+01  0.68095270352E+01  0.14200000000E+01 0.  1.
         -4   -1    0    0    0  501 -0.00000000000E+00 -0.00000000000E+00 -0.45186805400E+02  0.45209111717E+02  0.14200000000E+01 0. -1.
        -11    1    1    2    0    0  0.11618223982E+02 -0.24697452629E+01 -0.38341700617E+02  0.40139366918E+02  0.51100000000E-03 0. -1.
         11    1    1    2    0    0 -0.11618223982E+02  0.24697452629E+01 -0.18528057833E+00  0.11879271834E+02  0.51100000000E-03 0.  1.
<mgrwt>
<rscale>  0 0.34951545E+02</rscale>
<asrwt>0</asrwt>
<pdfrwt beam="1">  1        4 0.10378198E-02 0.34951545E+02</pdfrwt>
<pdfrwt beam="2">  1       -4 0.69650475E-02 0.34951545E+02</pdfrwt>
<totfact> 0.33905914E+05</totfact>
</mgrwt>
</event>
<event>
 4    1  0.5401488E-001  0.6951366E+02  0.7818608E-02  0.1361755E+00
          4   -1    0    0  501    0  0.00000000000E+00  0.00000000000E+00  0.10052046754E+03  0.10053049684E+03  0.14200000000E+01 0.  1.
         -4   -1    0    0    0  501 -0.00000000000E+00 -0.00000000000E+00 -0.11965207682E+02  0.12049174033E+02  0.14200000000E+01 0. -1.
        -11    1    1    2    0    0  0.12285709941E+02 -0.26580959970E+02  0.74600159611E+02  0.80141561727E+02  0.51100000000E-03 0.  1.
         11    1    1    2    0    0 -0.12285709941E+02  0.26580959970E+02  0.13955100247E+02  0.32438109144E+02  0.51100000000E-03 0. -1.
<mgrwt>
<rscale>  0 0.69513655E+02</rscale>
<asrwt>0</asrwt>
<pdfrwt beam="1">  1        4 0.15471917E-01 0.69513655E+02</pdfrwt>
<pdfrwt beam="2">  1       -4 0.18480317E-02 0.69513655E+02</pdfrwt>
<totfact> 0.52728604E+04</totfact>
</mgrwt>
</event>
<event>
 4    1  0.5401488E-001  0.3061020E+02  0.7818608E-02  0.1591440E+00
          4   -1    0    0  501    0  0.00000000000E+00  0.00000000000E+00  0.39548749562E+02  0.39574233940E+02  0.14200000000E+01 0.  1.
         -4   -1    0    0    0  501 -0.00000000000E+00 -0.00000000000E+00 -0.58100458900E+01  0.59810561980E+01  0.14200000000E+01 0. -1.
        -11    1    1    2    0    0 -0.91473477440E+01  0.10699721291E+02  0.25809701840E+02  0.29398957733E+02  0.51100000000E-03 0.  1.
         11    1    1    2    0    0  0.91473477440E+01 -0.10699721291E+02  0.79290018325E+01  0.16156332405E+02  0.51100000000E-03 0. -1.
<mgrwt>
<rscale>  0 0.30610200E+02</rscale>
<asrwt>0</asrwt>
<pdfrwt beam="1">  1        4 0.60995380E-02 0.30610200E+02</pdfrwt>
<pdfrwt beam="2">  1       -4 0.90896819E-03 0.30610200E+02</pdfrwt>
<totfact> 0.46962094E+05</totfact>
</mgrwt>
</event>
<event>
 4    1  0.5401488E-001  0.3036394E+03  0.7818608E-02  0.1083435E+00
          4   -1    0    0  501    0  0.00000000000E+00  0.00000000000E+00  0.13716099463E+03  0.13716834492E+03  0.14200000000E+01 0. -1.
         -4   -1    0    0    0  501 -0.00000000000E+00 -0.00000000000E+00 -0.16803015341E+03  0.16803615341E+03  0.14200000000E+01 0.  1.
        -11    1    1    2    0    0  0.84209358423E+02  0.12420910206E+03 -0.38577224710E+02  0.15494295514E+03  0.51100000000E-03 0.  1.
         11    1    1    2    0    0 -0.84209358423E+02 -0.12420910206E+03  0.77080659299E+01  0.15026154319E+03  0.51100000000E-03 0. -1.
<mgrwt>
<rscale>  0 0.30363939E+03</rscale>
<asrwt>0</asrwt>
<pdfrwt beam="1">  1        4 0.21102718E-01 0.30363939E+03</pdfrwt>
<pdfrwt beam="2">  1       -4 0.25851820E-01 0.30363939E+03</pdfrwt>
<totfact> 0.54666341E+02</totfact>
</mgrwt>
</event>
<event>
 4    1  0.5401488E-001  0.3483079E+02  0.7818608E-02  0.1550108E+00
         -4   -1    0    0    0  501 -0.00000000000E+00  0.00000000000E+00  0.18500277385E+01  0.23321669394E+01  0.14200000000E+01 0. -1.
          4   -1    0    0  501    0  0.00000000000E+00 -0.00000000000E+00 -0.14455549334E+03  0.14456246766E+03  0.14200000000E+01 0.  1.
        -11    1    1    2    0    0 -0.34252865645E+01  0.16341851313E+02 -0.50474684063E+02  0.53164672705E+02  0.51100000000E-03 0. -1.
         11    1    1    2    0    0  0.34252865645E+01 -0.16341851313E+02 -0.92230781540E+02  0.93729961891E+02  0.51100000000E-03 0.  1.
<mgrwt>
<rscale>  0 0.34830788E+02</rscale>
<asrwt>0</asrwt>
<pdfrwt beam="2">  1        4 0.22276923E-01 0.34830788E+02</pdfrwt>
<pdfrwt beam="1">  1       -4 0.32224388E-03 0.34830788E+02</pdfrwt>
<totfact> 0.26309602E+05</totfact>
</mgrwt>
</event>
<event>
 4    1  0.5401488E-001  0.4469451E+02  0.7818608E-02  0.1476258E+00
         -4   -1    0    0    0  501 -0.00000000000E+00  0.00000000000E+00  0.89680433034E+01  0.90797687576E+01  0.14200000000E+01 0. -1.
          4   -1    0    0  501    0  0.00000000000E+00 -0.00000000000E+00 -0.55220951509E+02  0.55239206055E+02  0.14200000000E+01 0.  1.
        -11    1    1    2    0    0  0.86861676172E+01 -0.20336034814E+02 -0.18486468358E+02  0.28822791892E+02  0.51100000000E-03 0. -1.
         11    1    1    2    0    0 -0.86861676172E+01  0.20336034814E+02 -0.27766439848E+02  0.35496182920E+02  0.51100000000E-03 0.  1.
<mgrwt>
<rscale>  0 0.44694508E+02</rscale>
<asrwt>0</asrwt>
<pdfrwt beam="2">  1        4 0.85055293E-02 0.44694508E+02</pdfrwt>
<pdfrwt beam="1">  1       -4 0.13896975E-02 0.44694508E+02</pdfrwt>
<totfact> 0.18187000E+05</totfact>
</mgrwt>
</event>
<event>
 4    1  0.5401488E-001  0.2185289E+02  0.7818608E-02  0.1710809E+00
          4   -1    0    0  501    0  0.00000000000E+00  0.00000000000E+00  0.41880617466E+02  0.41904683740E+02  0.14200000000E+01 0.  1.
         -4   -1    0    0    0  501 -0.00000000000E+00 -0.00000000000E+00 -0.26473218066E+01  0.30041159677E+01  0.14200000000E+01 0. -1.
        -11    1    1    2    0    0  0.28333960256E+01 -0.10073382685E+02  0.13155145566E+02  0.16809492166E+02  0.51100000000E-03 0. -1.
         11    1    1    2    0    0 -0.28333960256E+01  0.10073382685E+02  0.26078150094E+02  0.28099307542E+02  0.51100000000E-03 0.  1.
<mgrwt>
<rscale>  0 0.21852890E+02</rscale>
<asrwt>0</asrwt>
<pdfrwt beam="1">  1        4 0.64724688E-02 0.21852890E+02</pdfrwt>
<pdfrwt beam="2">  1       -4 0.43657724E-03 0.21852890E+02</pdfrwt>
<totfact> 0.97865702E+05</totfact>
</mgrwt>
</event>
<event>
 4    1  0.5401488E-001  0.2866930E+02  0.7818608E-02  0.1613281E+00
         -4   -1    0    0    0  501 -0.00000000000E+00  0.00000000000E+00  0.77921528759E+02  0.77934466343E+02  0.14200000000E+01 0.  1.
          4   -1    0    0  501    0  0.00000000000E+00 -0.00000000000E+00 -0.24317468959E+01  0.28159888078E+01  0.14200000000E+01 0. -1.
        -11    1    1    2    0    0 -0.13377257601E+02 -0.50464471911E+01  0.40651006741E+02  0.43092017816E+02  0.51100000000E-03 0.  1.
         11    1    1    2    0    0  0.13377257601E+02  0.50464471911E+01  0.34838775122E+02  0.37658437334E+02  0.51100000000E-03 0. -1.
<mgrwt>
<rscale>  0 0.28669301E+02</rscale>
<asrwt>0</asrwt>
<pdfrwt beam="2">  1        4 0.40466728E-03 0.28669301E+02</pdfrwt>
<pdfrwt beam="1">  1       -4 0.12018477E-01 0.28669301E+02</pdfrwt>
<totfact> 0.48564948E+05</totfact>
</mgrwt>
</event>
<event>
 4    1  0.5401488E-001  0.2782337E+02  0.7818608E-02  0.1623475E+00
         -4   -1    0    0    0  501 -0.00000000000E+00  0.00000000000E+00  0.41804560630E+01  0.44150439290E+01  0.14200000000E+01 0. -1.
          4   -1    0    0  501    0  0.00000000000E+00 -0.00000000000E+00 -0.44785535029E+02  0.44808041107E+02  0.14200000000E+01 0.  1.
        -11    1    1    2    0    0  0.53080192366E+01 -0.12007167510E+02 -0.12159212905E+02  0.17893954246E+02  0.51100000000E-03 0. -1.
         11    1    1    2    0    0 -0.53080192366E+01  0.12007167510E+02 -0.28445866061E+02  0.31329130790E+02  0.51100000000E-03 0.  1.
<mgrwt>
<rscale>  0 0.27823365E+02</rscale>
<asrwt>0</asrwt>
<pdfrwt beam="2">  1        4 0.69098585E-02 0.27823365E+02</pdfrwt>
<pdfrwt beam="1">  1       -4 0.66292357E-03 0.27823365E+02</pdfrwt>
<totfact> 0.57394225E+05</totfact>
</mgrwt>
</event>
<event>
 4    1  0.5401488E-001  0.3940134E+02  0.7818608E-02  0.1512664E+00
          4   -1    0    0  501    0  0.00000000000E+00  0.00000000000E+00  0.14396433382E+02  0.14466295107E+02  0.14200000000E+01 0.  1.
         -4   -1    0    0    0  501 -0.00000000000E+00 -0.00000000000E+00 -0.26805254676E+02  0.26842840353E+02  0.14200000000E+01 0. -1.
        -11    1    1    2    0    0  0.95349450490E+01 -0.14605299448E+02 -0.15806840377E+02  0.23539034645E+02  0.51100000000E-03 0. -1.
         11    1    1    2    0    0 -0.95349450490E+01  0.14605299448E+02  0.33980190828E+01  0.17770100815E+02  0.51100000000E-03 0.  1.
<mgrwt>
<rscale>  0 0.39401343E+02</rscale>
<asrwt>0</asrwt>
<pdfrwt beam="1">  1        4 0.22231011E-02 0.39401343E+02</pdfrwt>
<pdfrwt beam="2">  1       -4 0.41321505E-02 0.39401343E+02</pdfrwt>
<totfact> 0.26497469E+05</totfact>
</mgrwt>
</event>
<event>
 4    1  0.5401488E-001  0.2210127E+02  0.7818608E-02  0.1706506E+00
         -4   -1    0    0    0  501 -0.00000000000E+00  0.00000000000E+00  0.73123990992E+01  0.74489986298E+01  0.14200000000E+01 0. -1.
          4   -1    0    0  501    0  0.00000000000E+00 -0.00000000000E+00 -0.16377785370E+02  0.16439229106E+02  0.14200000000E+01 0.  1.
        -11    1    1    2    0    0  0.66037291286E+01  0.80118531735E+01 -0.86224789022E+01  0.13496153984E+02  0.51100000000E-03 0. -1.
         11    1    1    2    0    0 -0.66037291286E+01 -0.80118531735E+01 -0.44290736820E+00  0.10392073752E+02  0.51100000000E-03 0.  1.
<mgrwt>
<rscale>  0 0.22101271E+02</rscale>
<asrwt>0</asrwt>
<pdfrwt beam="2">  1        4 0.25348934E-02 0.22101271E+02</pdfrwt>
<pdfrwt beam="1">  1       -4 0.11402186E-02 0.22101271E+02</pdfrwt>
<totfact> 0.10394551E+06</totfact>
</mgrwt>
</event>
<event>
 4    1  0.5401488E-001  0.2201084E+02  0.7818608E-02  0.1708065E+00
          4   -1    0    0  501    0  0.00000000000E+00  0.00000000000E+00  0.39916405966E+01  0.42366961954E+01  0.14200000000E+01 0. -1.
         -4   -1    0    0    0  501 -0.00000000000E+00 -0.00000000000E+00 -0.29176712879E+02  0.29211247396E+02  0.14200000000E+01 0.  1.
        -11    1    1    2    0    0 -0.33876477798E+01 -0.10108991047E+02 -0.16740662674E+02  0.19847358627E+02  0.51100000000E-03 0.  1.
         11    1    1    2    0    0  0.33876477798E+01  0.10108991047E+02 -0.84444096086E+01  0.13600584964E+02  0.51100000000E-03 0. -1.
<mgrwt>
<rscale>  0 0.22010840E+02</rscale>
<asrwt>0</asrwt>
<pdfrwt beam="1">  1        4 0.63560550E-03 0.22010840E+02</pdfrwt>
<pdfrwt beam="2">  1       -4 0.45102319E-02 0.22010840E+02</pdfrwt>
<totfact> 0.10075636E+06</totfact>
</mgrwt>
</event>
<event>
 4    1  0.5401488E-001  0.2820883E+02  0.7818608E-02  0.1618776E+00
          4   -1    0    0  501    0  0.00000000000E+00  0.00000000000E+00  0.55895344188E+01  0.57670872213E+01  0.14200000000E+01 0. -1.
         -4   -1    0    0    0  501 -0.00000000000E+00 -0.00000000000E+00 -0.34841853023E+02  0.34870777480E+02  0.14200000000E+01 0.  1.
        -11    1    1    2    0    0  0.76210377862E+01  0.11421746679E+02 -0.19271525558E+02  0.23662802280E+02  0.51100000000E-03 0.  1.
         11    1    1    2    0    0 -0.76210377862E+01 -0.11421746679E+02 -0.99807930461E+01  0.16975062422E+02  0.51100000000E-03 0. -1.
<mgrwt>
<rscale>  0 0.28208827E+02</rscale>
<asrwt>0</asrwt>
<pdfrwt beam="1">  1        4 0.87581126E-03 0.28208827E+02</pdfrwt>
<pdfrwt beam="2">  1       -4 0.53761678E-02 0.28208827E+02</pdfrwt>
<totfact> 0.57394851E+05</totfact>
</mgrwt>
</event>
<event>
 4    1  0.5401488E-001  0.2446002E+02  0.7818608E-02  0.1668881E+00
         -4   -1    0    0    0  501 -0.00000000000E+00  0.00000000000E+00  0.68580940980E+02  0.68595640282E+02  0.14200000000E+01 0. -1.
          4   -1    0    0  501    0  0.00000000000E+00 -0.00000000000E+00 -0.19332832678E+01  0.23987463796E+01  0.14200000000E+01 0.  1.
        -11    1    1    2    0    0  0.42714401736E+01  0.11457672897E+02  0.33970858189E+02  0.36104607403E+02  0.51100000000E-03 0.  1.
         11    1    1    2    0    0 -0.42714401736E+01 -0.11457672897E+02  0.32676799523E+02  0.34889779258E+02  0.51100000000E-03 0. -1.
<mgrwt>
<rscale>  0 0.24460022E+02</rscale>
<asrwt>0</asrwt>
<pdfrwt beam="2">  1        4 0.33436375E-03 0.24460022E+02</pdfrwt>
<pdfrwt beam="1">  1       -4 0.10587850E-01 0.24460022E+02</pdfrwt>
<totfact> 0.70637057E+05</totfact>
</mgrwt>
</event>
<event>
 4    1  0.5401488E-001  0.5577799E+02  0.7818608E-02  0.1416455E+00
          4   -1    0    0  501    0  0.00000000000E+00  0.00000000000E+00  0.28014341173E+02  0.28050306796E+02  0.14200000000E+01 0.  1.
         -4   -1    0    0    0  501 -0.00000000000E+00 -0.00000000000E+00 -0.27692232043E+02  0.27728615464E+02  0.14200000000E+01 0. -1.
        -11    1    1    2    0    0  0.21740700918E+02  0.75673603250E+00  0.17613147114E+02  0.27990242538E+02  0.51100000000E-03 0.  1.
         11    1    1    2    0    0 -0.21740700918E+02 -0.75673603250E+00 -0.17291037984E+02  0.27788679721E+02  0.51100000000E-03 0. -1.
<mgrwt>
<rscale>  0 0.55777992E+02</rscale>
<asrwt>0</asrwt>
<pdfrwt beam="1">  1        4 0.43154639E-02 0.55777992E+02</pdfrwt>
<pdfrwt beam="2">  1       -4 0.42659087E-02 0.55777992E+02</pdfrwt>
<totfact> 0.10767235E+05</totfact>
</mgrwt>
</event>
<event>
 4    1  0.5401488E-001  0.3513045E+02  0.7818608E-02  0.1547445E+00
         -4   -1    0    0    0  501 -0.00000000000E+00  0.00000000000E+00  0.29876335445E+01  0.33079229429E+01  0.14200000000E+01 0. -1.
          4   -1    0    0  501    0  0.00000000000E+00 -0.00000000000E+00 -0.97691711805E+02  0.97702031480E+02  0.14200000000E+01 0.  1.
        -11    1    1    2    0    0  0.36906157447E+01  0.16212259130E+02 -0.31066891010E+02  0.35236482628E+02  0.51100000000E-03 0.  1.
         11    1    1    2    0    0 -0.36906157447E+01 -0.16212259130E+02 -0.63637187250E+02  0.65773471796E+02  0.51100000000E-03 0. -1.
<mgrwt>
<rscale>  0 0.35130449E+02</rscale>
<asrwt>0</asrwt>
<pdfrwt beam="2">  1        4 0.15054923E-01 0.35130449E+02</pdfrwt>
<pdfrwt beam="1">  1       -4 0.48506747E-03 0.35130449E+02</pdfrwt>
<totfact> 0.28983035E+05</totfact>
</mgrwt>
</event>
<event>
 4    1  0.5401488E-001  0.4482229E+02  0.7818608E-02  0.1475454E+00
         -4   -1    0    0    0  501 -0.00000000000E+00  0.00000000000E+00  0.56471292191E+01  0.58229261044E+01  0.14200000000E+01 0.  1.
          4   -1    0    0  501    0  0.00000000000E+00 -0.00000000000E+00 -0.87395835997E+02  0.87407371255E+02  0.14200000000E+01 0. -1.
        -11    1    1    2    0    0 -0.88700188155E+01 -0.16308637253E+02 -0.66987280674E+02  0.69512190695E+02  0.51100000000E-03 0. -1.
         11    1    1    2    0    0  0.88700188155E+01  0.16308637253E+02 -0.14761426104E+02  0.23718106664E+02  0.51100000000E-03 0.  1.
<mgrwt>
<rscale>  0 0.44822286E+02</rscale>
<asrwt>0</asrwt>
<pdfrwt beam="2">  1        4 0.13459922E-01 0.44822286E+02</pdfrwt>
<pdfrwt beam="1">  1       -4 0.88319934E-03 0.44822286E+02</pdfrwt>
<totfact> 0.16646620E+05</totfact>
</mgrwt>
</event>
<event>
 4    1  0.5401488E-001  0.2383338E+02  0.7818608E-02  0.1678347E+00
         -4   -1    0    0    0  501 -0.00000000000E+00  0.00000000000E+00  0.69320499525E+02  0.69335042037E+02  0.14200000000E+01 0. -1.
          4   -1    0    0  501    0  0.00000000000E+00 -0.00000000000E+00 -0.17859166752E+01  0.22816437870E+01  0.14200000000E+01 0.  1.
        -11    1    1    2    0    0  0.95335616061E+00  0.11207673953E+02  0.45592445638E+02  0.46959471280E+02  0.51100000000E-03 0.  1.
         11    1    1    2    0    0 -0.95335616061E+00 -0.11207673953E+02  0.21942137211E+02  0.24657214544E+02  0.51100000000E-03 0. -1.
<mgrwt>
<rscale>  0 0.23833376E+02</rscale>
<asrwt>0</asrwt>
<pdfrwt beam="2">  1        4 0.31400792E-03 0.23833376E+02</pdfrwt>
<pdfrwt beam="1">  1       -4 0.10703944E-01 0.23833376E+02</pdfrwt>
<totfact> 0.74480061E+05</totfact>
</mgrwt>
</event>
<event>
 4    1  0.5401488E-001  0.3377161E+02  0.7818608E-02  0.1559788E+00
          4   -1    0    0  501    0  0.00000000000E+00  0.00000000000E+00  0.72997015058E+02  0.73010825275E+02  0.14200000000E+01 0. -1.
         -4   -1    0    0    0  501 -0.00000000000E+00 -0.00000000000E+00 -0.37623375872E+01  0.40213908191E+01  0.14200000000E+01 0.  1.
        -11    1    1    2    0    0 -0.15192846238E+02 -0.56602279690E+01  0.45381435578E+02  0.48190615817E+02  0.51100000000E-03 0. -1.
         11    1    1    2    0    0  0.15192846238E+02  0.56602279690E+01  0.23853241893E+02  0.28841600277E+02  0.51100000000E-03 0.  1.
<mgrwt>
<rscale>  0 0.33771612E+02</rscale>
<asrwt>0</asrwt>
<pdfrwt beam="1">  1        4 0.11251299E-01 0.33771612E+02</pdfrwt>
<pdfrwt beam="2">  1       -4 0.59981068E-03 0.33771612E+02</pdfrwt>
<totfact> 0.33951577E+05</totfact>
</mgrwt>
</event>
<event>
 4    1  0.5401488E-001  0.2342395E+02  0.7818608E-02  0.1684729E+00
         -4   -1    0    0    0  501 -0.00000000000E+00  0.00000000000E+00  0.45372228379E+01  0.47542392746E+01  0.14200000000E+01 0. -1.
          4   -1    0    0  501    0  0.00000000000E+00 -0.00000000000E+00 -0.29291485306E+02  0.29325884666E+02  0.14200000000E+01 0.  1.
        -11    1    1    2    0    0 -0.98200169713E+01  0.61142246588E+01 -0.15041616857E+02  0.18975423959E+02  0.51100000000E-03 0.  1.
         11    1    1    2    0    0  0.98200169713E+01 -0.61142246588E+01 -0.97126456111E+01  0.15104699981E+02  0.51100000000E-03 0. -1.
<mgrwt>
<rscale>  0 0.23423948E+02</rscale>
<asrwt>0</asrwt>
<pdfrwt beam="2">  1        4 0.45257219E-02 0.23423948E+02</pdfrwt>
<pdfrwt beam="1">  1       -4 0.71737398E-03 0.23423948E+02</pdfrwt>
<totfact> 0.88151712E+05</totfact>
</mgrwt>
</event>
<event>
 4    1  0.5401488E-001  0.2649591E+02  0.7818608E-02  0.1640401E+00
          4   -1    0    0  501    0  0.00000000000E+00  0.00000000000E+00  0.33955903283E+02  0.33985581763E+02  0.14200000000E+01 0.  1.
         -4   -1    0    0    0  501 -0.00000000000E+00 -0.00000000000E+00 -0.50385986086E+01  0.52348711482E+01  0.14200000000E+01 0. -1.
        -11    1    1    2    0    0 -0.76902002301E+01  0.10761452666E+02  0.15566673992E+02  0.20427172651E+02  0.51100000000E-03 0.  1.
         11    1    1    2    0    0  0.76902002301E+01 -0.10761452666E+02  0.13350630682E+02  0.18793280260E+02  0.51100000000E-03 0. -1.
<mgrwt>
<rscale>  0 0.26495913E+02</rscale>
<asrwt>0</asrwt>
<pdfrwt beam="1">  1        4 0.52413659E-02 0.26495913E+02</pdfrwt>
<pdfrwt beam="2">  1       -4 0.79254988E-03 0.26495913E+02</pdfrwt>
<totfact> 0.66241527E+05</totfact>
</mgrwt>
</event>
<event>
 4    1  0.5401488E-001  0.2937991E+02  0.7818608E-02  0.1605046E+00
         -4   -1    0    0    0  501 -0.00000000000E+00  0.00000000000E+00  0.28224860403E+02  0.28260558112E+02  0.14200000000E+01 0.  1.
          4   -1    0    0  501    0  0.00000000000E+00 -0.00000000000E+00 -0.75387026653E+01  0.76712735498E+01  0.14200000000E+01 0. -1.
        -11    1    1    2    0    0  0.26746599817E+01 -0.11314282602E+02  0.21324837923E+02  0.24288176331E+02  0.51100000000E-03 0.  1.
         11    1    1    2    0    0 -0.26746599817E+01  0.11314282602E+02 -0.63868018480E+00  0.11643655330E+02  0.51100000000E-03 0. -1.
<mgrwt>
<rscale>  0 0.29379915E+02</rscale>
<asrwt>0</asrwt>
<pdfrwt beam="2">  1        4 0.11727441E-02 0.29379915E+02</pdfrwt>
<pdfrwt beam="1">  1       -4 0.43552300E-02 0.29379915E+02</pdfrwt>
<totfact> 0.53333739E+05</totfact>
</mgrwt>
</event>
<event>
 4    1  0.5401488E-001  0.3747663E+02  0.7818608E-02  0.1527647E+00
         -4   -1    0    0    0  501 -0.00000000000E+00  0.00000000000E+00  0.34292709517E+02  0.34322096760E+02  0.14200000000E+01 0.  1.
          4   -1    0    0  501    0  0.00000000000E+00 -0.00000000000E+00 -0.10155849816E+02  0.10254642144E+02  0.14200000000E+01 0. -1.
        -11    1    1    2    0    0 -0.43934139287E+01 -0.10974007581E+02 -0.52254956549E+01  0.12924269164E+02  0.51100000000E-03 0. -1.
         11    1    1    2    0    0  0.43934139287E+01  0.10974007581E+02  0.29362355355E+02  0.31652469739E+02  0.51100000000E-03 0.  1.
<mgrwt>
<rscale>  0 0.37476628E+02</rscale>
<asrwt>0</asrwt>
<pdfrwt beam="2">  1        4 0.15722984E-02 0.37476628E+02</pdfrwt>
<pdfrwt beam="1">  1       -4 0.52856615E-02 0.37476628E+02</pdfrwt>
<totfact> 0.29514437E+05</totfact>
</mgrwt>
</event>
<event>
 4    1  0.5401488E-001  0.4043635E+02  0.7818608E-02  0.1505025E+00
          4   -1    0    0  501    0  0.00000000000E+00  0.00000000000E+00  0.55609777676E+02  0.55627904626E+02  0.14200000000E+01 0. -1.
         -4   -1    0    0    0  501 -0.00000000000E+00 -0.00000000000E+00 -0.72626743524E+01  0.74001918049E+01  0.14200000000E+01 0.  1.
        -11    1    1    2    0    0  0.17750454284E+02  0.62435159307E+00  0.39229823920E+02  0.43063296753E+02  0.51100000000E-03 0. -1.
         11    1    1    2    0    0 -0.17750454284E+02 -0.62435159307E+00  0.91172794036E+01  0.19964799678E+02  0.51100000000E-03 0.  1.
<mgrwt>
<rscale>  0 0.40436352E+02</rscale>
<asrwt>0</asrwt>
<pdfrwt beam="1">  1        4 0.85673230E-02 0.40436352E+02</pdfrwt>
<pdfrwt beam="2">  1       -4 0.11293072E-02 0.40436352E+02</pdfrwt>
<totfact> 0.23232253E+05</totfact>
</mgrwt>
</event>
<event>
 4    1  0.5401488E-001  0.2957472E+02  0.7818608E-02  0.1602838E+00
         -4   -1    0    0    0  501 -0.00000000000E+00  0.00000000000E+00  0.13918223413E+01  0.19883584761E+01  0.14200000000E+01 0. -1.
          4   -1    0    0  501    0  0.00000000000E+00 -0.00000000000E+00 -0.12878015141E+03  0.12878798002E+03  0.14200000000E+01 0.  1.
        -11    1    1    2    0    0  0.11893401845E+02  0.86063631831E+01 -0.55854071861E+02  0.57751189065E+02  0.51100000000E-03 0. -1.
         11    1    1    2    0    0 -0.11893401845E+02 -0.86063631831E+01 -0.71534257209E+02  0.73025149431E+02  0.51100000000E-03 0.  1.
<mgrwt>
<rscale>  0 0.29574724E+02</rscale>
<asrwt>0</asrwt>
<pdfrwt beam="2">  1        4 0.19858813E-01 0.29574724E+02</pdfrwt>
<pdfrwt beam="1">  1       -4 0.26061621E-03 0.29574724E+02</pdfrwt>
<totfact> 0.39546924E+05</totfact>
</mgrwt>
</event>
<event>
 4    1  0.5401488E-001  0.2145896E+02  0.7818608E-02  0.1717780E+00
         -4   -1    0    0    0  501 -0.00000000000E+00  0.00000000000E+00  0.11809020373E+01  0.18468702233E+01  0.14200000000E+01 0.  1.
          4   -1    0    0  501    0  0.00000000000E+00 -0.00000000000E+00 -0.75369747319E+02  0.75383122852E+02  0.14200000000E+01 0. -1.
        -11    1    1    2    0    0 -0.10378782614E+02  0.16384384617E+01 -0.44911843237E+02  0.46124584252E+02  0.51100000000E-03 0. -1.
         11    1    1    2    0    0  0.10378782614E+02 -0.16384384617E+01 -0.29277002044E+02  0.31105408823E+02  0.51100000000E-03 0.  1.
<mgrwt>
<rscale>  0 0.21458962E+02</rscale>
<asrwt>0</asrwt>
<pdfrwt beam="2">  1        4 0.11647600E-01 0.21458962E+02</pdfrwt>
<pdfrwt beam="1">  1       -4 0.23393450E-03 0.21458962E+02</pdfrwt>
<totfact> 0.91033828E+05</totfact>
</mgrwt>
</event>
<event>
 4    1  0.5401488E-001  0.2174499E+02  0.7818608E-02  0.1712700E+00
         -4   -1    0    0    0  501 -0.00000000000E+00  0.00000000000E+00  0.15110403670E+02  0.15176979248E+02  0.14200000000E+01 0. -1.
          4   -1    0    0  501    0  0.00000000000E+00 -0.00000000000E+00 -0.76741111450E+01  0.78043822219E+01  0.14200000000E+01 0.  1.
        -11    1    1    2    0    0 -0.62347184777E+01 -0.87831473562E+01  0.52842012771E+01  0.11997423697E+02  0.51100000000E-03 0. -1.
         11    1    1    2    0    0  0.62347184777E+01  0.87831473562E+01  0.21520912481E+01  0.10983937772E+02  0.51100000000E-03 0.  1.
<mgrwt>
<rscale>  0 0.21744989E+02</rscale>
<asrwt>0</asrwt>
<pdfrwt beam="2">  1        4 0.11957745E-02 0.21744989E+02</pdfrwt>
<pdfrwt beam="1">  1       -4 0.23398195E-02 0.21744989E+02</pdfrwt>
<totfact> 0.10797663E+06</totfact>
</mgrwt>
</event>
<event>
 4    1  0.5401488E-001  0.2370004E+02  0.7818608E-02  0.1680408E+00
         -4   -1    0    0    0  501 -0.00000000000E+00  0.00000000000E+00  0.30898261346E+02  0.30930873803E+02  0.14200000000E+01 0.  1.
          4   -1    0    0  501    0  0.00000000000E+00 -0.00000000000E+00 -0.43978380737E+01  0.46214045184E+01  0.14200000000E+01 0. -1.
        -11    1    1    2    0    0 -0.10644460520E+02  0.87759209022E+00  0.20950281283E+02  0.23515718015E+02  0.51100000000E-03 0.  1.
         11    1    1    2    0    0  0.10644460520E+02 -0.87759209022E+00  0.55501419888E+01  0.12036560306E+02  0.51100000000E-03 0. -1.
<mgrwt>
<rscale>  0 0.23700043E+02</rscale>
<asrwt>0</asrwt>
<pdfrwt beam="2">  1        4 0.69629655E-03 0.23700043E+02</pdfrwt>
<pdfrwt beam="1">  1       -4 0.47732847E-02 0.23700043E+02</pdfrwt>
<totfact> 0.85489112E+05</totfact>
</mgrwt>
</event>
<event>
 4    1  0.5401488E-001  0.2059489E+02  0.7818608E-02  0.1733750E+00
          4   -1    0    0  501    0  0.00000000000E+00  0.00000000000E+00  0.33925930282E+01  0.36777829538E+01  0.14200000000E+01 0.  1.
         -4   -1    0    0    0  501 -0.00000000000E+00 -0.00000000000E+00 -0.29691987344E+02  0.29725923240E+02  0.14200000000E+01 0. -1.
        -11    1    1    2    0    0 -0.90984115916E+01 -0.48222503185E+01 -0.13225246070E+02  0.16761334240E+02  0.51100000000E-03 0.  1.
         11    1    1    2    0    0  0.90984115916E+01  0.48222503185E+01 -0.13074148246E+02  0.16642371954E+02  0.51100000000E-03 0. -1.
<mgrwt>
<rscale>  0 0.20594889E+02</rscale>
<asrwt>0</asrwt>
<pdfrwt beam="1">  1        4 0.54648555E-03 0.20594889E+02</pdfrwt>
<pdfrwt beam="2">  1       -4 0.45925460E-02 0.20594889E+02</pdfrwt>
<totfact> 0.11567396E+06</totfact>
</mgrwt>
</event>
<event>
 4    1  0.5401488E-001  0.6969996E+02  0.7818608E-02  0.1361116E+00
          4   -1    0    0  501    0  0.00000000000E+00  0.00000000000E+00  0.39151096307E+02  0.39176839358E+02  0.14200000000E+01 0.  1.
         -4   -1    0    0    0  501 -0.00000000000E+00 -0.00000000000E+00 -0.30969170636E+02  0.31001708499E+02  0.14200000000E+01 0. -1.
        -11    1    1    2    0    0  0.17171546104E+02 -0.21251393007E+02  0.25873684785E+02  0.37628862127E+02  0.51100000000E-03 0.  1.
         11    1    1    2    0    0 -0.17171546104E+02  0.21251393007E+02 -0.17691759113E+02  0.32549685730E+02  0.51100000000E-03 0. -1.
<mgrwt>
<rscale>  0 0.69699962E+02</rscale>
<asrwt>0</asrwt>
<pdfrwt beam="1">  1        4 0.60277287E-02 0.69699962E+02</pdfrwt>
<pdfrwt beam="2">  1       -4 0.47689709E-02 0.69699962E+02</pdfrwt>
<totfact> 0.58273986E+04</totfact>
</mgrwt>
</event>
<event>
 4    1  0.5401488E-001  0.3630352E+02  0.7818608E-02  0.1537321E+00
          4   -1    0    0  501    0  0.00000000000E+00  0.00000000000E+00  0.29940421260E+01  0.33137121559E+01  0.14200000000E+01 0.  1.
         -4   -1    0    0    0  501 -0.00000000000E+00 -0.00000000000E+00 -0.10414553473E+03  0.10415521497E+03  0.14200000000E+01 0. -1.
        -11    1    1    2    0    0  0.15342383302E+02 -0.59596974407E+01 -0.73233030622E+02  0.75059866063E+02  0.51100000000E-03 0. -1.
         11    1    1    2    0    0 -0.15342383302E+02  0.59596974407E+01 -0.27918461985E+02  0.32409061060E+02  0.51100000000E-03 0.  1.
<mgrwt>
<rscale>  0 0.36303524E+02</rscale>
<asrwt>0</asrwt>
<pdfrwt beam="1">  1        4 0.48595658E-03 0.36303524E+02</pdfrwt>
<pdfrwt beam="2">  1       -4 0.16047722E-01 0.36303524E+02</pdfrwt>
<totfact> 0.26404231E+05</totfact>
</mgrwt>
</event>
<event>
 4    1  0.5401488E-001  0.2340852E+02  0.7818608E-02  0.1684972E+00
          4   -1    0    0  501    0  0.00000000000E+00  0.00000000000E+00  0.14955594093E+02  0.15022855743E+02  0.14200000000E+01 0. -1.
         -4   -1    0    0    0  501 -0.00000000000E+00 -0.00000000000E+00 -0.90162583316E+01  0.91273936205E+01  0.14200000000E+01 0.  1.
        -11    1    1    2    0    0  0.10923222596E+02  0.29022187019E+01 -0.16809075557E+00  0.11303447264E+02  0.51100000000E-03 0. -1.
         11    1    1    2    0    0 -0.10923222596E+02 -0.29022187019E+01  0.61074265174E+01  0.12846802100E+02  0.51100000000E-03 0.  1.
<mgrwt>
<rscale>  0 0.23408521E+02</rscale>
<asrwt>0</asrwt>
<pdfrwt beam="1">  1        4 0.23145834E-02 0.23408521E+02</pdfrwt>
<pdfrwt beam="2">  1       -4 0.14008395E-02 0.23408521E+02</pdfrwt>
<totfact> 0.91937806E+05</totfact>
</mgrwt>
</event>
<event>
 4    1  0.5401488E-001  0.3064381E+02  0.7818608E-02  0.1591079E+00
          4   -1    0    0  501    0  0.00000000000E+00  0.00000000000E+00  0.31752252947E+02  0.31783989165E+02  0.14200000000E+01 0. -1.
         -4   -1    0    0    0  501 -0.00000000000E+00 -0.00000000000E+00 -0.72895407295E+01  0.74265607145E+01  0.14200000000E+01 0.  1.
        -11    1    1    2    0    0 -0.24216758953E+01  0.97503937053E+01  0.27033701183E+02  0.28840174955E+02  0.51100000000E-03 0. -1.
         11    1    1    2    0    0  0.24216758953E+01 -0.97503937053E+01 -0.25709889648E+01  0.10370374924E+02  0.51100000000E-03 0.  1.
<mgrwt>
<rscale>  0 0.30643807E+02</rscale>
<asrwt>0</asrwt>
<pdfrwt beam="1">  1        4 0.48979433E-02 0.30643807E+02</pdfrwt>
<pdfrwt beam="2">  1       -4 0.11344490E-02 0.30643807E+02</pdfrwt>
<totfact> 0.47910184E+05</totfact>
</mgrwt>
</event>
<event>
 4    1  0.5401488E-001  0.2446647E+02  0.7818608E-02  0.1668786E+00
          4   -1    0    0  501    0  0.00000000000E+00  0.00000000000E+00  0.11263931443E+03  0.11264826477E+03  0.14200000000E+01 0.  1.
         -4   -1    0    0    0  501 -0.00000000000E+00 -0.00000000000E+00 -0.93755990342E+00  0.17015929515E+01  0.14200000000E+01 0. -1.
        -11    1    1    2    0    0 -0.12083840600E+02  0.15949047432E+01  0.50973424568E+02  0.52410427753E+02  0.51100000000E-03 0.  1.
         11    1    1    2    0    0  0.12083840600E+02 -0.15949047432E+01  0.60728329956E+02  0.61939429964E+02  0.51100000000E-03 0. -1.
<mgrwt>
<rscale>  0 0.24466467E+02</rscale>
<asrwt>0</asrwt>
<pdfrwt beam="1">  1        4 0.17388587E-01 0.24466467E+02</pdfrwt>
<pdfrwt beam="2">  1       -4 0.20370023E-03 0.24466467E+02</pdfrwt>
<totfact> 0.62202819E+05</totfact>
</mgrwt>
</event>
<event>
 4    1  0.5401488E-001  0.2893399E+02  0.7818608E-02  0.1610180E+00
          4   -1    0    0  501    0  0.00000000000E+00  0.00000000000E+00  0.51726225771E+01  0.53639933189E+01  0.14200000000E+01 0. -1.
         -4   -1    0    0    0  501 -0.00000000000E+00 -0.00000000000E+00 -0.39522624775E+02  0.39548125988E+02  0.14200000000E+01 0.  1.
        -11    1    1    2    0    0  0.10290647191E+02  0.79621375287E+01 -0.26992256440E+02  0.29964561762E+02  0.51100000000E-03 0.  1.
         11    1    1    2    0    0 -0.10290647191E+02 -0.79621375287E+01 -0.73577457581E+01  0.14947557544E+02  0.51100000000E-03 0. -1.
<mgrwt>
<rscale>  0 0.28933991E+02</rscale>
<asrwt>0</asrwt>
<pdfrwt beam="1">  1        4 0.81247057E-03 0.28933991E+02</pdfrwt>
<pdfrwt beam="2">  1       -4 0.60970861E-02 0.28933991E+02</pdfrwt>
<totfact> 0.53421924E+05</totfact>
</mgrwt>
</event>
<event>
 4    1  0.5401488E-001  0.3088418E+02  0.7818608E-02  0.1588516E+00
         -4   -1    0    0    0  501 -0.00000000000E+00  0.00000000000E+00  0.64849729905E+02  0.64865274753E+02  0.14200000000E+01 0. -1.
          4   -1    0    0  501    0  0.00000000000E+00 -0.00000000000E+00 -0.35233936282E+01  0.37987764687E+01  0.14200000000E+01 0.  1.
        -11    1    1    2    0    0 -0.47491373473E+00 -0.15432939999E+02  0.30132731884E+02  0.33858273894E+02  0.51100000000E-03 0.  1.
         11    1    1    2    0    0  0.47491373473E+00  0.15432939999E+02  0.31193604393E+02  0.34805777327E+02  0.51100000000E-03 0. -1.
<mgrwt>
<rscale>  0 0.30884177E+02</rscale>
<asrwt>0</asrwt>
<pdfrwt beam="2">  1        4 0.56443961E-03 0.30884177E+02</pdfrwt>
<pdfrwt beam="1">  1       -4 0.99992606E-02 0.30884177E+02</pdfrwt>
<totfact> 0.42669026E+05</totfact>
</mgrwt>
</event>
<event>
 4    1  0.5401488E-001  0.2274000E+02  0.7818608E-02  0.1695760E+00
         -4   -1    0    0    0  501 -0.00000000000E+00  0.00000000000E+00  0.76534239373E+01  0.77840412360E+01  0.14200000000E+01 0. -1.
          4   -1    0    0  501    0  0.00000000000E+00 -0.00000000000E+00 -0.16587248202E+02  0.16647918876E+02  0.14200000000E+01 0.  1.
        -11    1    1    2    0    0 -0.10839709242E+02  0.81200716031E+00 -0.88441878374E+00  0.10906000592E+02  0.51100000000E-03 0.  1.
         11    1    1    2    0    0  0.10839709242E+02 -0.81200716031E+00 -0.80494054811E+01  0.13525959520E+02  0.51100000000E-03 0. -1.
<mgrwt>
<rscale>  0 0.22739997E+02</rscale>
<asrwt>0</asrwt>
<pdfrwt beam="2">  1        4 0.25665988E-02 0.22739997E+02</pdfrwt>
<pdfrwt beam="1">  1       -4 0.11921643E-02 0.22739997E+02</pdfrwt>
<totfact> 0.97654637E+05</totfact>
</mgrwt>
</event>
<event>
 4    1  0.5401488E-001  0.6120772E+02  0.7818608E-02  0.1392832E+00
         -4   -1    0    0    0  501 -0.00000000000E+00  0.00000000000E+00  0.75902131485E+02  0.75915413217E+02  0.14200000000E+01 0. -1.
          4   -1    0    0  501    0  0.00000000000E+00 -0.00000000000E+00 -0.12284261218E+02  0.12366061365E+02  0.14200000000E+01 0.  1.
        -11    1    1    2    0    0 -0.17497594427E+02  0.16545836230E+02  0.45697503224E+01  0.24511489664E+02  0.51100000000E-03 0.  1.
         11    1    1    2    0    0  0.17497594427E+02 -0.16545836230E+02  0.59048119944E+02  0.63769984918E+02  0.51100000000E-03 0. -1.
<mgrwt>
<rscale>  0 0.61207723E+02</rscale>
<asrwt>0</asrwt>
<pdfrwt beam="2">  1        4 0.18972003E-02 0.61207723E+02</pdfrwt>
<pdfrwt beam="1">  1       -4 0.11684565E-01 0.61207723E+02</pdfrwt>
<totfact> 0.77737815E+04</totfact>
</mgrwt>
</event>
<event>
 4    1  0.5401488E-001  0.6536874E+02  0.7818608E-02  0.1376590E+00
         -4   -1    0    0    0  501 -0.00000000000E+00  0.00000000000E+00  0.35000386051E+01  0.37771245991E+01  0.14200000000E+01 0. -1.
          4   -1    0    0  501    0  0.00000000000E+00 -0.00000000000E+00 -0.29331577766E+03  0.29331921489E+03  0.14200000000E+01 0.  1.
        -11    1    1    2    0    0  0.31500986224E+02  0.64576554452E+01 -0.17150818944E+03  0.17449662602E+03  0.51100000000E-03 0.  1.
         11    1    1    2    0    0 -0.31500986224E+02 -0.64576554452E+01 -0.11830754961E+03  0.12259971347E+03  0.51100000000E-03 0. -1.
<mgrwt>
<rscale>  0 0.65368741E+02</rscale>
<asrwt>0</asrwt>
<pdfrwt beam="2">  1        4 0.45147064E-01 0.65368741E+02</pdfrwt>
<pdfrwt beam="1">  1       -4 0.56004642E-03 0.65368741E+02</pdfrwt>
<totfact> 0.42467341E+04</totfact>
</mgrwt>
</event>
<event>
 4    1  0.5401488E-001  0.5366027E+02  0.7818608E-02  0.1426543E+00
          4   -1    0    0  501    0  0.00000000000E+00  0.00000000000E+00  0.22125508815E+02  0.22171029302E+02  0.14200000000E+01 0.  1.
         -4   -1    0    0    0  501 -0.00000000000E+00 -0.00000000000E+00 -0.32440620118E+02  0.32471683566E+02  0.14200000000E+01 0. -1.
        -11    1    1    2    0    0 -0.21792884581E+02  0.66347554321E-02  0.10779096361E+02  0.24312934439E+02  0.51100000000E-03 0.  1.
         11    1    1    2    0    0  0.21792884581E+02 -0.66347554321E-02 -0.21094207664E+02  0.30329778430E+02  0.51100000000E-03 0. -1.
<mgrwt>
<rscale>  0 0.53660270E+02</rscale>
<asrwt>0</asrwt>
<pdfrwt beam="1">  1        4 0.34098155E-02 0.53660270E+02</pdfrwt>
<pdfrwt beam="2">  1       -4 0.49967557E-02 0.53660270E+02</pdfrwt>
<totfact> 0.11912805E+05</totfact>
</mgrwt>
</event>
<event>
 4    1  0.5401488E-001  0.3135770E+02  0.7818608E-02  0.1583548E+00
         -4   -1    0    0    0  501 -0.00000000000E+00  0.00000000000E+00  0.53158967924E+02  0.53177930298E+02  0.14200000000E+01 0. -1.
          4   -1    0    0  501    0  0.00000000000E+00 -0.00000000000E+00 -0.44950788903E+01  0.47140358749E+01  0.14200000000E+01 0.  1.
        -11    1    1    2    0    0 -0.14068815177E+02 -0.66737936197E+01  0.27713696129E+02  0.31788677782E+02  0.51100000000E-03 0.  1.
         11    1    1    2    0    0  0.14068815177E+02  0.66737936197E+01  0.20950192905E+02  0.26103288390E+02  0.51100000000E-03 0. -1.
<mgrwt>
<rscale>  0 0.31357705E+02</rscale>
<asrwt>0</asrwt>
<pdfrwt beam="2">  1        4 0.70985210E-03 0.31357705E+02</pdfrwt>
<pdfrwt beam="1">  1       -4 0.81966041E-02 0.31357705E+02</pdfrwt>
<totfact> 0.42657863E+05</totfact>
</mgrwt>
</event>
<event>
 4    1  0.5401488E-001  0.2436762E+02  0.7818608E-02  0.1670255E+00
         -4   -1    0    0    0  501 -0.00000000000E+00  0.00000000000E+00  0.38456214675E+01  0.40994151377E+01  0.14200000000E+01 0. -1.
          4   -1    0    0  501    0  0.00000000000E+00 -0.00000000000E+00 -0.37100226696E+02  0.37127391787E+02  0.14200000000E+01 0.  1.
        -11    1    1    2    0    0 -0.12179770840E+02  0.15300294855E+00 -0.16164020337E+02  0.20239708035E+02  0.51100000000E-03 0.  1.
         11    1    1    2    0    0  0.12179770840E+02 -0.15300294855E+00 -0.17090584891E+02  0.20987098889E+02  0.51100000000E-03 0. -1.
<mgrwt>
<rscale>  0 0.24367619E+02</rscale>
<asrwt>0</asrwt>
<pdfrwt beam="2">  1        4 0.57293392E-02 0.24367619E+02</pdfrwt>
<pdfrwt beam="1">  1       -4 0.61324631E-03 0.24367619E+02</pdfrwt>
<totfact> 0.78851530E+05</totfact>
</mgrwt>
</event>
<event>
 4    1  0.5401488E-001  0.2138408E+02  0.7818608E-02  0.1719127E+00
          4   -1    0    0  501    0  0.00000000000E+00  0.00000000000E+00  0.41434557393E+02  0.41458882599E+02  0.14200000000E+01 0.  1.
         -4   -1    0    0    0  501 -0.00000000000E+00 -0.00000000000E+00 -0.25494632114E+01  0.29182465054E+01  0.14200000000E+01 0. -1.
        -11    1    1    2    0    0  0.86580551306E+01  0.62735387178E+01  0.19393765217E+02  0.22145819837E+02  0.51100000000E-03 0. -1.
         11    1    1    2    0    0 -0.86580551306E+01 -0.62735387178E+01  0.19491328965E+02  0.22231309268E+02  0.51100000000E-03 0.  1.
<mgrwt>
<rscale>  0 0.21384084E+02</rscale>
<asrwt>0</asrwt>
<pdfrwt beam="1">  1        4 0.64047864E-02 0.21384084E+02</pdfrwt>
<pdfrwt beam="2">  1       -4 0.42246423E-03 0.21384084E+02</pdfrwt>
<totfact> 0.10257030E+06</totfact>
</mgrwt>
</event>
<event>
 4    1  0.5401488E-001  0.2713235E+02  0.7818608E-02  0.1632137E+00
          4   -1    0    0  501    0  0.00000000000E+00  0.00000000000E+00  0.79200862524E+02  0.79213591161E+02  0.14200000000E+01 0. -1.
         -4   -1    0    0    0  501 -0.00000000000E+00 -0.00000000000E+00 -0.20926438485E+01  0.25289441031E+01  0.14200000000E+01 0.  1.
        -11    1    1    2    0    0 -0.66001631999E+01  0.11462798270E+02  0.47634024289E+02  0.49436405297E+02  0.51100000000E-03 0. -1.
         11    1    1    2    0    0  0.66001631999E+01 -0.11462798270E+02  0.29474194386E+02  0.32306129967E+02  0.51100000000E-03 0.  1.
<mgrwt>
<rscale>  0 0.27132355E+02</rscale>
<asrwt>0</asrwt>
<pdfrwt beam="1">  1        4 0.12219288E-01 0.27132355E+02</pdfrwt>
<pdfrwt beam="2">  1       -4 0.35648592E-03 0.27132355E+02</pdfrwt>
<totfact> 0.54640997E+05</totfact>
</mgrwt>
</event>
<event>
 4    1  0.5401488E-001  0.3395417E+02  0.7818608E-02  0.1558089E+00
         -4   -1    0    0    0  501 -0.00000000000E+00  0.00000000000E+00  0.56726127464E+02  0.56743897796E+02  0.14200000000E+01 0.  1.
          4   -1    0    0  501    0  0.00000000000E+00 -0.00000000000E+00 -0.49627678124E+01  0.51619244822E+01  0.14200000000E+01 0. -1.
        -11    1    1    2    0    0  0.14893336431E+02 -0.67256429467E+00  0.11074557630E+02  0.18571743045E+02  0.51100000000E-03 0. -1.
         11    1    1    2    0    0 -0.14893336431E+02  0.67256429467E+00  0.40688802021E+02  0.43334079232E+02  0.51100000000E-03 0.  1.
<mgrwt>
<rscale>  0 0.33954167E+02</rscale>
<asrwt>0</asrwt>
<pdfrwt beam="2">  1        4 0.78018946E-03 0.33954167E+02</pdfrwt>
<pdfrwt beam="1">  1       -4 0.87437829E-02 0.33954167E+02</pdfrwt>
<totfact> 0.35116468E+05</totfact>
</mgrwt>
</event>
<event>
 4    1  0.5401488E-001  0.2174412E+02  0.7818608E-02  0.1712715E+00
         -4   -1    0    0    0  501 -0.00000000000E+00  0.00000000000E+00  0.18442224898E+01  0.23275645194E+01  0.14200000000E+01 0. -1.
          4   -1    0    0  501    0  0.00000000000E+00 -0.00000000000E+00 -0.56173842762E+02  0.56191787751E+02  0.14200000000E+01 0.  1.
        -11    1    1    2    0    0  0.10111280630E+02  0.28091515109E+01 -0.34811248157E+02  0.36358662334E+02  0.51100000000E-03 0.  1.
         11    1    1    2    0    0 -0.10111280630E+02 -0.28091515109E+01 -0.19518372115E+02  0.22160689936E+02  0.51100000000E-03 0. -1.
<mgrwt>
<rscale>  0 0.21744125E+02</rscale>
<asrwt>0</asrwt>
<pdfrwt beam="2">  1        4 0.86806890E-02 0.21744125E+02</pdfrwt>
<pdfrwt beam="1">  1       -4 0.32228712E-03 0.21744125E+02</pdfrwt>
<totfact> 0.94202345E+05</totfact>
</mgrwt>
</event>
<event>
 4    1  0.5401488E-001  0.3130941E+02  0.7818608E-02  0.1584050E+00
          4   -1    0    0  501    0  0.00000000000E+00  0.00000000000E+00  0.28953921985E+02  0.28988721916E+02  0.14200000000E+01 0. -1.
         -4   -1    0    0    0  501 -0.00000000000E+00 -0.00000000000E+00 -0.83643707368E+01  0.84840496122E+01  0.14200000000E+01 0.  1.
        -11    1    1    2    0    0  0.68688334693E+01  0.74985878492E+01  0.24539848292E+02  0.26563392996E+02  0.51100000000E-03 0. -1.
         11    1    1    2    0    0 -0.68688334693E+01 -0.74985878492E+01 -0.39502970444E+01  0.10909378532E+02  0.51100000000E-03 0.  1.
<mgrwt>
<rscale>  0 0.31309407E+02</rscale>
<asrwt>0</asrwt>
<pdfrwt beam="1">  1        4 0.44663327E-02 0.31309407E+02</pdfrwt>
<pdfrwt beam="2">  1       -4 0.12987092E-02 0.31309407E+02</pdfrwt>
<totfact> 0.45913340E+05</totfact>
</mgrwt>
</event>
<event>
 4    1  0.5401488E-001  0.3128525E+02  0.7818608E-02  0.1584301E+00
         -4   -1    0    0    0  501 -0.00000000000E+00  0.00000000000E+00  0.29183647251E+02  0.29218173571E+02  0.14200000000E+01 0. -1.
          4   -1    0    0  501    0  0.00000000000E+00 -0.00000000000E+00 -0.82846250732E+01  0.84054394652E+01  0.14200000000E+01 0.  1.
        -11    1    1    2    0    0  0.15570572458E+02 -0.12267783049E+01  0.94121549697E+01  0.18235579867E+02  0.51100000000E-03 0. -1.
         11    1    1    2    0    0 -0.15570572458E+02  0.12267783049E+01  0.11486867208E+02  0.19388033169E+02  0.51100000000E-03 0.  1.
<mgrwt>
<rscale>  0 0.31285254E+02</rscale>
<asrwt>0</asrwt>
<pdfrwt beam="2">  1        4 0.12865070E-02 0.31285254E+02</pdfrwt>
<pdfrwt beam="1">  1       -4 0.45017413E-02 0.31285254E+02</pdfrwt>
<totfact> 0.45968919E+05</totfact>
</mgrwt>
</event>
<event>
 4    1  0.5401488E-001  0.2264762E+02  0.7818608E-02  0.1697287E+00
         -4   -1    0    0    0  501 -0.00000000000E+00  0.00000000000E+00  0.91021828907E+01  0.92122816596E+01  0.14200000000E+01 0.  1.
          4   -1    0    0  501    0  0.00000000000E+00 -0.00000000000E+00 -0.13856389159E+02  0.13928959779E+02  0.14200000000E+01 0. -1.
        -11    1    1    2    0    0 -0.10856138535E+02 -0.71129992156E+00  0.83253194085E+00  0.10911223632E+02  0.51100000000E-03 0.  1.
         11    1    1    2    0    0  0.10856138535E+02  0.71129992156E+00 -0.55867382089E+01  0.12230017806E+02  0.51100000000E-03 0. -1.
<mgrwt>
<rscale>  0 0.22647617E+02</rscale>
<asrwt>0</asrwt>
<pdfrwt beam="2">  1        4 0.21458037E-02 0.22647617E+02</pdfrwt>
<pdfrwt beam="1">  1       -4 0.14143873E-02 0.22647617E+02</pdfrwt>
<totfact> 0.99048909E+05</totfact>
</mgrwt>
</event>
<event>
 4    1  0.5401488E-001  0.3315518E+02  0.7818608E-02  0.1565621E+00
          4   -1    0    0  501    0  0.00000000000E+00  0.00000000000E+00  0.13343297220E+02  0.13418643028E+02  0.14200000000E+01 0.  1.
         -4   -1    0    0    0  501 -0.00000000000E+00 -0.00000000000E+00 -0.20437815298E+02  0.20487086034E+02  0.14200000000E+01 0. -1.
        -11    1    1    2    0    0  0.12491047139E+02 -0.86381349117E+01 -0.10343985085E+02  0.18375028193E+02  0.51100000000E-03 0. -1.
         11    1    1    2    0    0 -0.12491047139E+02  0.86381349117E+01  0.32494670073E+01  0.15530700869E+02  0.51100000000E-03 0.  1.
<mgrwt>
<rscale>  0 0.33155185E+02</rscale>
<asrwt>0</asrwt>
<pdfrwt beam="1">  1        4 0.20624009E-02 0.33155185E+02</pdfrwt>
<pdfrwt beam="2">  1       -4 0.31538652E-02 0.33155185E+02</pdfrwt>
<totfact> 0.40789567E+05</totfact>
</mgrwt>
</event>
<event>
 4    1  0.5401488E-001  0.1018081E+03  0.7818608E-02  0.1276539E+00
         -4   -1    0    0    0  501 -0.00000000000E+00  0.00000000000E+00  0.32048330157E+02  0.32079773469E+02  0.14200000000E+01 0. -1.
          4   -1    0    0  501    0  0.00000000000E+00 -0.00000000000E+00 -0.80776266025E+02  0.80788746450E+02  0.14200000000E+01 0.  1.
        -11    1    1    2    0    0 -0.32334828609E+02  0.25714226788E+02  0.86068406145E+01  0.42200003627E+02  0.51100000000E-03 0. -1.
         11    1    1    2    0    0  0.32334828609E+02 -0.25714226788E+02 -0.57334776483E+02  0.70668516293E+02  0.51100000000E-03 0.  1.
<mgrwt>
<rscale>  0 0.10180811E+03</rscale>
<asrwt>0</asrwt>
<pdfrwt beam="2">  1        4 0.12430497E-01 0.10180811E+03</pdfrwt>
<pdfrwt beam="1">  1       -4 0.49338911E-02 0.10180811E+03</pdfrwt>
<totfact> 0.19009241E+04</totfact>
</mgrwt>
</event>
<event>
 4    1  0.5401488E-001  0.3207798E+02  0.7818608E-02  0.1576193E+00
         -4   -1    0    0    0  501 -0.00000000000E+00  0.00000000000E+00  0.18992264078E+03  0.18992794918E+03  0.14200000000E+01 0. -1.
          4   -1    0    0  501    0  0.00000000000E+00 -0.00000000000E+00 -0.97552239758E+00  0.17228011923E+01  0.14200000000E+01 0.  1.
        -11    1    1    2    0    0  0.26217970735E+01  0.15823240054E+02  0.94592694730E+02  0.95942830072E+02  0.51100000000E-03 0. -1.
         11    1    1    2    0    0 -0.26217970735E+01 -0.15823240054E+02  0.94354423652E+02  0.95707920303E+02  0.51100000000E-03 0.  1.
<mgrwt>
<rscale>  0 0.32077976E+02</rscale>
<asrwt>0</asrwt>
<pdfrwt beam="2">  1        4 0.20797173E-03 0.32077976E+02</pdfrwt>
<pdfrwt beam="1">  1       -4 0.29276754E-01 0.32077976E+02</pdfrwt>
<totfact> 0.28609730E+05</totfact>
</mgrwt>
</event>
<event>
 4    1  0.5401488E-001  0.2776129E+02  0.7818608E-02  0.1624240E+00
         -4   -1    0    0    0  501 -0.00000000000E+00  0.00000000000E+00  0.12146444254E+02  0.12229166284E+02  0.14200000000E+01 0.  1.
          4   -1    0    0  501    0  0.00000000000E+00 -0.00000000000E+00 -0.15693731628E+02  0.15757842885E+02  0.14200000000E+01 0. -1.
        -11    1    1    2    0    0  0.20378929951E+01 -0.99651851756E+01 -0.11295779073E+02  0.15200412777E+02  0.51100000000E-03 0. -1.
         11    1    1    2    0    0 -0.20378929951E+01  0.99651851756E+01  0.77484916997E+01  0.12786596393E+02  0.51100000000E-03 0.  1.
<mgrwt>
<rscale>  0 0.27761294E+02</rscale>
<asrwt>0</asrwt>
<pdfrwt beam="2">  1        4 0.24257151E-02 0.27761294E+02</pdfrwt>
<pdfrwt beam="1">  1       -4 0.18799786E-02 0.27761294E+02</pdfrwt>
<totfact> 0.62399090E+05</totfact>
</mgrwt>
</event>
<event>
 4    1  0.5401488E-001  0.2536950E+02  0.7818608E-02  0.1655751E+00
         -4   -1    0    0    0  501 -0.00000000000E+00  0.00000000000E+00  0.10442045932E+03  0.10443011407E+03  0.14200000000E+01 0.  1.
          4   -1    0    0  501    0  0.00000000000E+00 -0.00000000000E+00 -0.12019469345E+01  0.18603968484E+01  0.14200000000E+01 0. -1.
        -11    1    1    2    0    0 -0.28246958467E+01 -0.11937128783E+02  0.38079127370E+02  0.40006173171E+02  0.51100000000E-03 0.  1.
         11    1    1    2    0    0  0.28246958467E+01  0.11937128783E+02  0.65139385018E+02  0.66284337751E+02  0.51100000000E-03 0. -1.
<mgrwt>
<rscale>  0 0.25369498E+02</rscale>
<asrwt>0</asrwt>
<pdfrwt beam="2">  1        4 0.23630749E-03 0.25369498E+02</pdfrwt>
<pdfrwt beam="1">  1       -4 0.16116085E-01 0.25369498E+02</pdfrwt>
<totfact> 0.58869356E+05</totfact>
</mgrwt>
</event>
<event>
 4    1  0.5401488E-001  0.2107412E+02  0.7818608E-02  0.1724775E+00
         -4   -1    0    0    0  501 -0.00000000000E+00  0.00000000000E+00  0.11264325816E+01  0.18125259615E+01  0.14200000000E+01 0.  1.
          4   -1    0    0  501    0  0.00000000000E+00 -0.00000000000E+00 -0.74862736423E+02  0.74876202526E+02  0.14200000000E+01 0. -1.
        -11    1    1    2    0    0 -0.52332035126E+01  0.90543229744E+01 -0.32176156314E+02  0.33833004876E+02  0.51100000000E-03 0.  1.
         11    1    1    2    0    0  0.52332035126E+01 -0.90543229744E+01 -0.41560147527E+02  0.42855723611E+02  0.51100000000E-03 0. -1.
<mgrwt>
<rscale>  0 0.21074121E+02</rscale>
<asrwt>0</asrwt>
<pdfrwt beam="2">  1        4 0.11571153E-01 0.21074121E+02</pdfrwt>
<pdfrwt beam="1">  1       -4 0.22710965E-03 0.21074121E+02</pdfrwt>
<totfact> 0.94630917E+05</totfact>
</mgrwt>
</event>
<event>
 4    1  0.5401488E-001  0.2809223E+02  0.7818608E-02  0.1620187E+00
         -4   -1    0    0    0  501 -0.00000000000E+00  0.00000000000E+00  0.30613448066E+01  0.33746454665E+01  0.14200000000E+01 0.  1.
          4   -1    0    0  501    0  0.00000000000E+00 -0.00000000000E+00 -0.60987422848E+02  0.61003951885E+02  0.14200000000E+01 0. -1.
        -11    1    1    2    0    0  0.13984417462E+02  0.44995970356E+00 -0.26131229345E+02  0.29641314796E+02  0.51100000000E-03 0. -1.
         11    1    1    2    0    0 -0.13984417462E+02 -0.44995970356E+00 -0.31794848697E+02  0.34737282556E+02  0.51100000000E-03 0.  1.
<mgrwt>
<rscale>  0 0.28092228E+02</rscale>
<asrwt>0</asrwt>
<pdfrwt beam="2">  1        4 0.94080511E-02 0.28092228E+02</pdfrwt>
<pdfrwt beam="1">  1       -4 0.49634769E-03 0.28092228E+02</pdfrwt>
<totfact> 0.53425501E+05</totfact>
</mgrwt>
</event>
<event>
 4    1  0.5401488E-001  0.2936033E+02  0.7818608E-02  0.1605269E+00
         -4   -1    0    0    0  501 -0.00000000000E+00  0.00000000000E+00  0.42455455448E+01  0.44767239107E+01  0.14200000000E+01 0.  1.
          4   -1    0    0  501    0  0.00000000000E+00 -0.00000000000E+00 -0.49173716744E+02  0.49194215295E+02  0.14200000000E+01 0. -1.
        -11    1    1    2    0    0  0.74036531031E+01 -0.89244457695E+01 -0.60071880806E+01  0.13059330781E+02  0.51100000000E-03 0.  1.
         11    1    1    2    0    0 -0.74036531031E+01  0.89244457695E+01 -0.38920983119E+02  0.40611608424E+02  0.51100000000E-03 0. -1.
<mgrwt>
<rscale>  0 0.29360333E+02</rscale>
<asrwt>0</asrwt>
<pdfrwt beam="2">  1        4 0.75845466E-02 0.29360333E+02</pdfrwt>
<pdfrwt beam="1">  1       -4 0.67252065E-03 0.29360333E+02</pdfrwt>
<totfact> 0.50174121E+05</totfact>
</mgrwt>
</event>
<event>
 4    1  0.5401488E-001  0.2768943E+02  0.7818608E-02  0.1625129E+00
          4   -1    0    0  501    0  0.00000000000E+00  0.00000000000E+00  0.36172464258E+02  0.36200325558E+02  0.14200000000E+01 0.  1.
         -4   -1    0    0    0  501 -0.00000000000E+00 -0.00000000000E+00 -0.51733399173E+01  0.53646850700E+01  0.14200000000E+01 0. -1.
        -11    1    1    2    0    0 -0.11264788936E+02  0.39281666798E+01  0.26044841694E+02  0.28647159412E+02  0.51100000000E-03 0.  1.
         11    1    1    2    0    0  0.11264788936E+02 -0.39281666798E+01  0.49542826467E+01  0.12917851216E+02  0.51100000000E-03 0. -1.
<mgrwt>
<rscale>  0 0.27689428E+02</rscale>
<asrwt>0</asrwt>
<pdfrwt beam="1">  1        4 0.55818564E-02 0.27689428E+02</pdfrwt>
<pdfrwt beam="2">  1       -4 0.81276050E-03 0.27689428E+02</pdfrwt>
<totfact> 0.59605331E+05</totfact>
</mgrwt>
</event>
<event>
 4    1  0.5401488E-001  0.3068671E+02  0.7818608E-02  0.1590620E+00
          4   -1    0    0  501    0  0.00000000000E+00  0.00000000000E+00  0.27801492270E+02  0.27837732889E+02  0.14200000000E+01 0. -1.
         -4   -1    0    0    0  501 -0.00000000000E+00 -0.00000000000E+00 -0.83662186485E+01  0.84858714623E+01  0.14200000000E+01 0.  1.
        -11    1    1    2    0    0  0.14782524817E+02 -0.32502396600E+01  0.12696096291E+02  0.19755453907E+02  0.51100000000E-03 0. -1.
         11    1    1    2    0    0 -0.14782524817E+02  0.32502396600E+01  0.67391773305E+01  0.16568150444E+02  0.51100000000E-03 0.  1.
<mgrwt>
<rscale>  0 0.30686713E+02</rscale>
<asrwt>0</asrwt>
<pdfrwt beam="1">  1        4 0.42891444E-02 0.30686713E+02</pdfrwt>
<pdfrwt beam="2">  1       -4 0.12991024E-02 0.30686713E+02</pdfrwt>
<totfact> 0.48264202E+05</totfact>
</mgrwt>
</event>
<event>
 4    1  0.5401488E-001  0.2395878E+02  0.7818608E-02  0.1676424E+00
          4   -1    0    0  501    0  0.00000000000E+00  0.00000000000E+00  0.91437726248E+01  0.92533765628E+01  0.14200000000E+01 0.  1.
         -4   -1    0    0    0  501 -0.00000000000E+00 -0.00000000000E+00 -0.15458533038E+02  0.15523615677E+02  0.14200000000E+01 0. -1.
        -11    1    1    2    0    0  0.97002938869E+01 -0.57141549352E+01  0.10761404914E+01  0.11309524603E+02  0.51100000000E-03 0.  1.
         11    1    1    2    0    0 -0.97002938869E+01  0.57141549352E+01 -0.73909009046E+01  0.13467467637E+02  0.51100000000E-03 0. -1.
<mgrwt>
<rscale>  0 0.23958780E+02</rscale>
<asrwt>0</asrwt>
<pdfrwt beam="1">  1        4 0.14201717E-02 0.23958780E+02</pdfrwt>
<pdfrwt beam="2">  1       -4 0.23916733E-02 0.23958780E+02</pdfrwt>
<totfact> 0.87253025E+05</totfact>
</mgrwt>
</event>
<event>
 4    1  0.5401488E-001  0.2178277E+02  0.7818608E-02  0.1712036E+00
         -4   -1    0    0    0  501 -0.00000000000E+00  0.00000000000E+00  0.17137989997E+01  0.22256475488E+01  0.14200000000E+01 0.  1.
          4   -1    0    0  501    0  0.00000000000E+00 -0.00000000000E+00 -0.59701396165E+02  0.59718281155E+02  0.14200000000E+01 0. -1.
        -11    1    1    2    0    0 -0.10805063953E+02  0.13417310774E+01 -0.28227736086E+02  0.30254829930E+02  0.51100000000E-03 0. -1.
         11    1    1    2    0    0  0.10805063953E+02 -0.13417310774E+01 -0.29759861079E+02  0.31689098773E+02  0.51100000000E-03 0.  1.
<mgrwt>
<rscale>  0 0.21782766E+02</rscale>
<asrwt>0</asrwt>
<pdfrwt beam="2">  1        4 0.92255006E-02 0.21782766E+02</pdfrwt>
<pdfrwt beam="1">  1       -4 0.30433324E-03 0.21782766E+02</pdfrwt>
<totfact> 0.92770337E+05</totfact>
</mgrwt>
</event>
<event>
 4    1  0.5401488E-001  0.2482880E+02  0.7818608E-02  0.1663473E+00
          4   -1    0    0  501    0  0.00000000000E+00  0.00000000000E+00  0.13652132844E+01  0.19698241830E+01  0.14200000000E+01 0.  1.
         -4   -1    0    0    0  501 -0.00000000000E+00 -0.00000000000E+00 -0.91812029428E+02  0.91823009903E+02  0.14200000000E+01 0. -1.
        -11    1    1    2    0    0  0.73605581678E+01  0.93475437269E+01 -0.31834073777E+02  0.33984741337E+02  0.51100000000E-03 0. -1.
         11    1    1    2    0    0 -0.73605581678E+01 -0.93475437269E+01 -0.58612742367E+02  0.59808092749E+02  0.51100000000E-03 0.  1.
<mgrwt>
<rscale>  0 0.24828797E+02</rscale>
<asrwt>0</asrwt>
<pdfrwt beam="1">  1        4 0.25738607E-03 0.24828797E+02</pdfrwt>
<pdfrwt beam="2">  1       -4 0.14172277E-01 0.24828797E+02</pdfrwt>
<totfact> 0.63857638E+05</totfact>
</mgrwt>
</event>
<event>
 4    1  0.5401488E-001  0.2110829E+02  0.7818608E-02  0.1724146E+00
         -4   -1    0    0    0  501 -0.00000000000E+00  0.00000000000E+00  0.20482966494E+01  0.24923721961E+01  0.14200000000E+01 0. -1.
          4   -1    0    0  501    0  0.00000000000E+00 -0.00000000000E+00 -0.48607777309E+02  0.48628514422E+02  0.14200000000E+01 0.  1.
        -11    1    1    2    0    0 -0.46610228330E+00  0.10069433024E+02 -0.30853254911E+02  0.32458189593E+02  0.51100000000E-03 0.  1.
         11    1    1    2    0    0  0.46610228330E+00 -0.10069433024E+02 -0.15706225748E+02  0.18662697026E+02  0.51100000000E-03 0. -1.
<mgrwt>
<rscale>  0 0.21108288E+02</rscale>
<asrwt>0</asrwt>
<pdfrwt beam="2">  1        4 0.75138736E-02 0.21108288E+02</pdfrwt>
<pdfrwt beam="1">  1       -4 0.35087742E-03 0.21108288E+02</pdfrwt>
<totfact> 0.10278255E+06</totfact>
</mgrwt>
</event>
<event>
 4    1  0.5401488E-001  0.7794214E+02  0.7818608E-02  0.1334995E+00
          4   -1    0    0  501    0  0.00000000000E+00  0.00000000000E+00  0.23035118582E+03  0.23035556257E+03  0.14200000000E+01 0.  1.
         -4   -1    0    0    0  501 -0.00000000000E+00 -0.00000000000E+00 -0.65122195713E+01  0.66652384612E+01  0.14200000000E+01 0. -1.
        -11    1    1    2    0    0 -0.31447274036E+02  0.13620808828E+02  0.16834484449E+03  0.17179768376E+03  0.51100000000E-03 0.  1.
         11    1    1    2    0    0  0.31447274036E+02 -0.13620808828E+02  0.55494121756E+02  0.65223117276E+02  0.51100000000E-03 0. -1.
<mgrwt>
<rscale>  0 0.77942141E+02</rscale>
<asrwt>0</asrwt>
<pdfrwt beam="1">  1        4 0.35450753E-01 0.77942141E+02</pdfrwt>
<pdfrwt beam="2">  1       -4 0.10139872E-02 0.77942141E+02</pdfrwt>
<totfact> 0.30147247E+04</totfact>
</mgrwt>
</event>
<event>
 4    1  0.5401488E-001  0.4877219E+02  0.7818608E-02  0.1452079E+00
         -4   -1    0    0    0  501 -0.00000000000E+00  0.00000000000E+00  0.17449190942E+02  0.17506874779E+02  0.14200000000E+01 0. -1.
          4   -1    0    0  501    0  0.00000000000E+00 -0.00000000000E+00 -0.33951963129E+02  0.33981645050E+02  0.14200000000E+01 0.  1.
        -11    1    1    2    0    0 -0.16679177630E+02 -0.17176318818E+02 -0.13141957780E+02  0.27311754779E+02  0.51100000000E-03 0.  1.
         11    1    1    2    0    0  0.16679177630E+02  0.17176318818E+02 -0.33608144069E+01  0.24176765050E+02  0.51100000000E-03 0. -1.
<mgrwt>
<rscale>  0 0.48772187E+02</rscale>
<asrwt>0</asrwt>
<pdfrwt beam="2">  1        4 0.52300994E-02 0.48772187E+02</pdfrwt>
<pdfrwt beam="1">  1       -4 0.26912114E-02 0.48772187E+02</pdfrwt>
<totfact> 0.15263243E+05</totfact>
</mgrwt>
</event>
<event>
 4    1  0.5401488E-001  0.2267416E+02  0.7818608E-02  0.1696847E+00
          4   -1    0    0  501    0  0.00000000000E+00  0.00000000000E+00  0.84339899928E+01  0.85526947331E+01  0.14200000000E+01 0. -1.
         -4   -1    0    0    0  501 -0.00000000000E+00 -0.00000000000E+00 -0.14980447449E+02  0.15047598007E+02  0.14200000000E+01 0.  1.
        -11    1    1    2    0    0 -0.50648582358E+00 -0.11312671629E+02 -0.38398544419E+01  0.11957322011E+02  0.51100000000E-03 0. -1.
         11    1    1    2    0    0  0.50648582358E+00  0.11312671629E+02 -0.27066030146E+01  0.11642970730E+02  0.51100000000E-03 0.  1.
<mgrwt>
<rscale>  0 0.22674164E+02</rscale>
<asrwt>0</asrwt>
<pdfrwt beam="1">  1        4 0.13118335E-02 0.22674164E+02</pdfrwt>
<pdfrwt beam="2">  1       -4 0.23189808E-02 0.22674164E+02</pdfrwt>
<totfact> 0.98607415E+05</totfact>
</mgrwt>
</event>
<event>
 4    1  0.5401488E-001  0.2607794E+02  0.7818608E-02  0.1645985E+00
          4   -1    0    0  501    0  0.00000000000E+00  0.00000000000E+00  0.37102019920E+02  0.37129183699E+02  0.14200000000E+01 0.  1.
         -4   -1    0    0    0  501 -0.00000000000E+00 -0.00000000000E+00 -0.44427714835E+01  0.46641846506E+01  0.14200000000E+01 0. -1.
        -11    1    1    2    0    0  0.79395083643E+01  0.93034136556E+01  0.90865954699E+01  0.15236650426E+02  0.51100000000E-03 0. -1.
         11    1    1    2    0    0 -0.79395083643E+01 -0.93034136556E+01  0.23572652967E+02  0.26556717924E+02  0.51100000000E-03 0.  1.
<mgrwt>
<rscale>  0 0.26077943E+02</rscale>
<asrwt>0</asrwt>
<pdfrwt beam="1">  1        4 0.57271242E-02 0.26077943E+02</pdfrwt>
<pdfrwt beam="2">  1       -4 0.70262463E-03 0.26077943E+02</pdfrwt>
<totfact> 0.67937870E+05</totfact>
</mgrwt>
</event>
<event>
 4    1  0.5401488E-001  0.3439369E+02  0.7818608E-02  0.1554052E+00
         -4   -1    0    0    0  501 -0.00000000000E+00  0.00000000000E+00  0.13382243769E+02  0.13457371522E+02  0.14200000000E+01 0. -1.
          4   -1    0    0  501    0  0.00000000000E+00 -0.00000000000E+00 -0.21938792684E+02  0.21984699781E+02  0.14200000000E+01 0.  1.
        -11    1    1    2    0    0  0.13319307630E+02  0.53265190983E+01 -0.14051877493E+02  0.20080613108E+02  0.51100000000E-03 0.  1.
         11    1    1    2    0    0 -0.13319307630E+02 -0.53265190983E+01  0.54953285776E+01  0.15361458195E+02  0.51100000000E-03 0. -1.
<mgrwt>
<rscale>  0 0.34393690E+02</rscale>
<asrwt>0</asrwt>
<pdfrwt beam="2">  1        4 0.33845093E-02 0.34393690E+02</pdfrwt>
<pdfrwt beam="1">  1       -4 0.20681171E-02 0.34393690E+02</pdfrwt>
<totfact> 0.37260979E+05</totfact>
</mgrwt>
</event>
<event>
 4    1  0.5401488E-001  0.2433759E+02  0.7818608E-02  0.1670703E+00
          4   -1    0    0  501    0  0.00000000000E+00  0.00000000000E+00  0.15779423987E+02  0.15843188485E+02  0.14200000000E+01 0. -1.
         -4   -1    0    0    0  501 -0.00000000000E+00 -0.00000000000E+00 -0.92473557503E+01  0.93557462756E+01  0.14200000000E+01 0.  1.
        -11    1    1    2    0    0 -0.11705788700E+02  0.27539465874E+01  0.13373446219E+01  0.12099512461E+02  0.51100000000E-03 0.  1.
         11    1    1    2    0    0  0.11705788700E+02 -0.27539465874E+01  0.51947236152E+01  0.13099422300E+02  0.51100000000E-03 0. -1.
<mgrwt>
<rscale>  0 0.24337592E+02</rscale>
<asrwt>0</asrwt>
<pdfrwt beam="1">  1        4 0.24408464E-02 0.24337592E+02</pdfrwt>
<pdfrwt beam="2">  1       -4 0.14359128E-02 0.24337592E+02</pdfrwt>
<totfact> 0.84215536E+05</totfact>
</mgrwt>
</event>
<event>
 4    1  0.5401488E-001  0.2178255E+02  0.7818608E-02  0.1712040E+00
          4   -1    0    0  501    0  0.00000000000E+00  0.00000000000E+00  0.79417736798E+02  0.79430430680E+02  0.14200000000E+01 0.  1.
         -4   -1    0    0    0  501 -0.00000000000E+00 -0.00000000000E+00 -0.11403503991E+01  0.18212081245E+01  0.14200000000E+01 0. -1.
        -11    1    1    2    0    0 -0.64274192159E+01  0.87735215140E+01  0.41292816769E+02  0.42701090319E+02  0.51100000000E-03 0.  1.
         11    1    1    2    0    0  0.64274192159E+01 -0.87735215140E+01  0.36984569630E+02  0.38550548485E+02  0.51100000000E-03 0. -1.
<mgrwt>
<rscale>  0 0.21782552E+02</rscale>
<asrwt>0</asrwt>
<pdfrwt beam="1">  1        4 0.12271464E-01 0.21782552E+02</pdfrwt>
<pdfrwt beam="2">  1       -4 0.22878864E-03 0.21782552E+02</pdfrwt>
<totfact> 0.87177220E+05</totfact>
</mgrwt>
</event>
<event>
 4    1  0.5401488E-001  0.3092986E+02  0.7818608E-02  0.1588032E+00
          4   -1    0    0  501    0  0.00000000000E+00  0.00000000000E+00  0.10713607265E+03  0.10714548270E+03  0.14200000000E+01 0.  1.
         -4   -1    0    0    0  501 -0.00000000000E+00 -0.00000000000E+00 -0.19960381312E+01  0.24496057277E+01  0.14200000000E+01 0. -1.
        -11    1    1    2    0    0  0.15126490398E+02  0.32308145134E+00  0.41226317165E+02  0.43914966932E+02  0.51100000000E-03 0. -1.
         11    1    1    2    0    0 -0.15126490398E+02 -0.32308145134E+00  0.63913717350E+02  0.65680121492E+02  0.51100000000E-03 0.  1.
<mgrwt>
<rscale>  0 0.30929865E+02</rscale>
<asrwt>0</asrwt>
<pdfrwt beam="1">  1        4 0.16518083E-01 0.30929865E+02</pdfrwt>
<pdfrwt beam="2">  1       -4 0.34269652E-03 0.30929865E+02</pdfrwt>
<totfact> 0.37816044E+05</totfact>
</mgrwt>
</event>
<event>
 4    1  0.5401488E-001  0.3365556E+02  0.7818608E-02  0.1560874E+00
          4   -1    0    0  501    0  0.00000000000E+00  0.00000000000E+00  0.93784492883E+01  0.94853419049E+01  0.14200000000E+01 0.  1.
         -4   -1    0    0    0  501 -0.00000000000E+00 -0.00000000000E+00 -0.29899192720E+02  0.29932893701E+02  0.14200000000E+01 0. -1.
        -11    1    1    2    0    0 -0.67234284960E+01  0.13071142842E+02 -0.19855475412E+02  0.24704233848E+02  0.51100000000E-03 0. -1.
         11    1    1    2    0    0  0.67234284960E+01 -0.13071142842E+02 -0.66526801995E+00  0.14714001758E+02  0.51100000000E-03 0.  1.
<mgrwt>
<rscale>  0 0.33655555E+02</rscale>
<asrwt>0</asrwt>
<pdfrwt beam="1">  1        4 0.14536533E-02 0.33655555E+02</pdfrwt>
<pdfrwt beam="2">  1       -4 0.46106907E-02 0.33655555E+02</pdfrwt>
<totfact> 0.38626664E+05</totfact>
</mgrwt>
</event>
<event>
 4    1  0.5401488E-001  0.2784164E+02  0.7818608E-02  0.1623250E+00
          4   -1    0    0  501    0  0.00000000000E+00  0.00000000000E+00  0.31314874279E+01  0.34384027558E+01  0.14200000000E+01 0. -1.
         -4   -1    0    0    0  501 -0.00000000000E+00 -0.00000000000E+00 -0.58677254145E+02  0.58694433757E+02  0.14200000000E+01 0.  1.
        -11    1    1    2    0    0  0.72550093122E+01 -0.11502287250E+02 -0.21133385362E+02  0.25130812745E+02  0.51100000000E-03 0. -1.
         11    1    1    2    0    0 -0.72550093122E+01  0.11502287250E+02 -0.34412381356E+02  0.37002023768E+02  0.51100000000E-03 0.  1.
<mgrwt>
<rscale>  0 0.27841645E+02</rscale>
<asrwt>0</asrwt>
<pdfrwt beam="1">  1        4 0.50669772E-03 0.27841645E+02</pdfrwt>
<pdfrwt beam="2">  1       -4 0.90521995E-02 0.27841645E+02</pdfrwt>
<totfact> 0.54886330E+05</totfact>
</mgrwt>
</event>
<event>
 4    1  0.5401488E-001  0.3195705E+02  0.7818608E-02  0.1577412E+00
         -4   -1    0    0    0  501 -0.00000000000E+00  0.00000000000E+00  0.48166999733E+02  0.48187926531E+02  0.14200000000E+01 0.  1.
          4   -1    0    0  501    0  0.00000000000E+00 -0.00000000000E+00 -0.51829867291E+01  0.53739884103E+01  0.14200000000E+01 0. -1.
        -11    1    1    2    0    0  0.10352901878E+02 -0.12143780039E+02  0.22852991701E+02  0.27873162735E+02  0.51100000000E-03 0. -1.
         11    1    1    2    0    0 -0.10352901878E+02  0.12143780039E+02  0.20131021303E+02  0.25688752205E+02  0.51100000000E-03 0.  1.
<mgrwt>
<rscale>  0 0.31957055E+02</rscale>
<asrwt>0</asrwt>
<pdfrwt beam="2">  1        4 0.81368479E-03 0.31957055E+02</pdfrwt>
<pdfrwt beam="1">  1       -4 0.74266096E-02 0.31957055E+02</pdfrwt>
<totfact> 0.41444277E+05</totfact>
</mgrwt>
</event>
<event>
 4    1  0.5401488E-001  0.3322729E+02  0.7818608E-02  0.1564931E+00
         -4   -1    0    0    0  501 -0.00000000000E+00  0.00000000000E+00  0.22199743207E+02  0.22245111788E+02  0.14200000000E+01 0. -1.
          4   -1    0    0  501    0  0.00000000000E+00 -0.00000000000E+00 -0.12334336448E+02  0.12415806684E+02  0.14200000000E+01 0.  1.
        -11    1    1    2    0    0 -0.14694903042E+02  0.71193389454E+01  0.81289020811E+01  0.18240181242E+02  0.51100000000E-03 0.  1.
         11    1    1    2    0    0  0.14694903042E+02 -0.71193389454E+01  0.17365046783E+01  0.16420737230E+02  0.51100000000E-03 0. -1.
<mgrwt>
<rscale>  0 0.33227293E+02</rscale>
<asrwt>0</asrwt>
<pdfrwt beam="2">  1        4 0.19073471E-02 0.33227293E+02</pdfrwt>
<pdfrwt beam="1">  1       -4 0.34251019E-02 0.33227293E+02</pdfrwt>
<totfact> 0.40473004E+05</totfact>
</mgrwt>
</event>
<event>
 4    1  0.5401488E-001  0.2307366E+02  0.7818608E-02  0.1690319E+00
         -4   -1    0    0    0  501 -0.00000000000E+00  0.00000000000E+00  0.47695956631E+02  0.47717090009E+02  0.14200000000E+01 0.  1.
          4   -1    0    0  501    0  0.00000000000E+00 -0.00000000000E+00 -0.25867028708E+01  0.29508357700E+01  0.14200000000E+01 0. -1.
        -11    1    1    2    0    0  0.71841578775E+01  0.77709438292E+01  0.12468014148E+02  0.16353931315E+02  0.51100000000E-03 0. -1.
         11    1    1    2    0    0 -0.71841578775E+01 -0.77709438292E+01  0.32641239612E+02  0.34313994464E+02  0.51100000000E-03 0.  1.
<mgrwt>
<rscale>  0 0.23073663E+02</rscale>
<asrwt>0</asrwt>
<pdfrwt beam="2">  1        4 0.42759017E-03 0.23073663E+02</pdfrwt>
<pdfrwt beam="1">  1       -4 0.73674752E-02 0.23073663E+02</pdfrwt>
<totfact> 0.85540667E+05</totfact>
</mgrwt>
</event>
<event>
 4    1  0.5401488E-001  0.3139218E+02  0.7818608E-02  0.1583191E+00
         -4   -1    0    0    0  501 -0.00000000000E+00  0.00000000000E+00  0.47772652651E+01  0.49838402275E+01  0.14200000000E+01 0. -1.
          4   -1    0    0  501    0  0.00000000000E+00 -0.00000000000E+00 -0.50262565858E+02  0.50282620522E+02  0.14200000000E+01 0.  1.
        -11    1    1    2    0    0 -0.34505634076E+01 -0.94860256533E+01 -0.15815467943E+01  0.10217258000E+02  0.51100000000E-03 0. -1.
         11    1    1    2    0    0  0.34505634076E+01  0.94860256533E+01 -0.43903753798E+02  0.45049202749E+02  0.51100000000E-03 0.  1.
<mgrwt>
<rscale>  0 0.31392182E+02</rscale>
<asrwt>0</asrwt>
<pdfrwt beam="2">  1        4 0.77501351E-02 0.31392182E+02</pdfrwt>
<pdfrwt beam="1">  1       -4 0.75239697E-03 0.31392182E+02</pdfrwt>
<totfact> 0.42918073E+05</totfact>
</mgrwt>
</event>
<event>
 4    1  0.5401488E-001  0.3078723E+02  0.7818608E-02  0.1589546E+00
          4   -1    0    0  501    0  0.00000000000E+00  0.00000000000E+00  0.46420944268E+01  0.48544248544E+01  0.14200000000E+01 0.  1.
         -4   -1    0    0    0  501 -0.00000000000E+00 -0.00000000000E+00 -0.49682606920E+02  0.49702895593E+02  0.14200000000E+01 0. -1.
        -11    1    1    2    0    0  0.82725028037E+01  0.11961691664E+02 -0.13581014959E+02  0.19898752164E+02  0.51100000000E-03 0. -1.
         11    1    1    2    0    0 -0.82725028037E+01 -0.11961691664E+02 -0.31459497534E+02  0.34658568283E+02  0.51100000000E-03 0.  1.
<mgrwt>
<rscale>  0 0.30787229E+02</rscale>
<asrwt>0</asrwt>
<pdfrwt beam="1">  1        4 0.73206219E-03 0.30787229E+02</pdfrwt>
<pdfrwt beam="2">  1       -4 0.76613714E-02 0.30787229E+02</pdfrwt>
<totfact> 0.44958050E+05</totfact>
</mgrwt>
</event>
<event>
 4    1  0.5401488E-001  0.1679065E+03  0.7818608E-02  0.1180049E+00
         -4   -1    0    0    0  501 -0.00000000000E+00  0.00000000000E+00  0.19331560288E+03  0.19332081812E+03  0.14200000000E+01 0. -1.
          4   -1    0    0  501    0  0.00000000000E+00 -0.00000000000E+00 -0.36439739288E+02  0.36467396389E+02  0.14200000000E+01 0.  1.
        -11    1    1    2    0    0  0.26580907155E+02  0.24025245816E+02  0.18234305273E+03  0.18582988442E+03  0.51100000000E-03 0. -1.
         11    1    1    2    0    0 -0.26580907155E+02 -0.24025245816E+02 -0.25467189137E+02  0.43958330092E+02  0.51100000000E-03 0.  1.
<mgrwt>
<rscale>  0 0.16790648E+03</rscale>
<asrwt>0</asrwt>
<pdfrwt beam="2">  1        4 0.56086423E-02 0.16790648E+03</pdfrwt>
<pdfrwt beam="1">  1       -4 0.29743391E-01 0.16790648E+03</pdfrwt>
<totfact> 0.36821305E+03</totfact>
</mgrwt>
</event>
<event>
 4    1  0.5401488E-001  0.1028803E+03  0.7818608E-02  0.1274353E+00
         -4   -1    0    0    0  501 -0.00000000000E+00  0.00000000000E+00  0.46744285654E+02  0.46765849093E+02  0.14200000000E+01 0.  1.
          4   -1    0    0  501    0  0.00000000000E+00 -0.00000000000E+00 -0.56564261625E+02  0.56582082793E+02  0.14200000000E+01 0. -1.
        -11    1    1    2    0    0  0.50156577753E+02  0.35944831797E+01 -0.15798448988E+02  0.52708572282E+02  0.51100000000E-03 0.  1.
         11    1    1    2    0    0 -0.50156577753E+02 -0.35944831797E+01  0.59784730174E+01  0.50639359604E+02  0.51100000000E-03 0. -1.
<mgrwt>
<rscale>  0 0.10288033E+03</rscale>
<asrwt>0</asrwt>
<pdfrwt beam="2">  1        4 0.87052237E-02 0.10288033E+03</pdfrwt>
<pdfrwt beam="1">  1       -4 0.71944581E-02 0.10288033E+03</pdfrwt>
<totfact> 0.18868938E+04</totfact>
</mgrwt>
</event>
<event>
 4    1  0.5401488E-001  0.2412092E+02  0.7818608E-02  0.1673959E+00
          4   -1    0    0  501    0  0.00000000000E+00  0.00000000000E+00  0.48852296287E+01  0.50874225817E+01  0.14200000000E+01 0.  1.
         -4   -1    0    0    0  501 -0.00000000000E+00 -0.00000000000E+00 -0.28950755273E+02  0.28985559006E+02  0.14200000000E+01 0. -1.
        -11    1    1    2    0    0  0.49716436260E+01  0.10894938642E+02 -0.14049212641E+02  0.18460696207E+02  0.51100000000E-03 0. -1.
         11    1    1    2    0    0 -0.49716436260E+01 -0.10894938642E+02 -0.10016313003E+02  0.15612285380E+02  0.51100000000E-03 0.  1.
<mgrwt>
<rscale>  0 0.24120915E+02</rscale>
<asrwt>0</asrwt>
<pdfrwt beam="1">  1        4 0.76980432E-03 0.24120915E+02</pdfrwt>
<pdfrwt beam="2">  1       -4 0.44721928E-02 0.24120915E+02</pdfrwt>
<totfact> 0.82816282E+05</totfact>
</mgrwt>
</event>
<event>
 4    1  0.5401488E-001  0.2245151E+02  0.7818608E-02  0.1700558E+00
         -4   -1    0    0    0  501 -0.00000000000E+00  0.00000000000E+00  0.11287476385E+01  0.18139656092E+01  0.14200000000E+01 0. -1.
          4   -1    0    0  501    0  0.00000000000E+00 -0.00000000000E+00 -0.84954670564E+02  0.84966537241E+02  0.14200000000E+01 0.  1.
        -11    1    1    2    0    0  0.10066686970E+02 -0.49634557766E+01 -0.42719122045E+02  0.44168964991E+02  0.51100000000E-03 0.  1.
         11    1    1    2    0    0 -0.10066686970E+02  0.49634557766E+01 -0.41106800881E+02  0.42611537859E+02  0.51100000000E-03 0. -1.
<mgrwt>
<rscale>  0 0.22451510E+02</rscale>
<asrwt>0</asrwt>
<pdfrwt beam="2">  1        4 0.13123567E-01 0.22451510E+02</pdfrwt>
<pdfrwt beam="1">  1       -4 0.22727545E-03 0.22451510E+02</pdfrwt>
<totfact> 0.80529429E+05</totfact>
</mgrwt>
</event>
<event>
 4    1  0.5401488E-001  0.5162332E+02  0.7818608E-02  0.1436777E+00
          4   -1    0    0  501    0  0.00000000000E+00  0.00000000000E+00  0.13989745696E+02  0.14061628093E+02  0.14200000000E+01 0. -1.
         -4   -1    0    0    0  501 -0.00000000000E+00 -0.00000000000E+00 -0.47419009825E+02  0.47440266576E+02  0.14200000000E+01 0.  1.
        -11    1    1    2    0    0 -0.22243329190E+02 -0.10256746582E+02 -0.70158237411E+01  0.25479174377E+02  0.51100000000E-03 0. -1.
         11    1    1    2    0    0  0.22243329190E+02  0.10256746582E+02 -0.26413440388E+02  0.36022720292E+02  0.51100000000E-03 0.  1.
<mgrwt>
<rscale>  0 0.51623322E+02</rscale>
<asrwt>0</asrwt>
<pdfrwt beam="1">  1        4 0.21594331E-02 0.51623322E+02</pdfrwt>
<pdfrwt beam="2">  1       -4 0.73023968E-02 0.51623322E+02</pdfrwt>
<totfact> 0.12863376E+05</totfact>
</mgrwt>
</event>
<event>
 4    1  0.5401488E-001  0.3677234E+02  0.7818608E-02  0.1533402E+00
          4   -1    0    0  501    0  0.00000000000E+00  0.00000000000E+00  0.10373948663E+03  0.10374920475E+03  0.14200000000E+01 0. -1.
         -4   -1    0    0    0  501 -0.00000000000E+00 -0.00000000000E+00 -0.30936110534E+01  0.34039432060E+01  0.14200000000E+01 0.  1.
        -11    1    1    2    0    0  0.14884179151E+02  0.88317558807E+01  0.32239349769E+02  0.36591178920E+02  0.51100000000E-03 0.  1.
         11    1    1    2    0    0 -0.14884179151E+02 -0.88317558807E+01  0.68406525808E+02  0.70561969037E+02  0.51100000000E-03 0. -1.
<mgrwt>
<rscale>  0 0.36772338E+02</rscale>
<asrwt>0</asrwt>
<pdfrwt beam="1">  1        4 0.15984538E-01 0.36772338E+02</pdfrwt>
<pdfrwt beam="2">  1       -4 0.50055947E-03 0.36772338E+02</pdfrwt>
<totfact> 0.25649753E+05</totfact>
</mgrwt>
</event>
<event>
 4    1  0.5401488E-001  0.3459414E+02  0.7818608E-02  0.1552234E+00
         -4   -1    0    0    0  501 -0.00000000000E+00  0.00000000000E+00  0.74020853843E+02  0.74034473076E+02  0.14200000000E+01 0.  1.
          4   -1    0    0  501    0  0.00000000000E+00 -0.00000000000E+00 -0.39027979235E+01  0.41530990395E+01  0.14200000000E+01 0. -1.
        -11    1    1    2    0    0 -0.14313977481E+02 -0.66744897517E+01  0.19117451129E+02  0.24797493879E+02  0.51100000000E-03 0. -1.
         11    1    1    2    0    0  0.14313977481E+02  0.66744897517E+01  0.51000604791E+02  0.53390078236E+02  0.51100000000E-03 0.  1.
<mgrwt>
<rscale>  0 0.34594142E+02</rscale>
<asrwt>0</asrwt>
<pdfrwt beam="2">  1        4 0.62073201E-03 0.34594142E+02</pdfrwt>
<pdfrwt beam="1">  1       -4 0.11408125E-01 0.34594142E+02</pdfrwt>
<totfact> 0.32017752E+05</totfact>
</mgrwt>
</event>
<event>
 4    1  0.5401488E-001  0.3228087E+02  0.7818608E-02  0.1574164E+00
         -4   -1    0    0    0  501 -0.00000000000E+00  0.00000000000E+00  0.78503673915E+02  0.78516515576E+02  0.14200000000E+01 0.  1.
          4   -1    0    0  501    0  0.00000000000E+00 -0.00000000000E+00 -0.31528539506E+01  0.34578733398E+01  0.14200000000E+01 0. -1.
        -11    1    1    2    0    0  0.50424041784E+01  0.10771831332E+02  0.99672586431E+01  0.15517874702E+02  0.51100000000E-03 0. -1.
         11    1    1    2    0    0 -0.50424041784E+01 -0.10771831332E+02  0.65383561321E+02  0.66456514214E+02  0.51100000000E-03 0.  1.
<mgrwt>
<rscale>  0 0.32280867E+02</rscale>
<asrwt>0</asrwt>
<pdfrwt beam="2">  1        4 0.50950529E-03 0.32280867E+02</pdfrwt>
<pdfrwt beam="1">  1       -4 0.12101940E-01 0.32280867E+02</pdfrwt>
<totfact> 0.37091168E+05</totfact>
</mgrwt>
</event>
<event>
 4    1  0.5401488E-001  0.2361102E+02  0.7818608E-02  0.1681793E+00
         -4   -1    0    0    0  501 -0.00000000000E+00  0.00000000000E+00  0.10763881645E+02  0.10857142721E+02  0.14200000000E+01 0. -1.
          4   -1    0    0  501    0  0.00000000000E+00 -0.00000000000E+00 -0.12759269146E+02  0.12838043042E+02  0.14200000000E+01 0.  1.
        -11    1    1    2    0    0 -0.30097306479E+01 -0.98717795873E+01  0.47550654944E+01  0.11363149163E+02  0.51100000000E-03 0. -1.
         11    1    1    2    0    0  0.30097306479E+01  0.98717795873E+01 -0.67504529955E+01  0.12332036600E+02  0.51100000000E-03 0.  1.
<mgrwt>
<rscale>  0 0.23611020E+02</rscale>
<asrwt>0</asrwt>
<pdfrwt beam="2">  1        4 0.19761979E-02 0.23611020E+02</pdfrwt>
<pdfrwt beam="1">  1       -4 0.16692153E-02 0.23611020E+02</pdfrwt>
<totfact> 0.90439403E+05</totfact>
</mgrwt>
</event>
<event>
 4    1  0.5401488E-001  0.2779833E+02  0.7818608E-02  0.1623783E+00
         -4   -1    0    0    0  501 -0.00000000000E+00  0.00000000000E+00  0.86908972203E+01  0.88061395908E+01  0.14200000000E+01 0.  1.
          4   -1    0    0  501    0  0.00000000000E+00 -0.00000000000E+00 -0.21943893683E+02  0.21989790130E+02  0.14200000000E+01 0.  1.
        -11    1    1    2    0    0  0.83976313087E+01  0.11067684108E+02 -0.61657144476E+01  0.15199667036E+02  0.51100000000E-03 0. -1.
         11    1    1    2    0    0 -0.83976313087E+01 -0.11067684108E+02 -0.70872820154E+01  0.15596262685E+02  0.51100000000E-03 0.  1.
<mgrwt>
<rscale>  0 0.27798334E+02</rscale>
<asrwt>0</asrwt>
<pdfrwt beam="2">  1        4 0.33883789E-02 0.27798334E+02</pdfrwt>
<pdfrwt beam="1">  1       -4 0.13494564E-02 0.27798334E+02</pdfrwt>
<totfact> 0.61529904E+05</totfact>
</mgrwt>
</event>
<event>
 4    1  0.5401488E-001  0.4046809E+02  0.7818608E-02  0.1504795E+00
          4   -1    0    0  501    0  0.00000000000E+00  0.00000000000E+00  0.13752012962E+03  0.13752746072E+03  0.14200000000E+01 0.  1.
         -4   -1    0    0    0  501 -0.00000000000E+00 -0.00000000000E+00 -0.27999773199E+01  0.31394701770E+01  0.14200000000E+01 0. -1.
        -11    1    1    2    0    0 -0.13457212467E+02 -0.15102822164E+02  0.65712374030E+02  0.68755420918E+02  0.51100000000E-03 0.  1.
         11    1    1    2    0    0  0.13457212467E+02  0.15102822164E+02  0.69007778274E+02  0.71911509978E+02  0.51100000000E-03 0. -1.
<mgrwt>
<rscale>  0 0.40468086E+02</rscale>
<asrwt>0</asrwt>
<pdfrwt beam="1">  1        4 0.21183618E-01 0.40468086E+02</pdfrwt>
<pdfrwt beam="2">  1       -4 0.45744460E-03 0.40468086E+02</pdfrwt>
<totfact> 0.18845737E+05</totfact>
</mgrwt>
</event>
<event>
 4    1  0.5401488E-001  0.3300017E+02  0.7818608E-02  0.1567112E+00
          4   -1    0    0  501    0  0.00000000000E+00  0.00000000000E+00  0.14140694053E+02  0.14211812984E+02  0.14200000000E+01 0.  1.
         -4   -1    0    0    0  501 -0.00000000000E+00 -0.00000000000E+00 -0.19107314983E+02  0.19160007460E+02  0.14200000000E+01 0. -1.
        -11    1    1    2    0    0  0.16451827340E+02 -0.12184716424E+00 -0.12140659880E+01  0.16497012640E+02  0.51100000000E-03 0. -1.
         11    1    1    2    0    0 -0.16451827340E+02  0.12184716424E+00 -0.37525549421E+01  0.16874807804E+02  0.51100000000E-03 0.  1.
<mgrwt>
<rscale>  0 0.33000168E+02</rscale>
<asrwt>0</asrwt>
<pdfrwt beam="1">  1        4 0.21850154E-02 0.33000168E+02</pdfrwt>
<pdfrwt beam="2">  1       -4 0.29491109E-02 0.33000168E+02</pdfrwt>
<totfact> 0.41314210E+05</totfact>
</mgrwt>
</event>
<event>
 4    1  0.5401488E-001  0.3199230E+02  0.7818608E-02  0.1577056E+00
          4   -1    0    0  501    0  0.00000000000E+00  0.00000000000E+00  0.32148057357E+02  0.32179403223E+02  0.14200000000E+01 0.  1.
         -4   -1    0    0    0  501 -0.00000000000E+00 -0.00000000000E+00 -0.78604522911E+01  0.79876849100E+01  0.14200000000E+01 0. -1.
        -11    1    1    2    0    0 -0.15695658074E+02 -0.22472696560E+00  0.16008005205E+02  0.22420089551E+02  0.51100000000E-03 0.  1.
         11    1    1    2    0    0  0.15695658074E+02  0.22472696560E+00  0.82795998610E+01  0.17746998583E+02  0.51100000000E-03 0. -1.
<mgrwt>
<rscale>  0 0.31992299E+02</rscale>
<asrwt>0</asrwt>
<pdfrwt beam="1">  1        4 0.49580532E-02 0.31992299E+02</pdfrwt>
<pdfrwt beam="2">  1       -4 0.12214987E-02 0.31992299E+02</pdfrwt>
<totfact> 0.43283462E+05</totfact>
</mgrwt>
</event>
<event>
 4    1  0.5401488E-001  0.4329830E+02  0.7818608E-02  0.1485253E+00
         -4   -1    0    0    0  501 -0.00000000000E+00  0.00000000000E+00  0.11529424949E+03  0.11530299374E+03  0.14200000000E+01 0. -1.
          4   -1    0    0  501    0  0.00000000000E+00 -0.00000000000E+00 -0.39319453145E+01  0.41805016393E+01  0.14200000000E+01 0.  1.
        -11    1    1    2    0    0  0.30434880401E+01 -0.19164345406E+02  0.29190872955E+02  0.35051990221E+02  0.51100000000E-03 0.  1.
         11    1    1    2    0    0 -0.30434880401E+01  0.19164345406E+02  0.82171431223E+02  0.84431505162E+02  0.51100000000E-03 0. -1.
<mgrwt>
<rscale>  0 0.43298301E+02</rscale>
<asrwt>0</asrwt>
<pdfrwt beam="2">  1        4 0.62470697E-03 0.43298301E+02</pdfrwt>
<pdfrwt beam="1">  1       -4 0.17757370E-01 0.43298301E+02</pdfrwt>
<totfact> 0.16905271E+05</totfact>
</mgrwt>
</event>
<event>
 4    1  0.5401488E-001  0.2357278E+02  0.7818608E-02  0.1682390E+00
          4   -1    0    0  501    0  0.00000000000E+00  0.00000000000E+00  0.76522560993E+01  0.77828929975E+01  0.14200000000E+01 0.  1.
         -4   -1    0    0    0  501 -0.00000000000E+00 -0.00000000000E+00 -0.17841264453E+02  0.17897684690E+02  0.14200000000E+01 0. -1.
        -11    1    1    2    0    0 -0.91536133904E+01 -0.73900933973E+01 -0.43112403143E+01  0.12529521612E+02  0.51100000000E-03 0. -1.
         11    1    1    2    0    0  0.91536133904E+01  0.73900933973E+01 -0.58777680393E+01  0.13151056076E+02  0.51100000000E-03 0.  1.
<mgrwt>
<rscale>  0 0.23572785E+02</rscale>
<asrwt>0</asrwt>
<pdfrwt beam="1">  1        4 0.11916592E-02 0.23572785E+02</pdfrwt>
<pdfrwt beam="2">  1       -4 0.27591989E-02 0.23572785E+02</pdfrwt>
<totfact> 0.89992602E+05</totfact>
</mgrwt>
</event>
<event>
 4    1  0.5401488E-001  0.5495633E+02  0.7818608E-02  0.1420306E+00
          4   -1    0    0  501    0  0.00000000000E+00  0.00000000000E+00  0.31765668862E+02  0.31797391690E+02  0.14200000000E+01 0. -1.
         -4   -1    0    0    0  501 -0.00000000000E+00 -0.00000000000E+00 -0.23704513782E+02  0.23747007678E+02  0.14200000000E+01 0.  1.
        -11    1    1    2    0    0 -0.15189866797E+02  0.46269832944E+01  0.26696168445E+02  0.31061655423E+02  0.51100000000E-03 0. -1.
         11    1    1    2    0    0  0.15189866797E+02 -0.46269832944E+01 -0.18635013365E+02  0.24482743945E+02  0.51100000000E-03 0.  1.
<mgrwt>
<rscale>  0 0.54956329E+02</rscale>
<asrwt>0</asrwt>
<pdfrwt beam="1">  1        4 0.48927349E-02 0.54956329E+02</pdfrwt>
<pdfrwt beam="2">  1       -4 0.36525573E-02 0.54956329E+02</pdfrwt>
<totfact> 0.11186597E+05</totfact>
</mgrwt>
</event>
<event>
 4    1  0.5401488E-001  0.3722929E+02  0.7818608E-02  0.1529651E+00
          4   -1    0    0  501    0  0.00000000000E+00  0.00000000000E+00  0.39920853873E+01  0.42371152615E+01  0.14200000000E+01 0.  1.
         -4   -1    0    0    0  501 -0.00000000000E+00 -0.00000000000E+00 -0.83962312948E+02  0.83974319857E+02  0.14200000000E+01 0. -1.
        -11    1    1    2    0    0 -0.82043814500E+00 -0.16945596380E+02 -0.21834965934E+02  0.27651258434E+02  0.51100000000E-03 0.  1.
         11    1    1    2    0    0  0.82043814500E+00  0.16945596380E+02 -0.58135261627E+02  0.60560176685E+02  0.51100000000E-03 0. -1.
<mgrwt>
<rscale>  0 0.37229289E+02</rscale>
<asrwt>0</asrwt>
<pdfrwt beam="1">  1        4 0.63393911E-03 0.37229289E+02</pdfrwt>
<pdfrwt beam="2">  1       -4 0.12937050E-01 0.37229289E+02</pdfrwt>
<totfact> 0.26237724E+05</totfact>
</mgrwt>
</event>
<event>
 4    1  0.5401488E-001  0.6744970E+02  0.7818608E-02  0.1368987E+00
          4   -1    0    0  501    0  0.00000000000E+00  0.00000000000E+00  0.15045186019E+02  0.15112048913E+02  0.14200000000E+01 0.  1.
         -4   -1    0    0    0  501 -0.00000000000E+00 -0.00000000000E+00 -0.75355460101E+02  0.75368838169E+02  0.14200000000E+01 0. -1.
        -11    1    1    2    0    0  0.58727732424E+01 -0.31432356742E+02 -0.15776934951E+02  0.35656614991E+02  0.51100000000E-03 0.  1.
         11    1    1    2    0    0 -0.58727732424E+01  0.31432356742E+02 -0.44533339130E+02  0.54824272091E+02  0.51100000000E-03 0. -1.
<mgrwt>
<rscale>  0 0.67449698E+02</rscale>
<asrwt>0</asrwt>
<pdfrwt beam="1">  1        4 0.23208164E-02 0.67449698E+02</pdfrwt>
<pdfrwt beam="2">  1       -4 0.11599320E-01 0.67449698E+02</pdfrwt>
<totfact> 0.60201479E+04</totfact>
</mgrwt>
</event>
<event>
 4    1  0.5401488E-001  0.3415490E+02  0.7818608E-02  0.1556236E+00
         -4   -1    0    0    0  501 -0.00000000000E+00  0.00000000000E+00  0.14090121570E+03  0.14090837089E+03  0.14200000000E+01 0. -1.
          4   -1    0    0  501    0  0.00000000000E+00 -0.00000000000E+00 -0.18181994120E+01  0.23070000221E+01  0.14200000000E+01 0.  1.
        -11    1    1    2    0    0 -0.54555690268E+01  0.16142425910E+02  0.64764093563E+02  0.66968119004E+02  0.51100000000E-03 0.  1.
         11    1    1    2    0    0  0.54555690268E+01 -0.16142425910E+02  0.74318922726E+02  0.76247251905E+02  0.51100000000E-03 0. -1.
<mgrwt>
<rscale>  0 0.34154898E+02</rscale>
<asrwt>0</asrwt>
<pdfrwt beam="2">  1        4 0.31787336E-03 0.34154898E+02</pdfrwt>
<pdfrwt beam="1">  1       -4 0.21715265E-01 0.34154898E+02</pdfrwt>
<totfact> 0.27755426E+05</totfact>
</mgrwt>
</event>
<event>
 4    1  0.5401488E-001  0.2545879E+02  0.7818608E-02  0.1654498E+00
         -4   -1    0    0    0  501 -0.00000000000E+00  0.00000000000E+00  0.11202293183E+02  0.11291933960E+02  0.14200000000E+01 0.  1.
          4   -1    0    0  501    0  0.00000000000E+00 -0.00000000000E+00 -0.14282035384E+02  0.14352453961E+02  0.14200000000E+01 0. -1.
        -11    1    1    2    0    0 -0.16111832405E+01 -0.11750452711E+02  0.31164259877E+01  0.12262999696E+02  0.51100000000E-03 0.  1.
         11    1    1    2    0    0  0.16111832405E+01  0.11750452711E+02 -0.61961681883E+01  0.13381388225E+02  0.51100000000E-03 0. -1.
<mgrwt>
<rscale>  0 0.25458787E+02</rscale>
<asrwt>0</asrwt>
<pdfrwt beam="2">  1        4 0.22095485E-02 0.25458787E+02</pdfrwt>
<pdfrwt beam="1">  1       -4 0.17357420E-02 0.25458787E+02</pdfrwt>
<totfact> 0.76228092E+05</totfact>
</mgrwt>
</event>
<event>
 4    1  0.5401488E-001  0.1013102E+03  0.7818608E-02  0.1277565E+00
          4   -1    0    0  501    0  0.00000000000E+00  0.00000000000E+00  0.90220189059E+02  0.90231363250E+02  0.14200000000E+01 0.  1.
         -4   -1    0    0    0  501 -0.00000000000E+00 -0.00000000000E+00 -0.28410184735E+02  0.28445649873E+02  0.14200000000E+01 0. -1.
        -11    1    1    2    0    0 -0.32293082700E+02 -0.22991821279E+02 -0.60360913376E+01  0.40098646298E+02  0.51100000000E-03 0. -1.
         11    1    1    2    0    0  0.32293082700E+02  0.22991821279E+02  0.67846095662E+02  0.78578366825E+02  0.51100000000E-03 0.  1.
<mgrwt>
<rscale>  0 0.10131020E+03</rscale>
<asrwt>0</asrwt>
<pdfrwt beam="1">  1        4 0.13883617E-01 0.10131020E+03</pdfrwt>
<pdfrwt beam="2">  1       -4 0.43743853E-02 0.10131020E+03</pdfrwt>
<totfact> 0.19020284E+04</totfact>
</mgrwt>
</event>
<event>
 4    1  0.5401488E-001  0.3186480E+02  0.7818608E-02  0.1578346E+00
          4   -1    0    0  501    0  0.00000000000E+00  0.00000000000E+00  0.14685788333E+02  0.14754280022E+02  0.14200000000E+01 0.  1.
         -4   -1    0    0    0  501 -0.00000000000E+00 -0.00000000000E+00 -0.17146711888E+02  0.17205409864E+02  0.14200000000E+01 0. -1.
        -11    1    1    2    0    0 -0.10866446324E+02 -0.26954013199E+01 -0.12599849679E+02  0.16855297571E+02  0.51100000000E-03 0. -1.
         11    1    1    2    0    0  0.10866446324E+02  0.26954013199E+01  0.10138926125E+02  0.15104392315E+02  0.51100000000E-03 0.  1.
<mgrwt>
<rscale>  0 0.31864802E+02</rscale>
<asrwt>0</asrwt>
<pdfrwt beam="1">  1        4 0.22691359E-02 0.31864802E+02</pdfrwt>
<pdfrwt beam="2">  1       -4 0.26477395E-02 0.31864802E+02</pdfrwt>
<totfact> 0.45012476E+05</totfact>
</mgrwt>
</event>
<event>
 4    1  0.5401488E-001  0.2841227E+02  0.7818608E-02  0.1616332E+00
         -4   -1    0    0    0  501 -0.00000000000E+00  0.00000000000E+00  0.26938977689E+01  0.30452397589E+01  0.14200000000E+01 0.  1.
          4   -1    0    0  501    0  0.00000000000E+00 -0.00000000000E+00 -0.69970166008E+02  0.69984573523E+02  0.14200000000E+01 0. -1.
        -11    1    1    2    0    0  0.11741598759E+02  0.26484154829E+01 -0.14243383330E+02  0.18648142399E+02  0.51100000000E-03 0.  1.
         11    1    1    2    0    0 -0.11741598759E+02 -0.26484154829E+01 -0.53032884909E+02  0.54381670883E+02  0.51100000000E-03 0. -1.
<mgrwt>
<rscale>  0 0.28412275E+02</rscale>
<asrwt>0</asrwt>
<pdfrwt beam="2">  1        4 0.10792774E-01 0.28412275E+02</pdfrwt>
<pdfrwt beam="1">  1       -4 0.44258044E-03 0.28412275E+02</pdfrwt>
<totfact> 0.50710971E+05</totfact>
</mgrwt>
</event>
<event>
 4    1  0.5401488E-001  0.2864496E+02  0.7818608E-02  0.1613569E+00
         -4   -1    0    0    0  501 -0.00000000000E+00  0.00000000000E+00  0.93392728849E+01  0.94466088105E+01  0.14200000000E+01 0. -1.
          4   -1    0    0  501    0  0.00000000000E+00 -0.00000000000E+00 -0.21708434534E+02  0.21754827738E+02  0.14200000000E+01 0.  1.
        -11    1    1    2    0    0 -0.93252842806E+01  0.58713591549E+01 -0.16149828313E+02  0.19551233721E+02  0.51100000000E-03 0.  1.
         11    1    1    2    0    0  0.93252842806E+01 -0.58713591549E+01  0.37806666634E+01  0.11650202827E+02  0.51100000000E-03 0. -1.
<mgrwt>
<rscale>  0 0.28644956E+02</rscale>
<asrwt>0</asrwt>
<pdfrwt beam="2">  1        4 0.33515845E-02 0.28644956E+02</pdfrwt>
<pdfrwt beam="1">  1       -4 0.14486365E-02 0.28644956E+02</pdfrwt>
<totfact> 0.57464053E+05</totfact>
</mgrwt>
</event>
<event>
 4    1  0.5401488E-001  0.2541464E+02  0.7818608E-02  0.1655117E+00
          4   -1    0    0  501    0  0.00000000000E+00  0.00000000000E+00  0.21857122451E+02  0.21903200721E+02  0.14200000000E+01 0.  1.
         -4   -1    0    0    0  501 -0.00000000000E+00 -0.00000000000E+00 -0.72651300612E+01  0.74026018944E+01  0.14200000000E+01 0. -1.
        -11    1    1    2    0    0 -0.32208784685E+01  0.10937493706E+02  0.82695889713E+00  0.11431827848E+02  0.51100000000E-03 0. -1.
         11    1    1    2    0    0  0.32208784685E+01 -0.10937493706E+02  0.13765033493E+02  0.17873974768E+02  0.51100000000E-03 0.  1.
<mgrwt>
<rscale>  0 0.25414638E+02</rscale>
<asrwt>0</asrwt>
<pdfrwt beam="1">  1        4 0.33767535E-02 0.25414638E+02</pdfrwt>
<pdfrwt beam="2">  1       -4 0.11318316E-02 0.25414638E+02</pdfrwt>
<totfact> 0.75384143E+05</totfact>
</mgrwt>
</event>
<event>
 4    1  0.5401488E-001  0.2464101E+02  0.7818608E-02  0.1666212E+00
         -4   -1    0    0    0  501 -0.00000000000E+00  0.00000000000E+00  0.95921004696E+00  0.17136172018E+01  0.14200000000E+01 0. -1.
          4   -1    0    0  501    0  0.00000000000E+00 -0.00000000000E+00 -0.11282356073E+03  0.11283249645E+03  0.14200000000E+01 0.  1.
        -11    1    1    2    0    0  0.56733934717E+01  0.10774148162E+02 -0.64660079116E+02  0.65796622205E+02  0.51100000000E-03 0.  1.
         11    1    1    2    0    0 -0.56733934717E+01 -0.10774148162E+02 -0.47204271564E+02  0.48749491446E+02  0.51100000000E-03 0. -1.
<mgrwt>
<rscale>  0 0.24641006E+02</rscale>
<asrwt>0</asrwt>
<pdfrwt beam="2">  1        4 0.17416182E-01 0.24641006E+02</pdfrwt>
<pdfrwt beam="1">  1       -4 0.20628955E-03 0.24641006E+02</pdfrwt>
<totfact> 0.61240386E+05</totfact>
</mgrwt>
</event>
<event>
 4    1  0.5401488E-001  0.2828443E+02  0.7818608E-02  0.1617865E+00
         -4   -1    0    0    0  501 -0.00000000000E+00  0.00000000000E+00  0.18851686755E+01  0.23601400245E+01  0.14200000000E+01 0.  1.
          4   -1    0    0  501    0  0.00000000000E+00 -0.00000000000E+00 -0.93741739521E+02  0.93752493985E+02  0.14200000000E+01 0. -1.
        -11    1    1    2    0    0 -0.40702970021E+01 -0.11615316548E+02 -0.69597856274E+02  0.70677751057E+02  0.51100000000E-03 0. -1.
         11    1    1    2    0    0  0.40702970021E+01  0.11615316548E+02 -0.22258714571E+02  0.25434882952E+02  0.51100000000E-03 0.  1.
<mgrwt>
<rscale>  0 0.28284427E+02</rscale>
<asrwt>0</asrwt>
<pdfrwt beam="2">  1        4 0.14459166E-01 0.28284427E+02</pdfrwt>
<pdfrwt beam="1">  1       -4 0.32738955E-03 0.28284427E+02</pdfrwt>
<totfact> 0.47851233E+05</totfact>
</mgrwt>
</event>
<event>
 4    1  0.5401488E-001  0.4867505E+02  0.7818608E-02  0.1452622E+00
         -4   -1    0    0    0  501 -0.00000000000E+00  0.00000000000E+00  0.99906939728E+01  0.10091103312E+02  0.14200000000E+01 0.  1.
          4   -1    0    0  501    0  0.00000000000E+00 -0.00000000000E+00 -0.58881243743E+02  0.58898363854E+02  0.14200000000E+01 0. -1.
        -11    1    1    2    0    0 -0.22116030180E+02 -0.29282144014E+01 -0.38232355351E+02  0.44265180746E+02  0.51100000000E-03 0. -1.
         11    1    1    2    0    0  0.22116030180E+02  0.29282144014E+01 -0.10658194419E+02  0.24724286421E+02  0.51100000000E-03 0.  1.
<mgrwt>
<rscale>  0 0.48675052E+02</rscale>
<asrwt>0</asrwt>
<pdfrwt beam="2">  1        4 0.90676934E-02 0.48675052E+02</pdfrwt>
<pdfrwt beam="1">  1       -4 0.15460706E-02 0.48675052E+02</pdfrwt>
<totfact> 0.14558805E+05</totfact>
</mgrwt>
</event>
<event>
 4    1  0.5401488E-001  0.4965588E+02  0.7818608E-02  0.1447207E+00
         -4   -1    0    0    0  501 -0.00000000000E+00  0.00000000000E+00  0.24773195321E+02  0.24813859160E+02  0.14200000000E+01 0.  1.
          4   -1    0    0  501    0  0.00000000000E+00 -0.00000000000E+00 -0.24801407219E+02  0.24842024878E+02  0.14200000000E+01 0. -1.
        -11    1    1    2    0    0  0.92676902526E+01 -0.22704272834E+02 -0.38938511727E+01  0.24830146289E+02  0.51100000000E-03 0. -1.
         11    1    1    2    0    0 -0.92676902526E+01  0.22704272834E+02  0.38656392753E+01  0.24825737749E+02  0.51100000000E-03 0.  1.
<mgrwt>
<rscale>  0 0.49655876E+02</rscale>
<asrwt>0</asrwt>
<pdfrwt beam="2">  1        4 0.38218535E-02 0.49655876E+02</pdfrwt>
<pdfrwt beam="1">  1       -4 0.38175132E-02 0.49655876E+02</pdfrwt>
<totfact> 0.14682494E+05</totfact>
</mgrwt>
</event>
<event>
 4    1  0.5401488E-001  0.3386211E+02  0.7818608E-02  0.1558944E+00
         -4   -1    0    0    0  501 -0.00000000000E+00  0.00000000000E+00  0.11496873282E+02  0.11584234773E+02  0.14200000000E+01 0.  1.
          4   -1    0    0  501    0  0.00000000000E+00 -0.00000000000E+00 -0.24731611961E+02  0.24772344059E+02  0.14200000000E+01 0. -1.
        -11    1    1    2    0    0 -0.15464730604E+02 -0.11305753341E+00 -0.14016315448E+02  0.20871697910E+02  0.51100000000E-03 0. -1.
         11    1    1    2    0    0  0.15464730604E+02  0.11305753341E+00  0.78157676956E+00  0.15484880921E+02  0.51100000000E-03 0.  1.
<mgrwt>
<rscale>  0 0.33862110E+02</rscale>
<asrwt>0</asrwt>
<pdfrwt beam="2">  1        4 0.38147167E-02 0.33862110E+02</pdfrwt>
<pdfrwt beam="1">  1       -4 0.17786031E-02 0.33862110E+02</pdfrwt>
<totfact> 0.38503152E+05</totfact>
</mgrwt>
</event>
<event>
 4    1  0.5401488E-001  0.2693113E+02  0.7818608E-02  0.1634719E+00
          4   -1    0    0  501    0  0.00000000000E+00  0.00000000000E+00  0.81558943604E+02  0.81571304279E+02  0.14200000000E+01 0. -1.
         -4   -1    0    0    0  501 -0.00000000000E+00 -0.00000000000E+00 -0.19826164682E+01  0.24386816234E+01  0.14200000000E+01 0.  1.
        -11    1    1    2    0    0 -0.11855854347E+02 -0.63444371152E+01  0.42012188793E+02  0.44111644405E+02  0.51100000000E-03 0.  1.
         11    1    1    2    0    0  0.11855854347E+02  0.63444371152E+01  0.37564138342E+02  0.39898341498E+02  0.51100000000E-03 0. -1.
<mgrwt>
<rscale>  0 0.26931132E+02</rscale>
<asrwt>0</asrwt>
<pdfrwt beam="1">  1        4 0.12583564E-01 0.26931132E+02</pdfrwt>
<pdfrwt beam="2">  1       -4 0.34105065E-03 0.26931132E+02</pdfrwt>
<totfact> 0.55160437E+05</totfact>
</mgrwt>
</event>
<event>
 4    1  0.5401488E-001  0.3874647E+02  0.7818608E-02  0.1517644E+00
          4   -1    0    0  501    0  0.00000000000E+00  0.00000000000E+00  0.46335977943E+01  0.48463004983E+01  0.14200000000E+01 0. -1.
         -4   -1    0    0    0  501 -0.00000000000E+00 -0.00000000000E+00 -0.78963514517E+02  0.78976281407E+02  0.14200000000E+01 0.  1.
        -11    1    1    2    0    0 -0.18783535134E+02  0.41494533516E+01 -0.32192510852E+02  0.37501958755E+02  0.51100000000E-03 0. -1.
         11    1    1    2    0    0  0.18783535134E+02 -0.41494533516E+01 -0.42137405870E+02  0.46320623150E+02  0.51100000000E-03 0.  1.
<mgrwt>
<rscale>  0 0.38746467E+02</rscale>
<asrwt>0</asrwt>
<pdfrwt beam="1">  1        4 0.73020507E-03 0.38746467E+02</pdfrwt>
<pdfrwt beam="2">  1       -4 0.12165576E-01 0.38746467E+02</pdfrwt>
<totfact> 0.24185615E+05</totfact>
</mgrwt>
</event>
<event>
 4    1  0.5401488E-001  0.2160155E+02  0.7818608E-02  0.1715236E+00
         -4   -1    0    0    0  501 -0.00000000000E+00  0.00000000000E+00  0.76841386130E+01  0.78142425240E+01  0.14200000000E+01 0. -1.
          4   -1    0    0  501    0  0.00000000000E+00 -0.00000000000E+00 -0.14889885722E+02  0.14957442857E+02  0.14200000000E+01 0.  1.
        -11    1    1    2    0    0 -0.46248277022E+01  0.94625924030E+01 -0.61256281868E+01  0.12184129317E+02  0.51100000000E-03 0. -1.
         11    1    1    2    0    0  0.46248277022E+01 -0.94625924030E+01 -0.10801189221E+01  0.10587556064E+02  0.51100000000E-03 0.  1.
<mgrwt>
<rscale>  0 0.21601548E+02</rscale>
<asrwt>0</asrwt>
<pdfrwt beam="2">  1        4 0.23059563E-02 0.21601548E+02</pdfrwt>
<pdfrwt beam="1">  1       -4 0.11973799E-02 0.21601548E+02</pdfrwt>
<totfact> 0.10958340E+06</totfact>
</mgrwt>
</event>
<event>
 4    1  0.5401488E-001  0.4355705E+02  0.7818608E-02  0.1483556E+00
          4   -1    0    0  501    0  0.00000000000E+00  0.00000000000E+00  0.10000841715E+03  0.10001849779E+03  0.14200000000E+01 0.  1.
         -4   -1    0    0    0  501 -0.00000000000E+00 -0.00000000000E+00 -0.46257934597E+01  0.48388392339E+01  0.14200000000E+01 0. -1.
        -11    1    1    2    0    0  0.62102919723E+01 -0.20873145136E+02  0.48219517315E+02  0.52909146322E+02  0.51100000000E-03 0. -1.
         11    1    1    2    0    0 -0.62102919723E+01  0.20873145136E+02  0.47163106376E+02  0.51948190706E+02  0.51100000000E-03 0.  1.
<mgrwt>
<rscale>  0 0.43557046E+02</rscale>
<asrwt>0</asrwt>
<pdfrwt beam="1">  1        4 0.15403075E-01 0.43557046E+02</pdfrwt>
<pdfrwt beam="2">  1       -4 0.72882405E-03 0.43557046E+02</pdfrwt>
<totfact> 0.17297967E+05</totfact>
</mgrwt>
</event>
<event>
 4    1  0.5401488E-001  0.2423654E+02  0.7818608E-02  0.1672216E+00
         -4   -1    0    0    0  501 -0.00000000000E+00  0.00000000000E+00  0.65373004629E+02  0.65388425079E+02  0.14200000000E+01 0.  1.
          4   -1    0    0  501    0  0.00000000000E+00 -0.00000000000E+00 -0.20046803690E+01  0.24566528818E+01  0.14200000000E+01 0. -1.
        -11    1    1    2    0    0 -0.48333012785E+01  0.96960515884E+01  0.16485726561E+02  0.19726971337E+02  0.51100000000E-03 0. -1.
         11    1    1    2    0    0  0.48333012785E+01 -0.96960515884E+01  0.46882597700E+02  0.48118106623E+02  0.51100000000E-03 0.  1.
<mgrwt>
<rscale>  0 0.24236544E+02</rscale>
<asrwt>0</asrwt>
<pdfrwt beam="2">  1        4 0.34436566E-03 0.24236544E+02</pdfrwt>
<pdfrwt beam="1">  1       -4 0.10093339E-01 0.24236544E+02</pdfrwt>
<totfact> 0.72756810E+05</totfact>
</mgrwt>
</event>
<event>
 4    1  0.5401488E-001  0.5041759E+02  0.7818608E-02  0.1443102E+00
          4   -1    0    0  501    0  0.00000000000E+00  0.00000000000E+00  0.41453720042E+01  0.43818385471E+01  0.14200000000E+01 0. -1.
         -4   -1    0    0    0  501 -0.00000000000E+00 -0.00000000000E+00 -0.14880843266E+03  0.14881520766E+03  0.14200000000E+01 0.  1.
        -11    1    1    2    0    0  0.23553479833E+02 -0.19829960044E+00 -0.45038918646E+02  0.50826272025E+02  0.51100000000E-03 0. -1.
         11    1    1    2    0    0 -0.23553479833E+02  0.19829960044E+00 -0.99624142014E+02  0.10237077418E+03  0.51100000000E-03 0.  1.
<mgrwt>
<rscale>  0 0.50417595E+02</rscale>
<asrwt>0</asrwt>
<pdfrwt beam="1">  1        4 0.65646054E-03 0.50417595E+02</pdfrwt>
<pdfrwt beam="2">  1       -4 0.22912312E-01 0.50417595E+02</pdfrwt>
<totfact> 0.10789217E+05</totfact>
</mgrwt>
</event>
<event>
 4    1  0.5401488E-001  0.2660776E+02  0.7818608E-02  0.1638928E+00
         -4   -1    0    0    0  501 -0.00000000000E+00  0.00000000000E+00  0.82782906982E+02  0.82795084929E+02  0.14200000000E+01 0. -1.
          4   -1    0    0  501    0  0.00000000000E+00 -0.00000000000E+00 -0.18885420452E+01  0.23628353850E+01  0.14200000000E+01 0.  1.
        -11    1    1    2    0    0 -0.54842538483E+01 -0.11975525007E+02  0.34457012704E+02  0.36888696971E+02  0.51100000000E-03 0.  1.
         11    1    1    2    0    0  0.54842538483E+01  0.11975525007E+02  0.46437352232E+02  0.48269223343E+02  0.51100000000E-03 0. -1.
<mgrwt>
<rscale>  0 0.26607764E+02</rscale>
<asrwt>0</asrwt>
<pdfrwt beam="2">  1        4 0.32796575E-03 0.26607764E+02</pdfrwt>
<pdfrwt beam="1">  1       -4 0.12773255E-01 0.26607764E+02</pdfrwt>
<totfact> 0.56435078E+05</totfact>
</mgrwt>
</event>
<event>
 4    1  0.5401488E-001  0.2029636E+02  0.7818608E-02  0.1739498E+00
         -4   -1    0    0    0  501 -0.00000000000E+00  0.00000000000E+00  0.25211381373E+01  0.28935337405E+01  0.14200000000E+01 0. -1.
          4   -1    0    0  501    0  0.00000000000E+00 -0.00000000000E+00 -0.37652736724E+02  0.37679503484E+02  0.14200000000E+01 0.  1.
        -11    1    1    2    0    0  0.89157759076E+01  0.48406479867E+01 -0.18065954021E+02  0.20719595264E+02  0.51100000000E-03 0.  1.
         11    1    1    2    0    0 -0.89157759076E+01 -0.48406479867E+01 -0.17065644566E+02  0.19853441960E+02  0.51100000000E-03 0. -1.
<mgrwt>
<rscale>  0 0.20296358E+02</rscale>
<asrwt>0</asrwt>
<pdfrwt beam="2">  1        4 0.58234332E-02 0.20296358E+02</pdfrwt>
<pdfrwt beam="1">  1       -4 0.41857223E-03 0.20296358E+02</pdfrwt>
<totfact> 0.11584917E+06</totfact>
</mgrwt>
</event>
<event>
 4    1  0.5401488E-001  0.2414438E+02  0.7818608E-02  0.1673605E+00
         -4   -1    0    0    0  501 -0.00000000000E+00  0.00000000000E+00  0.51968047310E+01  0.53873165316E+01  0.14200000000E+01 0. -1.
          4   -1    0    0  501    0  0.00000000000E+00 -0.00000000000E+00 -0.27329663891E+02  0.27366529345E+02  0.14200000000E+01 0.  1.
        -11    1    1    2    0    0 -0.24704343583E+01  0.10863479437E+02 -0.47587560425E+01  0.12114618885E+02  0.51100000000E-03 0. -1.
         11    1    1    2    0    0  0.24704343583E+01 -0.10863479437E+02 -0.17374103117E+02  0.20639226991E+02  0.51100000000E-03 0.  1.
<mgrwt>
<rscale>  0 0.24144378E+02</rscale>
<asrwt>0</asrwt>
<pdfrwt beam="2">  1        4 0.42220541E-02 0.24144378E+02</pdfrwt>
<pdfrwt beam="1">  1       -4 0.81699899E-03 0.24144378E+02</pdfrwt>
<totfact> 0.83074888E+05</totfact>
</mgrwt>
</event>
<event>
 4    1  0.5401488E-001  0.2211506E+02  0.7818608E-02  0.1706270E+00
         -4   -1    0    0    0  501 -0.00000000000E+00  0.00000000000E+00  0.18629320018E+02  0.18683360627E+02  0.14200000000E+01 0. -1.
          4   -1    0    0  501    0  0.00000000000E+00 -0.00000000000E+00 -0.64220381810E+01  0.65771554944E+01  0.14200000000E+01 0.  1.
        -11    1    1    2    0    0  0.10212175833E+02 -0.84040799280E+00  0.13562761585E+01  0.10336068214E+02  0.51100000000E-03 0.  1.
         11    1    1    2    0    0 -0.10212175833E+02  0.84040799280E+00  0.10851005678E+02  0.14924447907E+02  0.51100000000E-03 0. -1.
<mgrwt>
<rscale>  0 0.22115061E+02</rscale>
<asrwt>0</asrwt>
<pdfrwt beam="2">  1        4 0.10040950E-02 0.22115061E+02</pdfrwt>
<pdfrwt beam="1">  1       -4 0.28821383E-02 0.22115061E+02</pdfrwt>
<totfact> 0.10319960E+06</totfact>
</mgrwt>
</event>
<event>
 4    1  0.5401488E-001  0.2967484E+02  0.7818608E-02  0.1601711E+00
         -4   -1    0    0    0  501 -0.00000000000E+00  0.00000000000E+00  0.27675577977E+02  0.27711983263E+02  0.14200000000E+01 0.  1.
          4   -1    0    0  501    0  0.00000000000E+00 -0.00000000000E+00 -0.78492519941E+01  0.79766632665E+01  0.14200000000E+01 0. -1.
        -11    1    1    2    0    0 -0.14151893273E+02  0.90462536190E+00  0.15162954384E+02  0.20760771088E+02  0.51100000000E-03 0. -1.
         11    1    1    2    0    0  0.14151893273E+02 -0.90462536190E+00  0.46633715991E+01  0.14927875441E+02  0.51100000000E-03 0.  1.
<mgrwt>
<rscale>  0 0.29674843E+02</rscale>
<asrwt>0</asrwt>
<pdfrwt beam="2">  1        4 0.12201785E-02 0.29674843E+02</pdfrwt>
<pdfrwt beam="1">  1       -4 0.42703825E-02 0.29674843E+02</pdfrwt>
<totfact> 0.52194976E+05</totfact>
</mgrwt>
</event>
<event>
 4    1  0.5401488E-001  0.4648282E+02  0.7818608E-02  0.1465291E+00
          4   -1    0    0  501    0  0.00000000000E+00  0.00000000000E+00  0.80014492818E+02  0.80027092044E+02  0.14200000000E+01 0. -1.
         -4   -1    0    0    0  501 -0.00000000000E+00 -0.00000000000E+00 -0.66628607965E+01  0.68124968986E+01  0.14200000000E+01 0.  1.
        -11    1    1    2    0    0 -0.22291255440E+02 -0.62733367713E+01  0.40369131347E+02  0.46539462710E+02  0.51100000000E-03 0. -1.
         11    1    1    2    0    0  0.22291255440E+02  0.62733367713E+01  0.32982500675E+02  0.40300126233E+02  0.51100000000E-03 0.  1.
<mgrwt>
<rscale>  0 0.46482817E+02</rscale>
<asrwt>0</asrwt>
<pdfrwt beam="1">  1        4 0.12322402E-01 0.46482817E+02</pdfrwt>
<pdfrwt beam="2">  1       -4 0.10375351E-02 0.46482817E+02</pdfrwt>
<totfact> 0.15504243E+05</totfact>
</mgrwt>
</event>
<event>
 4    1  0.5401488E-001  0.4293072E+02  0.7818608E-02  0.1487689E+00
         -4   -1    0    0    0  501 -0.00000000000E+00  0.00000000000E+00  0.37276735060E+02  0.37303771616E+02  0.14200000000E+01 0.  1.
          4   -1    0    0  501    0  0.00000000000E+00 -0.00000000000E+00 -0.12288147599E+02  0.12369922046E+02  0.14200000000E+01 0. -1.
        -11    1    1    2    0    0  0.11705074198E+02 -0.17772887825E+02  0.15741773769E+02  0.26470507084E+02  0.51100000000E-03 0. -1.
         11    1    1    2    0    0 -0.11705074198E+02  0.17772887825E+02  0.92468136925E+01  0.23203186577E+02  0.51100000000E-03 0.  1.
<mgrwt>
<rscale>  0 0.42930716E+02</rscale>
<asrwt>0</asrwt>
<pdfrwt beam="2">  1        4 0.18988543E-02 0.42930716E+02</pdfrwt>
<pdfrwt beam="1">  1       -4 0.57432523E-02 0.42930716E+02</pdfrwt>
<totfact> 0.20982079E+05</totfact>
</mgrwt>
</event>
<event>
 4    1  0.5401488E-001  0.2095758E+02  0.7818608E-02  0.1726930E+00
          4   -1    0    0  501    0  0.00000000000E+00  0.00000000000E+00  0.10927796406E+02  0.11019670335E+02  0.14200000000E+01 0.  1.
         -4   -1    0    0    0  501 -0.00000000000E+00 -0.00000000000E+00 -0.98632381451E+01  0.99649318466E+01  0.14200000000E+01 0. -1.
        -11    1    1    2    0    0 -0.77909279031E+01  0.68866431141E+01 -0.76579109737E+00  0.10426449407E+02  0.51100000000E-03 0.  1.
         11    1    1    2    0    0  0.77909279031E+01 -0.68866431141E+01  0.18303493581E+01  0.10558152774E+02  0.51100000000E-03 0. -1.
<mgrwt>
<rscale>  0 0.20957582E+02</rscale>
<asrwt>0</asrwt>
<pdfrwt beam="1">  1        4 0.16960893E-02 0.20957582E+02</pdfrwt>
<pdfrwt beam="2">  1       -4 0.15323111E-02 0.20957582E+02</pdfrwt>
<totfact> 0.11764882E+06</totfact>
</mgrwt>
</event>
<event>
 4    1  0.5401488E-001  0.4528297E+02  0.7818608E-02  0.1472583E+00
          4   -1    0    0  501    0  0.00000000000E+00  0.00000000000E+00  0.35861470101E+02  0.35889572829E+02  0.14200000000E+01 0.  1.
         -4   -1    0    0    0  501 -0.00000000000E+00 -0.00000000000E+00 -0.14225855191E+02  0.14296550490E+02  0.14200000000E+01 0. -1.
        -11    1    1    2    0    0  0.15816392312E+02  0.12715680942E+02  0.21944278562E+02  0.29889766969E+02  0.51100000000E-03 0.  1.
         11    1    1    2    0    0 -0.15816392312E+02 -0.12715680942E+02 -0.30866365240E+00  0.20296356350E+02  0.51100000000E-03 0. -1.
<mgrwt>
<rscale>  0 0.45282967E+02</rscale>
<asrwt>0</asrwt>
<pdfrwt beam="1">  1        4 0.55247491E-02 0.45282967E+02</pdfrwt>
<pdfrwt beam="2">  1       -4 0.21961930E-02 0.45282967E+02</pdfrwt>
<totfact> 0.18395154E+05</totfact>
</mgrwt>
</event>
<event>
 4    1  0.5401488E-001  0.3088433E+02  0.7818608E-02  0.1588514E+00
          4   -1    0    0  501    0  0.00000000000E+00  0.00000000000E+00  0.50639334485E+01  0.52592605917E+01  0.14200000000E+01 0. -1.
         -4   -1    0    0    0  501 -0.00000000000E+00 -0.00000000000E+00 -0.45992472570E+02  0.46014388327E+02  0.14200000000E+01 0.  1.
        -11    1    1    2    0    0  0.97092257046E+01 -0.50911905693E+01 -0.24093533578E+01  0.11224716881E+02  0.51100000000E-03 0.  1.
         11    1    1    2    0    0 -0.97092257046E+01  0.50911905693E+01 -0.38519185764E+02  0.40048932038E+02  0.51100000000E-03 0. -1.
<mgrwt>
<rscale>  0 0.30884329E+02</rscale>
<asrwt>0</asrwt>
<pdfrwt beam="1">  1        4 0.79577771E-03 0.30884329E+02</pdfrwt>
<pdfrwt beam="2">  1       -4 0.70924757E-02 0.30884329E+02</pdfrwt>
<totfact> 0.45130779E+05</totfact>
</mgrwt>
</event>
<event>
 4    1  0.5401488E-001  0.2245006E+02  0.7818608E-02  0.1700583E+00
         -4   -1    0    0    0  501 -0.00000000000E+00  0.00000000000E+00  0.46854304599E+01  0.48958817994E+01  0.14200000000E+01 0. -1.
          4   -1    0    0  501    0  0.00000000000E+00 -0.00000000000E+00 -0.26071274286E+02  0.26109916562E+02  0.14200000000E+01 0.  1.
        -11    1    1    2    0    0 -0.20752112281E+01  0.11030553693E+02 -0.10896311246E+02  0.15643184313E+02  0.51100000000E-03 0. -1.
         11    1    1    2    0    0  0.20752112281E+01 -0.11030553693E+02 -0.10489532579E+02  0.15362614048E+02  0.51100000000E-03 0.  1.
<mgrwt>
<rscale>  0 0.22450060E+02</rscale>
<asrwt>0</asrwt>
<pdfrwt beam="2">  1        4 0.40301262E-02 0.22450060E+02</pdfrwt>
<pdfrwt beam="1">  1       -4 0.73999652E-03 0.22450060E+02</pdfrwt>
<totfact> 0.97622849E+05</totfact>
</mgrwt>
</event>
<event>
 4    1  0.5401488E-001  0.3707549E+02  0.7818608E-02  0.1530906E+00
          4   -1    0    0  501    0  0.00000000000E+00  0.00000000000E+00  0.17039472541E+02  0.17098538665E+02  0.14200000000E+01 0. -1.
         -4   -1    0    0    0  501 -0.00000000000E+00 -0.00000000000E+00 -0.20048645304E+02  0.20098870080E+02  0.14200000000E+01 0.  1.
        -11    1    1    2    0    0 -0.76971022245E+01  0.67884837837E+01 -0.16992938637E+02  0.19851671429E+02  0.51100000000E-03 0.  1.
         11    1    1    2    0    0  0.76971022245E+01 -0.67884837837E+01  0.13983765875E+02  0.17345737316E+02  0.51100000000E-03 0. -1.
<mgrwt>
<rscale>  0 0.37075492E+02</rscale>
<asrwt>0</asrwt>
<pdfrwt beam="1">  1        4 0.26298643E-02 0.37075492E+02</pdfrwt>
<pdfrwt beam="2">  1       -4 0.30928140E-02 0.37075492E+02</pdfrwt>
<totfact> 0.31054452E+05</totfact>
</mgrwt>
</event>
<event>
 4    1  0.5401488E-001  0.4550897E+02  0.7818608E-02  0.1471189E+00
         -4   -1    0    0    0  501 -0.00000000000E+00  0.00000000000E+00  0.66542455870E+02  0.66557605374E+02  0.14200000000E+01 0.  1.
          4   -1    0    0  501    0  0.00000000000E+00 -0.00000000000E+00 -0.77000342193E+01  0.78298740078E+01  0.14200000000E+01 0. -1.
        -11    1    1    2    0    0 -0.48199152271E+01  0.22225714839E+02  0.28206074476E+02  0.36232535386E+02  0.51100000000E-03 0. -1.
         11    1    1    2    0    0  0.48199152271E+01 -0.22225714839E+02  0.30636347174E+02  0.38154943996E+02  0.51100000000E-03 0.  1.
<mgrwt>
<rscale>  0 0.45508972E+02</rscale>
<asrwt>0</asrwt>
<pdfrwt beam="2">  1        4 0.11957736E-02 0.45508972E+02</pdfrwt>
<pdfrwt beam="1">  1       -4 0.10248454E-01 0.45508972E+02</pdfrwt>
<totfact> 0.16901454E+05</totfact>
</mgrwt>
</event>
<event>
 4    1  0.5401488E-001  0.2751347E+02  0.7818608E-02  0.1627321E+00
          4   -1    0    0  501    0  0.00000000000E+00  0.00000000000E+00  0.21024744328E+02  0.21072642788E+02  0.14200000000E+01 0. -1.
         -4   -1    0    0    0  501 -0.00000000000E+00 -0.00000000000E+00 -0.88866216600E+01  0.89993580065E+01  0.14200000000E+01 0.  1.
        -11    1    1    2    0    0  0.12441610314E+02  0.55119234783E+01  0.82748570582E+01  0.15926337534E+02  0.51100000000E-03 0.  1.
         11    1    1    2    0    0 -0.12441610314E+02 -0.55119234783E+01  0.38632656101E+01  0.14145663261E+02  0.51100000000E-03 0. -1.
<mgrwt>
<rscale>  0 0.27513473E+02</rscale>
<asrwt>0</asrwt>
<pdfrwt beam="1">  1        4 0.32469326E-02 0.27513473E+02</pdfrwt>
<pdfrwt beam="2">  1       -4 0.13795291E-02 0.27513473E+02</pdfrwt>
<totfact> 0.63130285E+05</totfact>
</mgrwt>
</event>
<event>
 4    1  0.5401488E-001  0.3425610E+02  0.7818608E-02  0.1555308E+00
         -4   -1    0    0    0  501 -0.00000000000E+00  0.00000000000E+00  0.33764179377E+01  0.36628674683E+01  0.14200000000E+01 0. -1.
          4   -1    0    0  501    0  0.00000000000E+00 -0.00000000000E+00 -0.83059449846E+02  0.83071587253E+02  0.14200000000E+01 0.  1.
        -11    1    1    2    0    0 -0.29973238110E+01 -0.15939139341E+02 -0.53785577786E+02  0.56177651171E+02  0.51100000000E-03 0.  1.
         11    1    1    2    0    0  0.29973238110E+01  0.15939139341E+02 -0.25897454122E+02  0.30556803550E+02  0.51100000000E-03 0. -1.
<mgrwt>
<rscale>  0 0.34256095E+02</rscale>
<asrwt>0</asrwt>
<pdfrwt beam="2">  1        4 0.12801344E-01 0.34256095E+02</pdfrwt>
<pdfrwt beam="1">  1       -4 0.54241720E-03 0.34256095E+02</pdfrwt>
<totfact> 0.31950045E+05</totfact>
</mgrwt>
</event>
<event>
 4    1  0.5401488E-001  0.2378015E+02  0.7818608E-02  0.1679168E+00
          4   -1    0    0  501    0  0.00000000000E+00  0.00000000000E+00  0.16558534858E+01  0.21813415062E+01  0.14200000000E+01 0.  1.
         -4   -1    0    0    0  501 -0.00000000000E+00 -0.00000000000E+00 -0.73152725412E+02  0.73166506239E+02  0.14200000000E+01 0. -1.
        -11    1    1    2    0    0  0.28729654692E+01  0.10008180485E+02 -0.53938123549E+02  0.54933949243E+02  0.51100000000E-03 0. -1.
         11    1    1    2    0    0 -0.28729654692E+01 -0.10008180485E+02 -0.17558748377E+02  0.20413898502E+02  0.51100000000E-03 0.  1.
<mgrwt>
<rscale>  0 0.23780149E+02</rscale>
<asrwt>0</asrwt>
<pdfrwt beam="1">  1        4 0.29622897E-03 0.23780149E+02</pdfrwt>
<pdfrwt beam="2">  1       -4 0.11295745E-01 0.23780149E+02</pdfrwt>
<totfact> 0.73957368E+05</totfact>
</mgrwt>
</event>
<event>
 4    1  0.5401488E-001  0.3163085E+02  0.7818608E-02  0.1580731E+00
         -4   -1    0    0    0  501 -0.00000000000E+00  0.00000000000E+00  0.17223375611E+03  0.17223960968E+03  0.14200000000E+01 0. -1.
          4   -1    0    0  501    0  0.00000000000E+00 -0.00000000000E+00 -0.10978457507E+01  0.17948998001E+01  0.14200000000E+01 0.  1.
        -11    1    1    2    0    0 -0.14006615291E+02 -0.71634885098E+01  0.76650510228E+02  0.78248332621E+02  0.51100000000E-03 0. -1.
         11    1    1    2    0    0  0.14006615291E+02  0.71634885098E+01  0.94485400132E+02  0.95786176863E+02  0.51100000000E-03 0.  1.
<mgrwt>
<rscale>  0 0.31630850E+02</rscale>
<asrwt>0</asrwt>
<pdfrwt beam="2">  1        4 0.22296905E-03 0.31630850E+02</pdfrwt>
<pdfrwt beam="1">  1       -4 0.26551585E-01 0.31630850E+02</pdfrwt>
<totfact> 0.30704996E+05</totfact>
</mgrwt>
</event>
<event>
 4    1  0.5401488E-001  0.3530932E+02  0.7818608E-02  0.1545871E+00
         -4   -1    0    0    0  501 -0.00000000000E+00  0.00000000000E+00  0.57564532418E+01  0.59290095231E+01  0.14200000000E+01 0. -1.
          4   -1    0    0  501    0  0.00000000000E+00 -0.00000000000E+00 -0.53163945941E+02  0.53182906540E+02  0.14200000000E+01 0.  1.
        -11    1    1    2    0    0 -0.11100480525E+02  0.10662927923E+02 -0.38179613587E+02  0.41165538910E+02  0.51100000000E-03 0.  1.
         11    1    1    2    0    0  0.11100480525E+02 -0.10662927923E+02 -0.92278791119E+01  0.17946377153E+02  0.51100000000E-03 0. -1.
<mgrwt>
<rscale>  0 0.35309323E+02</rscale>
<asrwt>0</asrwt>
<pdfrwt beam="2">  1        4 0.81938003E-02 0.35309323E+02</pdfrwt>
<pdfrwt beam="1">  1       -4 0.90034030E-03 0.35309323E+02</pdfrwt>
<totfact> 0.32366500E+05</totfact>
</mgrwt>
</event>
<event>
 4    1  0.5401488E-001  0.3556000E+02  0.7818608E-02  0.1543683E+00
          4   -1    0    0  501    0  0.00000000000E+00  0.00000000000E+00  0.25058565892E+02  0.25098767392E+02  0.14200000000E+01 0. -1.
         -4   -1    0    0    0  501 -0.00000000000E+00 -0.00000000000E+00 -0.12525120568E+02  0.12605357799E+02  0.14200000000E+01 0.  1.
        -11    1    1    2    0    0  0.93127877874E+01  0.71378727214E+01  0.20430752301E+02  0.23560409232E+02  0.51100000000E-03 0. -1.
         11    1    1    2    0    0 -0.93127877874E+01 -0.71378727214E+01 -0.78973069764E+01  0.14143715958E+02  0.51100000000E-03 0.  1.
<mgrwt>
<rscale>  0 0.35560003E+02</rscale>
<asrwt>0</asrwt>
<pdfrwt beam="1">  1        4 0.38644284E-02 0.35560003E+02</pdfrwt>
<pdfrwt beam="2">  1       -4 0.19362062E-02 0.35560003E+02</pdfrwt>
<totfact> 0.34200556E+05</totfact>
</mgrwt>
</event>
<event>
 4    1  0.5401488E-001  0.3760597E+02  0.7818608E-02  0.1526606E+00
          4   -1    0    0  501    0  0.00000000000E+00  0.00000000000E+00  0.23981577006E+01  0.27870343301E+01  0.14200000000E+01 0. -1.
         -4   -1    0    0    0  501 -0.00000000000E+00 -0.00000000000E+00 -0.13597709541E+03  0.13598450969E+03  0.14200000000E+01 0.  1.
        -11    1    1    2    0    0 -0.12714209895E+02  0.11697366542E+02 -0.39404528863E+02  0.43025532099E+02  0.51100000000E-03 0. -1.
         11    1    1    2    0    0  0.12714209895E+02 -0.11697366542E+02 -0.94174408846E+02  0.95746011923E+02  0.51100000000E-03 0.  1.
<mgrwt>
<rscale>  0 0.37605968E+02</rscale>
<asrwt>0</asrwt>
<pdfrwt beam="1">  1        4 0.39943136E-03 0.37605968E+02</pdfrwt>
<pdfrwt beam="2">  1       -4 0.20950031E-01 0.37605968E+02</pdfrwt>
<totfact> 0.22479261E+05</totfact>
</mgrwt>
</event>
<event>
 4    1  0.5401488E-001  0.4711408E+02  0.7818608E-02  0.1461559E+00
          4   -1    0    0  501    0  0.00000000000E+00  0.00000000000E+00  0.81235228305E+02  0.81247638229E+02  0.14200000000E+01 0. -1.
         -4   -1    0    0    0  501 -0.00000000000E+00 -0.00000000000E+00 -0.67443306867E+01  0.68921982278E+01  0.14200000000E+01 0.  1.
        -11    1    1    2    0    0  0.86812333167E+01 -0.19522851421E+02  0.18685261669E+02  0.28383878231E+02  0.51100000000E-03 0.  1.
         11    1    1    2    0    0 -0.86812333167E+01  0.19522851421E+02  0.55805635949E+02  0.59755958225E+02  0.51100000000E-03 0. -1.
<mgrwt>
<rscale>  0 0.47114084E+02</rscale>
<asrwt>0</asrwt>
<pdfrwt beam="1">  1        4 0.12510056E-01 0.47114084E+02</pdfrwt>
<pdfrwt beam="2">  1       -4 0.10499184E-02 0.47114084E+02</pdfrwt>
<totfact> 0.14949440E+05</totfact>
</mgrwt>
</event>
<event>
 4    1  0.5401488E-001  0.5413057E+02  0.7818608E-02  0.1424256E+00
         -4   -1    0    0    0  501 -0.00000000000E+00  0.00000000000E+00  0.52146788988E+01  0.54045606683E+01  0.14200000000E+01 0.  1.
          4   -1    0    0  501    0  0.00000000000E+00 -0.00000000000E+00 -0.13776910107E+03  0.13777641892E+03  0.14200000000E+01 0. -1.
        -11    1    1    2    0    0  0.25354739539E+02 -0.87280085181E+01 -0.56562593379E+02  0.62596868290E+02  0.51100000000E-03 0. -1.
         11    1    1    2    0    0 -0.25354739539E+02  0.87280085181E+01 -0.75991828793E+02  0.80584111296E+02  0.51100000000E-03 0.  1.
<mgrwt>
<rscale>  0 0.54130565E+02</rscale>
<asrwt>0</asrwt>
<pdfrwt beam="2">  1        4 0.21210413E-01 0.54130565E+02</pdfrwt>
<pdfrwt beam="1">  1       -4 0.81742760E-03 0.54130565E+02</pdfrwt>
<totfact> 0.92633548E+04</totfact>
</mgrwt>
</event>
<event>
 4    1  0.5401488E-001  0.2094882E+02  0.7818608E-02  0.1727092E+00
          4   -1    0    0  501    0  0.00000000000E+00  0.00000000000E+00  0.21040764220E+02  0.21088626294E+02  0.14200000000E+01 0. -1.
         -4   -1    0    0    0  501 -0.00000000000E+00 -0.00000000000E+00 -0.50627349372E+01  0.52581066026E+01  0.14200000000E+01 0.  1.
        -11    1    1    2    0    0  0.74846965548E+01  0.73274872179E+01  0.79615486043E+01  0.13156709615E+02  0.51100000000E-03 0. -1.
         11    1    1    2    0    0 -0.74846965548E+01 -0.73274872179E+01  0.80164806788E+01  0.13190023282E+02  0.51100000000E-03 0.  1.
<mgrwt>
<rscale>  0 0.20948817E+02</rscale>
<asrwt>0</asrwt>
<pdfrwt beam="1">  1        4 0.32557510E-02 0.20948817E+02</pdfrwt>
<pdfrwt beam="2">  1       -4 0.79759258E-03 0.20948817E+02</pdfrwt>
<totfact> 0.11501233E+06</totfact>
</mgrwt>
</event>
<event>
 4    1  0.5401488E-001  0.2415592E+02  0.7818608E-02  0.1673430E+00
         -4   -1    0    0    0  501 -0.00000000000E+00  0.00000000000E+00  0.17833945362E+02  0.17890388681E+02  0.14200000000E+01 0.  1.
          4   -1    0    0  501    0  0.00000000000E+00 -0.00000000000E+00 -0.80481252822E+01  0.81724366353E+01  0.14200000000E+01 0. -1.
        -11    1    1    2    0    0  0.97450773977E+01 -0.52644030454E+01 -0.30358750765E+00  0.11080281519E+02  0.51100000000E-03 0. -1.
         11    1    1    2    0    0 -0.97450773977E+01  0.52644030454E+01  0.10089407587E+02  0.14982543797E+02  0.51100000000E-03 0.  1.
<mgrwt>
<rscale>  0 0.24155922E+02</rscale>
<asrwt>0</asrwt>
<pdfrwt beam="2">  1        4 0.12520773E-02 0.24155922E+02</pdfrwt>
<pdfrwt beam="1">  1       -4 0.27575881E-02 0.24155922E+02</pdfrwt>
<totfact> 0.85273151E+05</totfact>
</mgrwt>
</event>
<event>
 4    1  0.5401488E-001  0.3054859E+02  0.7818608E-02  0.1592103E+00
          4   -1    0    0  501    0  0.00000000000E+00  0.00000000000E+00  0.15497684060E+02  0.15562602971E+02  0.14200000000E+01 0.  1.
         -4   -1    0    0    0  501 -0.00000000000E+00 -0.00000000000E+00 -0.14923969571E+02  0.14991373111E+02  0.14200000000E+01 0. -1.
        -11    1    1    2    0    0  0.27338762446E+01 -0.14763800555E+02 -0.25172401900E+01  0.15224335276E+02  0.51100000000E-03 0. -1.
         11    1    1    2    0    0 -0.27338762446E+01  0.14763800555E+02  0.30909546796E+01  0.15329640806E+02  0.51100000000E-03 0.  1.
<mgrwt>
<rscale>  0 0.30548589E+02</rscale>
<asrwt>0</asrwt>
<pdfrwt beam="1">  1        4 0.23944377E-02 0.30548589E+02</pdfrwt>
<pdfrwt beam="2">  1       -4 0.23061740E-02 0.30548589E+02</pdfrwt>
<totfact> 0.49828503E+05</totfact>
</mgrwt>
</event>
<event>
 4    1  0.5401488E-001  0.7192428E+02  0.7818608E-02  0.1353669E+00
         -4   -1    0    0    0  501 -0.00000000000E+00  0.00000000000E+00  0.62452162455E+01  0.64046175493E+01  0.14200000000E+01 0.  1.
          4   -1    0    0  501    0  0.00000000000E+00 -0.00000000000E+00 -0.20431119799E+03  0.20431613256E+03  0.14200000000E+01 0. -1.
        -11    1    1    2    0    0 -0.33613629873E+02 -0.39806692068E+01 -0.13462123654E+03  0.13881137982E+03  0.51100000000E-03 0. -1.
         11    1    1    2    0    0  0.33613629873E+02  0.39806692068E+01 -0.63444745201E+02  0.71909370283E+02  0.51100000000E-03 0.  1.
<mgrwt>
<rscale>  0 0.71924275E+02</rscale>
<asrwt>0</asrwt>
<pdfrwt beam="2">  1        4 0.31445128E-01 0.71924275E+02</pdfrwt>
<pdfrwt beam="1">  1       -4 0.97344388E-03 0.71924275E+02</pdfrwt>
<totfact> 0.39066109E+04</totfact>
</mgrwt>
</event>
<event>
 4    1  0.5401488E-001  0.8187941E+02  0.7818608E-02  0.1323801E+00
         -4   -1    0    0    0  501 -0.00000000000E+00  0.00000000000E+00  0.58846178919E+02  0.58863309229E+02  0.14200000000E+01 0.  1.
          4   -1    0    0  501    0  0.00000000000E+00 -0.00000000000E+00 -0.28443057023E+02  0.28478481224E+02  0.14200000000E+01 0. -1.
        -11    1    1    2    0    0 -0.17492831503E+02 -0.58239295606E+01  0.54193400252E+02  0.57243706559E+02  0.51100000000E-03 0.  1.
         11    1    1    2    0    0  0.17492831503E+02  0.58239295606E+01 -0.23790278356E+02  0.30098083893E+02  0.51100000000E-03 0. -1.
<mgrwt>
<rscale>  0 0.81879415E+02</rscale>
<asrwt>0</asrwt>
<pdfrwt beam="2">  1        4 0.43798976E-02 0.81879415E+02</pdfrwt>
<pdfrwt beam="1">  1       -4 0.90573008E-02 0.81879415E+02</pdfrwt>
<totfact> 0.36423529E+04</totfact>
</mgrwt>
</event>
<event>
 4    1  0.5401488E-001  0.3779304E+02  0.7818608E-02  0.1525110E+00
         -4   -1    0    0    0  501 -0.00000000000E+00  0.00000000000E+00  0.76317674629E+02  0.76330884056E+02  0.14200000000E+01 0. -1.
          4   -1    0    0  501    0  0.00000000000E+00 -0.00000000000E+00 -0.45571648394E+01  0.47732747013E+01  0.14200000000E+01 0.  1.
        -11    1    1    2    0    0  0.44917372572E+01  0.14424354360E+02  0.60239169133E+02  0.62104711580E+02  0.51100000000E-03 0. -1.
         11    1    1    2    0    0 -0.44917372572E+01 -0.14424354360E+02  0.11521340657E+02  0.18999447178E+02  0.51100000000E-03 0.  1.
<mgrwt>
<rscale>  0 0.37793039E+02</rscale>
<asrwt>0</asrwt>
<pdfrwt beam="2">  1        4 0.71874224E-03 0.37793039E+02</pdfrwt>
<pdfrwt beam="1">  1       -4 0.11758821E-01 0.37793039E+02</pdfrwt>
<totfact> 0.25844275E+05</totfact>
</mgrwt>
</event>
<event>
 4    1  0.5401488E-001  0.5262506E+02  0.7818608E-02  0.1431676E+00
         -4   -1    0    0    0  501 -0.00000000000E+00  0.00000000000E+00  0.72648270475E+01  0.74023045081E+01  0.14200000000E+01 0.  1.
          4   -1    0    0  501    0  0.00000000000E+00 -0.00000000000E+00 -0.94265396722E+02  0.94276091451E+02  0.14200000000E+01 0. -1.
        -11    1    1    2    0    0  0.18217048150E+02  0.18139018685E+02 -0.54338206074E+02  0.60112606680E+02  0.51100000000E-03 0. -1.
         11    1    1    2    0    0 -0.18217048150E+02 -0.18139018685E+02 -0.32662363601E+02  0.41565789279E+02  0.51100000000E-03 0.  1.
<mgrwt>
<rscale>  0 0.52625061E+02</rscale>
<asrwt>0</asrwt>
<pdfrwt beam="2">  1        4 0.14513766E-01 0.52625061E+02</pdfrwt>
<pdfrwt beam="1">  1       -4 0.11290636E-02 0.52625061E+02</pdfrwt>
<totfact> 0.10987491E+05</totfact>
</mgrwt>
</event>
<event>
 4    1  0.5401488E-001  0.3972848E+02  0.7818608E-02  0.1510219E+00
          4   -1    0    0  501    0  0.00000000000E+00  0.00000000000E+00  0.50046127675E+02  0.50066269036E+02  0.14200000000E+01 0.  1.
         -4   -1    0    0    0  501 -0.00000000000E+00 -0.00000000000E+00 -0.77986319000E+01  0.79268568495E+01  0.14200000000E+01 0. -1.
        -11    1    1    2    0    0 -0.36951757689E+01  0.11302369673E+02 -0.21035099103E+01  0.12075704468E+02  0.51100000000E-03 0. -1.
         11    1    1    2    0    0  0.36951757689E+01 -0.11302369673E+02  0.44351005685E+02  0.45917421418E+02  0.51100000000E-03 0.  1.
<mgrwt>
<rscale>  0 0.39728475E+02</rscale>
<asrwt>0</asrwt>
<pdfrwt beam="1">  1        4 0.77108173E-02 0.39728475E+02</pdfrwt>
<pdfrwt beam="2">  1       -4 0.12112023E-02 0.39728475E+02</pdfrwt>
<totfact> 0.24608350E+05</totfact>
</mgrwt>
</event>
<event>
 4    1  0.5401488E-001  0.2340243E+02  0.7818608E-02  0.1685069E+00
          4   -1    0    0  501    0  0.00000000000E+00  0.00000000000E+00  0.16109322799E+01  0.21474409912E+01  0.14200000000E+01 0. -1.
         -4   -1    0    0    0  501 -0.00000000000E+00 -0.00000000000E+00 -0.72316010367E+02  0.72329950611E+02  0.14200000000E+01 0.  1.
        -11    1    1    2    0    0  0.67298806856E+01  0.88779864140E+01 -0.46742252611E+02  0.48051515233E+02  0.51100000000E-03 0.  1.
         11    1    1    2    0    0 -0.67298806856E+01 -0.88779864140E+01 -0.23962825477E+02  0.26425876370E+02  0.51100000000E-03 0. -1.
<mgrwt>
<rscale>  0 0.23402431E+02</rscale>
<asrwt>0</asrwt>
<pdfrwt beam="1">  1        4 0.29017802E-03 0.23402431E+02</pdfrwt>
<pdfrwt beam="2">  1       -4 0.11167880E-01 0.23402431E+02</pdfrwt>
<totfact> 0.76699575E+05</totfact>
</mgrwt>
</event>
<event>
 4    1  0.5401488E-001  0.6291083E+02  0.7818608E-02  0.1386007E+00
          4   -1    0    0  501    0  0.00000000000E+00  0.00000000000E+00  0.16939242613E+02  0.16998657015E+02  0.14200000000E+01 0.  1.
         -4   -1    0    0    0  501 -0.00000000000E+00 -0.00000000000E+00 -0.58240953671E+02  0.58258261942E+02  0.14200000000E+01 0. -1.
        -11    1    1    2    0    0  0.28169302396E+02 -0.13297525823E+02 -0.15421552125E+02  0.34758568162E+02  0.51100000000E-03 0.  1.
         11    1    1    2    0    0 -0.28169302396E+02  0.13297525823E+02 -0.25880158933E+02  0.40498350795E+02  0.51100000000E-03 0. -1.
<mgrwt>
<rscale>  0 0.62910830E+02</rscale>
<asrwt>0</asrwt>
<pdfrwt beam="1">  1        4 0.26119391E-02 0.62910830E+02</pdfrwt>
<pdfrwt beam="2">  1       -4 0.89660484E-02 0.62910830E+02</pdfrwt>
<totfact> 0.75004247E+04</totfact>
</mgrwt>
</event>
<event>
 4    1  0.5401488E-001  0.2126144E+02  0.7818608E-02  0.1721347E+00
          4   -1    0    0  501    0  0.00000000000E+00  0.00000000000E+00  0.40304914400E+01  0.42733196988E+01  0.14200000000E+01 0.  1.
         -4   -1    0    0    0  501 -0.00000000000E+00 -0.00000000000E+00 -0.26957285190E+02  0.26994659190E+02  0.14200000000E+01 0. -1.
        -11    1    1    2    0    0  0.65307981312E+01 -0.78467239289E+01 -0.15823489024E+02  0.18830964017E+02  0.51100000000E-03 0. -1.
         11    1    1    2    0    0 -0.65307981312E+01  0.78467239289E+01 -0.71033047257E+01  0.12437014872E+02  0.51100000000E-03 0.  1.
<mgrwt>
<rscale>  0 0.21261435E+02</rscale>
<asrwt>0</asrwt>
<pdfrwt beam="1">  1        4 0.64162964E-03 0.21261435E+02</pdfrwt>
<pdfrwt beam="2">  1       -4 0.41688286E-02 0.21261435E+02</pdfrwt>
<totfact> 0.10925806E+06</totfact>
</mgrwt>
</event>
<event>
 4    1  0.5401488E-001  0.2232897E+02  0.7818608E-02  0.1702624E+00
         -4   -1    0    0    0  501 -0.00000000000E+00  0.00000000000E+00  0.53134016811E+01  0.54998761282E+01  0.14200000000E+01 0.  1.
          4   -1    0    0  501    0  0.00000000000E+00 -0.00000000000E+00 -0.22845291007E+02  0.22889380096E+02  0.14200000000E+01 0. -1.
        -11    1    1    2    0    0  0.33693003666E+01  0.94220527583E+01 -0.24704244411E+01  0.10306806504E+02  0.51100000000E-03 0. -1.
         11    1    1    2    0    0 -0.33693003666E+01 -0.94220527583E+01 -0.15061464884E+02  0.18082449720E+02  0.51100000000E-03 0.  1.
<mgrwt>
<rscale>  0 0.22328966E+02</rscale>
<asrwt>0</asrwt>
<pdfrwt beam="2">  1        4 0.35323958E-02 0.22328966E+02</pdfrwt>
<pdfrwt beam="1">  1       -4 0.83518208E-03 0.22328966E+02</pdfrwt>
<totfact> 0.99806628E+05</totfact>
</mgrwt>
</event>
<event>
 4    1  0.5401488E-001  0.4009971E+02  0.7818608E-02  0.1507479E+00
          4   -1    0    0  501    0  0.00000000000E+00  0.00000000000E+00  0.26179476570E+02  0.26217959369E+02  0.14200000000E+01 0.  1.
         -4   -1    0    0    0  501 -0.00000000000E+00 -0.00000000000E+00 -0.15272695515E+02  0.15338566696E+02  0.14200000000E+01 0. -1.
        -11    1    1    2    0    0 -0.10675050897E+02 -0.12511935689E+02  0.17336957284E+02  0.23897182563E+02  0.51100000000E-03 0.  1.
         11    1    1    2    0    0  0.10675050897E+02  0.12511935689E+02 -0.64301762283E+01  0.17659343502E+02  0.51100000000E-03 0. -1.
<mgrwt>
<rscale>  0 0.40099713E+02</rscale>
<asrwt>0</asrwt>
<pdfrwt beam="1">  1        4 0.40356389E-02 0.40099713E+02</pdfrwt>
<pdfrwt beam="2">  1       -4 0.23576727E-02 0.40099713E+02</pdfrwt>
<totfact> 0.25387122E+05</totfact>
</mgrwt>
</event>
<event>
 4    1  0.5401488E-001  0.3000114E+02  0.7818608E-02  0.1598076E+00
          4   -1    0    0  501    0  0.00000000000E+00  0.00000000000E+00  0.89131367382E+02  0.89142678058E+02  0.14200000000E+01 0.  1.
         -4   -1    0    0    0  501 -0.00000000000E+00 -0.00000000000E+00 -0.23124801784E+01  0.27136625758E+01  0.14200000000E+01 0. -1.
        -11    1    1    2    0    0  0.13576322993E+02  0.31343079571E+01  0.60422651027E+02  0.62008363869E+02  0.51100000000E-03 0.  1.
         11    1    1    2    0    0 -0.13576322993E+02 -0.31343079571E+01  0.26396236176E+02  0.29847976764E+02  0.51100000000E-03 0. -1.
<mgrwt>
<rscale>  0 0.30001136E+02</rscale>
<asrwt>0</asrwt>
<pdfrwt beam="1">  1        4 0.13744248E-01 0.30001136E+02</pdfrwt>
<pdfrwt beam="2">  1       -4 0.38749643E-03 0.30001136E+02</pdfrwt>
<totfact> 0.42514181E+05</totfact>
</mgrwt>
</event>
<event>
 4    1  0.5401488E-001  0.2546519E+02  0.7818608E-02  0.1654409E+00
          4   -1    0    0  501    0  0.00000000000E+00  0.00000000000E+00  0.44518188107E+02  0.44540829273E+02  0.14200000000E+01 0. -1.
         -4   -1    0    0    0  501 -0.00000000000E+00 -0.00000000000E+00 -0.34787033067E+01  0.37573629976E+01  0.14200000000E+01 0.  1.
        -11    1    1    2    0    0  0.24036792674E+00  0.11046804553E+02  0.85199658282E+01  0.13952759066E+02  0.51100000000E-03 0. -1.
         11    1    1    2    0    0 -0.24036792674E+00 -0.11046804553E+02  0.32519518972E+02  0.34345433205E+02  0.51100000000E-03 0.  1.
<mgrwt>
<rscale>  0 0.25465193E+02</rscale>
<asrwt>0</asrwt>
<pdfrwt beam="1">  1        4 0.68721283E-02 0.25465193E+02</pdfrwt>
<pdfrwt beam="2">  1       -4 0.55836217E-03 0.25465193E+02</pdfrwt>
<totfact> 0.69886734E+05</totfact>
</mgrwt>
</event>
<event>
 4    1  0.5401488E-001  0.3046776E+02  0.7818608E-02  0.1592975E+00
          4   -1    0    0  501    0  0.00000000000E+00  0.00000000000E+00  0.94412313150E+01  0.95474210520E+01  0.14200000000E+01 0.  1.
         -4   -1    0    0    0  501 -0.00000000000E+00 -0.00000000000E+00 -0.24316110428E+02  0.24357537363E+02  0.14200000000E+01 0. -1.
        -11    1    1    2    0    0 -0.14921512937E+02 -0.27621978614E+01 -0.89261833268E+01  0.17605625079E+02  0.51100000000E-03 0. -1.
         11    1    1    2    0    0  0.14921512937E+02  0.27621978614E+01 -0.59486957866E+01  0.16299333336E+02  0.51100000000E-03 0.  1.
<mgrwt>
<rscale>  0 0.30467756E+02</rscale>
<asrwt>0</asrwt>
<pdfrwt beam="1">  1        4 0.14638523E-02 0.30467756E+02</pdfrwt>
<pdfrwt beam="2">  1       -4 0.37522952E-02 0.30467756E+02</pdfrwt>
<totfact> 0.49497563E+05</totfact>
</mgrwt>
</event>
<event>
 4    1  0.5401488E-001  0.2415747E+02  0.7818608E-02  0.1673407E+00
         -4   -1    0    0    0  501 -0.00000000000E+00  0.00000000000E+00  0.82057520689E+02  0.82069806272E+02  0.14200000000E+01 0.  1.
          4   -1    0    0  501    0  0.00000000000E+00 -0.00000000000E+00 -0.14800065937E+01  0.20510532703E+01  0.14200000000E+01 0. -1.
        -11    1    1    2    0    0  0.94008298389E+01 -0.74966191470E+01  0.36286651748E+02  0.38226901465E+02  0.51100000000E-03 0.  1.
         11    1    1    2    0    0 -0.94008298389E+01  0.74966191470E+01  0.44290862347E+02  0.45893958078E+02  0.51100000000E-03 0. -1.
<mgrwt>
<rscale>  0 0.24157467E+02</rscale>
<asrwt>0</asrwt>
<pdfrwt beam="2">  1        4 0.27256508E-03 0.24157467E+02</pdfrwt>
<pdfrwt beam="1">  1       -4 0.12669103E-01 0.24157467E+02</pdfrwt>
<totfact> 0.69643313E+05</totfact>
</mgrwt>
</event>
<event>
 4    1  0.5401488E-001  0.2768147E+02  0.7818608E-02  0.1625228E+00
         -4   -1    0    0    0  501 -0.00000000000E+00  0.00000000000E+00  0.30397651474E+02  0.30430800435E+02  0.14200000000E+01 0.  1.
          4   -1    0    0  501    0  0.00000000000E+00 -0.00000000000E+00 -0.61849132234E+01  0.63458294635E+01  0.14200000000E+01 0. -1.
        -11    1    1    2    0    0  0.48117842764E+01 -0.12578952078E+02  0.78668834402E+01  0.15597152260E+02  0.51100000000E-03 0. -1.
         11    1    1    2    0    0 -0.48117842764E+01  0.12578952078E+02  0.16345854810E+02  0.21179477638E+02  0.51100000000E-03 0.  1.
<mgrwt>
<rscale>  0 0.27681471E+02</rscale>
<asrwt>0</asrwt>
<pdfrwt beam="2">  1        4 0.96645322E-03 0.27681471E+02</pdfrwt>
<pdfrwt beam="1">  1       -4 0.46914898E-02 0.27681471E+02</pdfrwt>
<totfact> 0.60704864E+05</totfact>
</mgrwt>
</event>
<event>
 4    1  0.5401488E-001  0.2631374E+02  0.7818608E-02  0.1642819E+00
         -4   -1    0    0    0  501 -0.00000000000E+00  0.00000000000E+00  0.10126930093E+02  0.10226001814E+02  0.14200000000E+01 0. -1.
          4   -1    0    0  501    0  0.00000000000E+00 -0.00000000000E+00 -0.16881125520E+02  0.16940743750E+02  0.14200000000E+01 0.  1.
        -11    1    1    2    0    0 -0.58613590350E+01  0.11490548689E+02 -0.70176587489E+00  0.12918231865E+02  0.51100000000E-03 0. -1.
         11    1    1    2    0    0  0.58613590350E+01 -0.11490548689E+02 -0.60524295522E+01  0.14248513700E+02  0.51100000000E-03 0.  1.
<mgrwt>
<rscale>  0 0.26313740E+02</rscale>
<asrwt>0</asrwt>
<pdfrwt beam="2">  1        4 0.26093032E-02 0.26313740E+02</pdfrwt>
<pdfrwt beam="1">  1       -4 0.15701962E-02 0.26313740E+02</pdfrwt>
<totfact> 0.70467955E+05</totfact>
</mgrwt>
</event>
<event>
 4    1  0.5401488E-001  0.5616163E+02  0.7818608E-02  0.1414684E+00
          4   -1    0    0  501    0  0.00000000000E+00  0.00000000000E+00  0.50113577374E+02  0.50133691638E+02  0.14200000000E+01 0. -1.
         -4   -1    0    0    0  501 -0.00000000000E+00 -0.00000000000E+00 -0.15679537980E+02  0.15743707037E+02  0.14200000000E+01 0.  1.
        -11    1    1    2    0    0  0.10680442915E+02 -0.82119591480E+01 -0.11683102561E+02  0.17832639166E+02  0.51100000000E-03 0.  1.
         11    1    1    2    0    0 -0.10680442915E+02  0.82119591480E+01  0.46117141956E+02  0.48044759509E+02  0.51100000000E-03 0. -1.
<mgrwt>
<rscale>  0 0.56161629E+02</rscale>
<asrwt>0</asrwt>
<pdfrwt beam="1">  1        4 0.77162643E-02 0.56161629E+02</pdfrwt>
<pdfrwt beam="2">  1       -4 0.24187200E-02 0.56161629E+02</pdfrwt>
<totfact> 0.10276973E+05</totfact>
</mgrwt>
</event>
<event>
 4    1  0.5401488E-001  0.2875442E+02  0.7818608E-02  0.1612279E+00
         -4   -1    0    0    0  501 -0.00000000000E+00  0.00000000000E+00  0.18636495022E+02  0.18690514886E+02  0.14200000000E+01 0. -1.
          4   -1    0    0  501    0  0.00000000000E+00 -0.00000000000E+00 -0.10975492164E+02  0.11066970147E+02  0.14200000000E+01 0.  1.
        -11    1    1    2    0    0 -0.10168353183E+02 -0.62308408529E+01  0.12140910774E+02  0.17018240182E+02  0.51100000000E-03 0.  1.
         11    1    1    2    0    0  0.10168353183E+02  0.62308408529E+01 -0.44799079161E+01  0.12739244852E+02  0.51100000000E-03 0. -1.
<mgrwt>
<rscale>  0 0.28754425E+02</rscale>
<asrwt>0</asrwt>
<pdfrwt beam="2">  1        4 0.16997294E-02 0.28754425E+02</pdfrwt>
<pdfrwt beam="1">  1       -4 0.28783452E-02 0.28754425E+02</pdfrwt>
<totfact> 0.57297084E+05</totfact>
</mgrwt>
</event>
<event>
 4    1  0.5401488E-001  0.7746723E+02  0.7818608E-02  0.1336397E+00
          4   -1    0    0  501    0  0.00000000000E+00  0.00000000000E+00  0.30359206290E+02  0.30392397184E+02  0.14200000000E+01 0. -1.
         -4   -1    0    0    0  501 -0.00000000000E+00 -0.00000000000E+00 -0.49347644814E+02  0.49368071146E+02  0.14200000000E+01 0.  1.
        -11    1    1    2    0    0 -0.17196239965E+02 -0.67628258058E+01  0.25555344186E+02  0.31536044434E+02  0.51100000000E-03 0. -1.
         11    1    1    2    0    0  0.17196239965E+02  0.67628258058E+01 -0.44543782709E+02  0.48224423896E+02  0.51100000000E-03 0.  1.
<mgrwt>
<rscale>  0 0.77467229E+02</rscale>
<asrwt>0</asrwt>
<pdfrwt beam="1">  1        4 0.46747715E-02 0.77467229E+02</pdfrwt>
<pdfrwt beam="2">  1       -4 0.75960697E-02 0.77467229E+02</pdfrwt>
<totfact> 0.43028493E+04</totfact>
</mgrwt>
</event>
<event>
 4    1  0.5401488E-001  0.2017256E+02  0.7818608E-02  0.1741918E+00
         -4   -1    0    0    0  501 -0.00000000000E+00  0.00000000000E+00  0.39701931190E+02  0.39727317305E+02  0.14200000000E+01 0. -1.
          4   -1    0    0  501    0  0.00000000000E+00 -0.00000000000E+00 -0.23373849276E+01  0.27349165069E+01  0.14200000000E+01 0.  1.
        -11    1    1    2    0    0 -0.31214833644E-01  0.10085964748E+02  0.18528508198E+02  0.21095811801E+02  0.51100000000E-03 0. -1.
         11    1    1    2    0    0  0.31214833644E-01 -0.10085964748E+02  0.18836038065E+02  0.21366422010E+02  0.51100000000E-03 0.  1.
<mgrwt>
<rscale>  0 0.20172555E+02</rscale>
<asrwt>0</asrwt>
<pdfrwt beam="2">  1        4 0.39212986E-03 0.20172555E+02</pdfrwt>
<pdfrwt beam="1">  1       -4 0.61405208E-02 0.20172555E+02</pdfrwt>
<totfact> 0.11645188E+06</totfact>
</mgrwt>
</event>
<event>
 4    1  0.5401488E-001  0.3192849E+02  0.7818608E-02  0.1577700E+00
         -4   -1    0    0    0  501 -0.00000000000E+00  0.00000000000E+00  0.90357257779E+01  0.91466245322E+01  0.14200000000E+01 0. -1.
          4   -1    0    0  501    0  0.00000000000E+00 -0.00000000000E+00 -0.27904404994E+02  0.27940512129E+02  0.14200000000E+01 0.  1.
        -11    1    1    2    0    0 -0.11942882576E+02  0.85144246049E+01 -0.16755843520E+02  0.22268501586E+02  0.51100000000E-03 0.  1.
         11    1    1    2    0    0  0.11942882576E+02 -0.85144246049E+01 -0.21128356962E+01  0.14818635076E+02  0.51100000000E-03 0. -1.
<mgrwt>
<rscale>  0 0.31928493E+02</rscale>
<asrwt>0</asrwt>
<pdfrwt beam="2">  1        4 0.43042935E-02 0.31928493E+02</pdfrwt>
<pdfrwt beam="1">  1       -4 0.14014198E-02 0.31928493E+02</pdfrwt>
<totfact> 0.43966765E+05</totfact>
</mgrwt>
</event>
<event>
 4    1  0.5401488E-001  0.8714665E+02  0.7818608E-02  0.1309912E+00
         -4   -1    0    0    0  501 -0.00000000000E+00  0.00000000000E+00  0.10607072628E+02  0.10701700320E+02  0.14200000000E+01 0.  1.
          4   -1    0    0  501    0  0.00000000000E+00 -0.00000000000E+00 -0.17810468789E+03  0.17811034851E+03  0.14200000000E+01 0. -1.
        -11    1    1    2    0    0 -0.23131528520E+02  0.36487573436E+02 -0.96047784856E+02  0.10531660649E+03  0.51100000000E-03 0. -1.
         11    1    1    2    0    0  0.23131528520E+02 -0.36487573436E+02 -0.71449830405E+02  0.83495442343E+02  0.51100000000E-03 0.  1.
<mgrwt>
<rscale>  0 0.87146650E+02</rscale>
<asrwt>0</asrwt>
<pdfrwt beam="2">  1        4 0.27408434E-01 0.87146650E+02</pdfrwt>
<pdfrwt beam="1">  1       -4 0.16395719E-02 0.87146650E+02</pdfrwt>
<totfact> 0.24664272E+04</totfact>
</mgrwt>
</event>
<event>
 4    1  0.5401488E-001  0.3338225E+02  0.7818608E-02  0.1563454E+00
         -4   -1    0    0    0  501 -0.00000000000E+00  0.00000000000E+00  0.46400198096E+02  0.46421921367E+02  0.14200000000E+01 0. -1.
          4   -1    0    0  501    0  0.00000000000E+00 -0.00000000000E+00 -0.58967152981E+01  0.60652824590E+01  0.14200000000E+01 0.  1.
        -11    1    1    2    0    0 -0.19565052728E+01 -0.14830854384E+02  0.86111904244E+01  0.17260786640E+02  0.51100000000E-03 0.  1.
         11    1    1    2    0    0  0.19565052728E+01  0.14830854384E+02  0.31892292374E+02  0.35226417186E+02  0.51100000000E-03 0. -1.
<mgrwt>
<rscale>  0 0.33382247E+02</rscale>
<asrwt>0</asrwt>
<pdfrwt beam="2">  1        4 0.92182472E-03 0.33382247E+02</pdfrwt>
<pdfrwt beam="1">  1       -4 0.71531296E-02 0.33382247E+02</pdfrwt>
<totfact> 0.37639613E+05</totfact>
</mgrwt>
</event>
<event>
 4    1  0.5401488E-001  0.3313331E+02  0.7818608E-02  0.1565831E+00
         -4   -1    0    0    0  501 -0.00000000000E+00  0.00000000000E+00  0.20347431269E+02  0.20396920337E+02  0.14200000000E+01 0. -1.
          4   -1    0    0  501    0  0.00000000000E+00 -0.00000000000E+00 -0.13384912849E+02  0.13460025705E+02  0.14200000000E+01 0.  1.
        -11    1    1    2    0    0 -0.82439541769E+01 -0.77789129274E+01 -0.88648271019E+01  0.14389559639E+02  0.51100000000E-03 0.  1.
         11    1    1    2    0    0  0.82439541769E+01  0.77789129274E+01  0.15827345522E+02  0.19467386403E+02  0.51100000000E-03 0. -1.
<mgrwt>
<rscale>  0 0.33133309E+02</rscale>
<asrwt>0</asrwt>
<pdfrwt beam="2">  1        4 0.20688021E-02 0.33133309E+02</pdfrwt>
<pdfrwt beam="1">  1       -4 0.31399588E-02 0.33133309E+02</pdfrwt>
<totfact> 0.40859065E+05</totfact>
</mgrwt>
</event>
<event>
 4    1  0.5401488E-001  0.2083479E+02  0.7818608E-02  0.1729219E+00
         -4   -1    0    0    0  501 -0.00000000000E+00  0.00000000000E+00  0.75522346550E+01  0.76845720951E+01  0.14200000000E+01 0. -1.
          4   -1    0    0  501    0  0.00000000000E+00 -0.00000000000E+00 -0.14076360214E+02  0.14147802546E+02  0.14200000000E+01 0.  1.
        -11    1    1    2    0    0  0.81879753695E+01  0.62827555841E+01 -0.47462606523E+01  0.11359707251E+02  0.51100000000E-03 0.  1.
         11    1    1    2    0    0 -0.81879753695E+01 -0.62827555841E+01 -0.17778649069E+01  0.10472667390E+02  0.51100000000E-03 0. -1.
<mgrwt>
<rscale>  0 0.20834787E+02</rscale>
<asrwt>0</asrwt>
<pdfrwt beam="2">  1        4 0.21812693E-02 0.20834787E+02</pdfrwt>
<pdfrwt beam="1">  1       -4 0.11775576E-02 0.20834787E+02</pdfrwt>
<totfact> 0.11864052E+06</totfact>
</mgrwt>
</event>
<event>
 4    1  0.5401488E-001  0.4125478E+02  0.7818608E-02  0.1499176E+00
          4   -1    0    0  501    0  0.00000000000E+00  0.00000000000E+00  0.10470426618E+02  0.10566278132E+02  0.14200000000E+01 0. -1.
         -4   -1    0    0    0  501 -0.00000000000E+00 -0.00000000000E+00 -0.40343676841E+02  0.40368659391E+02  0.14200000000E+01 0.  1.
        -11    1    1    2    0    0  0.51869543615E+01  0.10675103245E+02 -0.35766154731E+02  0.37683950819E+02  0.51100000000E-03 0.  1.
         11    1    1    2    0    0 -0.51869543615E+01 -0.10675103245E+02  0.58929045080E+01  0.13250986704E+02  0.51100000000E-03 0. -1.
<mgrwt>
<rscale>  0 0.41254779E+02</rscale>
<asrwt>0</asrwt>
<pdfrwt beam="1">  1        4 0.16201298E-02 0.41254779E+02</pdfrwt>
<pdfrwt beam="2">  1       -4 0.62160144E-02 0.41254779E+02</pdfrwt>
<totfact> 0.22997887E+05</totfact>
</mgrwt>
</event>
<event>
 4    1  0.5401488E-001  0.2729107E+02  0.7818608E-02  0.1630120E+00
         -4   -1    0    0    0  501 -0.00000000000E+00  0.00000000000E+00  0.20237838870E+02  0.20287595277E+02  0.14200000000E+01 0.  1.
          4   -1    0    0  501    0  0.00000000000E+00 -0.00000000000E+00 -0.90843443623E+01  0.91946567360E+01  0.14200000000E+01 0. -1.
        -11    1    1    2    0    0 -0.84696022630E+01 -0.68904323233E+01 -0.32650394812E+01  0.11396170548E+02  0.51100000000E-03 0. -1.
         11    1    1    2    0    0  0.84696022630E+01  0.68904323233E+01  0.14418533989E+02  0.18086081465E+02  0.51100000000E-03 0.  1.
<mgrwt>
<rscale>  0 0.27291074E+02</rscale>
<asrwt>0</asrwt>
<pdfrwt beam="2">  1        4 0.14099044E-02 0.27291074E+02</pdfrwt>
<pdfrwt beam="1">  1       -4 0.31258266E-02 0.27291074E+02</pdfrwt>
<totfact> 0.64424491E+05</totfact>
</mgrwt>
</event>
<event>
 4    1  0.5401488E-001  0.3873774E+02  0.7818608E-02  0.1517711E+00
         -4   -1    0    0    0  501 -0.00000000000E+00  0.00000000000E+00  0.42975389202E+02  0.42998842741E+02  0.14200000000E+01 0.  1.
          4   -1    0    0  501    0  0.00000000000E+00 -0.00000000000E+00 -0.86457176972E+01  0.87615543427E+01  0.14200000000E+01 0. -1.
        -11    1    1    2    0    0 -0.17316900263E+02  0.63950247559E+01  0.93300504777E+01  0.20683839550E+02  0.51100000000E-03 0. -1.
         11    1    1    2    0    0  0.17316900263E+02 -0.63950247559E+01  0.24999621027E+02  0.31076557533E+02  0.51100000000E-03 0.  1.
<mgrwt>
<rscale>  0 0.38737738E+02</rscale>
<asrwt>0</asrwt>
<pdfrwt beam="2">  1        4 0.13408250E-02 0.38737738E+02</pdfrwt>
<pdfrwt beam="1">  1       -4 0.66223130E-02 0.38737738E+02</pdfrwt>
<totfact> 0.26651630E+05</totfact>
</mgrwt>
</event>
<event>
 4    1  0.5401488E-001  0.4767487E+02  0.7818608E-02  0.1458302E+00
         -4   -1    0    0    0  501 -0.00000000000E+00  0.00000000000E+00  0.68164418680E+01  0.69627781625E+01  0.14200000000E+01 0. -1.
          4   -1    0    0  501    0  0.00000000000E+00 -0.00000000000E+00 -0.82322858848E+02  0.82335104839E+02  0.14200000000E+01 0.  1.
        -11    1    1    2    0    0  0.19391783500E+02  0.69961728844E+01 -0.60170185493E+02  0.63603765021E+02  0.51100000000E-03 0.  1.
         11    1    1    2    0    0 -0.19391783500E+02 -0.69961728844E+01 -0.15336231487E+02  0.25694117981E+02  0.51100000000E-03 0. -1.
<mgrwt>
<rscale>  0 0.47674867E+02</rscale>
<asrwt>0</asrwt>
<pdfrwt beam="2">  1        4 0.12677253E-01 0.47674867E+02</pdfrwt>
<pdfrwt beam="1">  1       -4 0.10608821E-02 0.47674867E+02</pdfrwt>
<totfact> 0.14478013E+05</totfact>
</mgrwt>
</event>
<event>
 4    1  0.5401488E-001  0.3711749E+02  0.7818608E-02  0.1530562E+00
          4   -1    0    0  501    0  0.00000000000E+00  0.00000000000E+00  0.14328448415E+02  0.14398640004E+02  0.14200000000E+01 0. -1.
         -4   -1    0    0    0  501 -0.00000000000E+00 -0.00000000000E+00 -0.23887925054E+02  0.23930093259E+02  0.14200000000E+01 0.  1.
        -11    1    1    2    0    0 -0.98657321379E+01  0.36671398133E+01 -0.20564042869E+02  0.23101091844E+02  0.51100000000E-03 0.  1.
         11    1    1    2    0    0  0.98657321379E+01 -0.36671398133E+01  0.11004566229E+02  0.15227641419E+02  0.51100000000E-03 0. -1.
<mgrwt>
<rscale>  0 0.37117492E+02</rscale>
<asrwt>0</asrwt>
<pdfrwt beam="1">  1        4 0.22130197E-02 0.37117492E+02</pdfrwt>
<pdfrwt beam="2">  1       -4 0.36837085E-02 0.37117492E+02</pdfrwt>
<totfact> 0.30848500E+05</totfact>
</mgrwt>
</event>
<event>
 4    1  0.5401488E-001  0.3279553E+02  0.7818608E-02  0.1569096E+00
         -4   -1    0    0    0  501 -0.00000000000E+00  0.00000000000E+00  0.21501521020E+02  0.21548359710E+02  0.14200000000E+01 0. -1.
          4   -1    0    0  501    0  0.00000000000E+00 -0.00000000000E+00 -0.12404480582E+02  0.12485493122E+02  0.14200000000E+01 0.  1.
        -11    1    1    2    0    0 -0.15206518383E+02  0.48693244608E+00 -0.17989205192E+01  0.15320294378E+02  0.51100000000E-03 0.  1.
         11    1    1    2    0    0  0.15206518383E+02 -0.48693244608E+00  0.10895960957E+02  0.18713558453E+02  0.51100000000E-03 0. -1.
<mgrwt>
<rscale>  0 0.32795533E+02</rscale>
<asrwt>0</asrwt>
<pdfrwt beam="2">  1        4 0.19182163E-02 0.32795533E+02</pdfrwt>
<pdfrwt beam="1">  1       -4 0.33177610E-02 0.32795533E+02</pdfrwt>
<totfact> 0.41807970E+05</totfact>
</mgrwt>
</event>
<event>
 4    1  0.5401488E-001  0.2529233E+02  0.7818608E-02  0.1656838E+00
         -4   -1    0    0    0  501 -0.00000000000E+00  0.00000000000E+00  0.27631590696E+02  0.27668053860E+02  0.14200000000E+01 0. -1.
          4   -1    0    0  501    0  0.00000000000E+00 -0.00000000000E+00 -0.56597324991E+01  0.58351496949E+01  0.14200000000E+01 0.  1.
        -11    1    1    2    0    0 -0.60159166097E+01  0.10179989275E+02  0.50468644990E+01  0.12856682147E+02  0.51100000000E-03 0.  1.
         11    1    1    2    0    0  0.60159166097E+01 -0.10179989275E+02  0.16924993698E+02  0.20646521407E+02  0.51100000000E-03 0. -1.
<mgrwt>
<rscale>  0 0.25292333E+02</rscale>
<asrwt>0</asrwt>
<pdfrwt beam="2">  1        4 0.88702655E-03 0.25292333E+02</pdfrwt>
<pdfrwt beam="1">  1       -4 0.42673125E-02 0.25292333E+02</pdfrwt>
<totfact> 0.74926404E+05</totfact>
</mgrwt>
</event>
<event>
 4    1  0.5401488E-001  0.2887656E+02  0.7818608E-02  0.1610849E+00
          4   -1    0    0  501    0  0.00000000000E+00  0.00000000000E+00  0.26767548254E+01  0.30300852125E+01  0.14200000000E+01 0.  1.
         -4   -1    0    0    0  501 -0.00000000000E+00 -0.00000000000E+00 -0.72696883206E+02  0.72710750429E+02  0.14200000000E+01 0. -1.
        -11    1    1    2    0    0 -0.11347091744E+02 -0.85282565361E+01 -0.28082234512E+02  0.31465847296E+02  0.51100000000E-03 0. -1.
         11    1    1    2    0    0  0.11347091744E+02  0.85282565361E+01 -0.41937893869E+02  0.44274988346E+02  0.51100000000E-03 0.  1.
<mgrwt>
<rscale>  0 0.28876562E+02</rscale>
<asrwt>0</asrwt>
<pdfrwt beam="1">  1        4 0.44005446E-03 0.28876562E+02</pdfrwt>
<pdfrwt beam="2">  1       -4 0.11212380E-01 0.28876562E+02</pdfrwt>
<totfact> 0.48524033E+05</totfact>
</mgrwt>
</event>
<event>
 4    1  0.5401488E-001  0.5318503E+02  0.7818608E-02  0.1428882E+00
         -4   -1    0    0    0  501 -0.00000000000E+00  0.00000000000E+00  0.12493642525E+02  0.12574080624E+02  0.14200000000E+01 0. -1.
          4   -1    0    0  501    0  0.00000000000E+00 -0.00000000000E+00 -0.56330692649E+02  0.56348587687E+02  0.14200000000E+01 0.  1.
        -11    1    1    2    0    0 -0.21919185003E+02  0.92966996302E-01 -0.41430482446E+02  0.46871571234E+02  0.51100000000E-03 0.  1.
         11    1    1    2    0    0  0.21919185003E+02 -0.92966996302E-01 -0.24065676784E+01  0.22051097077E+02  0.51100000000E-03 0. -1.
<mgrwt>
<rscale>  0 0.53185028E+02</rscale>
<asrwt>0</asrwt>
<pdfrwt beam="2">  1        4 0.86738244E-02 0.53185028E+02</pdfrwt>
<pdfrwt beam="1">  1       -4 0.19296630E-02 0.53185028E+02</pdfrwt>
<totfact> 0.11686301E+05</totfact>
</mgrwt>
</event>
<event>
 4    1  0.5401488E-001  0.2399728E+02  0.7818608E-02  0.1675836E+00
         -4   -1    0    0    0  501 -0.00000000000E+00  0.00000000000E+00  0.11820358213E+02  0.11905346206E+02  0.14200000000E+01 0.  1.
          4   -1    0    0  501    0  0.00000000000E+00 -0.00000000000E+00 -0.12009016564E+02  0.12092678729E+02  0.14200000000E+01 0. -1.
        -11    1    1    2    0    0 -0.21423990460E+01  0.11659918005E+02 -0.19447485855E+01  0.12013559376E+02  0.51100000000E-03 0.  1.
         11    1    1    2    0    0  0.21423990460E+01 -0.11659918005E+02  0.17560902343E+01  0.11984465559E+02  0.51100000000E-03 0. -1.
<mgrwt>
<rscale>  0 0.23997283E+02</rscale>
<asrwt>0</asrwt>
<pdfrwt beam="2">  1        4 0.18605141E-02 0.23997283E+02</pdfrwt>
<pdfrwt beam="1">  1       -4 0.18314897E-02 0.23997283E+02</pdfrwt>
<totfact> 0.87240573E+05</totfact>
</mgrwt>
</event>
<event>
 4    1  0.5401488E-001  0.4944507E+02  0.7818608E-02  0.1448358E+00
         -4   -1    0    0    0  501 -0.00000000000E+00  0.00000000000E+00  0.13738256674E+02  0.13811448021E+02  0.14200000000E+01 0. -1.
          4   -1    0    0  501    0  0.00000000000E+00 -0.00000000000E+00 -0.44286381799E+02  0.44309141414E+02  0.14200000000E+01 0.  1.
        -11    1    1    2    0    0  0.14142756664E+01  0.24612826730E+02 -0.17445424853E+02  0.30201560620E+02  0.51100000000E-03 0.  1.
         11    1    1    2    0    0 -0.14142756664E+01 -0.24612826730E+02 -0.13102700272E+02  0.27919028815E+02  0.51100000000E-03 0. -1.
<mgrwt>
<rscale>  0 0.49445070E+02</rscale>
<asrwt>0</asrwt>
<pdfrwt beam="2">  1        4 0.68206703E-02 0.49445070E+02</pdfrwt>
<pdfrwt beam="1">  1       -4 0.21209588E-02 0.49445070E+02</pdfrwt>
<totfact> 0.14459774E+05</totfact>
</mgrwt>
</event>
<event>
 4    1  0.5401488E-001  0.4297962E+02  0.7818608E-02  0.1487363E+00
         -4   -1    0    0    0  501 -0.00000000000E+00  0.00000000000E+00  0.68047397925E+02  0.68062212455E+02  0.14200000000E+01 0. -1.
          4   -1    0    0  501    0  0.00000000000E+00 -0.00000000000E+00 -0.66966119603E+01  0.68455103351E+01  0.14200000000E+01 0.  1.
        -11    1    1    2    0    0 -0.10124246254E+02  0.33416632069E+01  0.63194905449E+02  0.64087932953E+02  0.51100000000E-03 0. -1.
         11    1    1    2    0    0  0.10124246254E+02 -0.33416632069E+01 -0.18441194844E+01  0.10819789838E+02  0.51100000000E-03 0.  1.
<mgrwt>
<rscale>  0 0.42979623E+02</rscale>
<asrwt>0</asrwt>
<pdfrwt beam="2">  1        4 0.10428413E-02 0.42979623E+02</pdfrwt>
<pdfrwt beam="1">  1       -4 0.10481424E-01 0.42979623E+02</pdfrwt>
<totfact> 0.19385402E+05</totfact>
</mgrwt>
</event>
<event>
 4    1  0.5401488E-001  0.4001323E+02  0.7818608E-02  0.1508114E+00
         -4   -1    0    0    0  501 -0.00000000000E+00  0.00000000000E+00  0.15454458818E+02  0.15519558543E+02  0.14200000000E+01 0. -1.
          4   -1    0    0  501    0  0.00000000000E+00 -0.00000000000E+00 -0.25760495509E+02  0.25799603269E+02  0.14200000000E+01 0.  1.
        -11    1    1    2    0    0  0.95436278085E+01  0.17500932952E+02 -0.33941366601E+01  0.20220871639E+02  0.51100000000E-03 0.  1.
         11    1    1    2    0    0 -0.95436278085E+01 -0.17500932952E+02 -0.69119000300E+01  0.21098290173E+02  0.51100000000E-03 0. -1.
<mgrwt>
<rscale>  0 0.40013232E+02</rscale>
<asrwt>0</asrwt>
<pdfrwt beam="2">  1        4 0.39711691E-02 0.40013232E+02</pdfrwt>
<pdfrwt beam="1">  1       -4 0.23856250E-02 0.40013232E+02</pdfrwt>
<totfact> 0.25538996E+05</totfact>
</mgrwt>
</event>
<event>
 4    1  0.5401488E-001  0.2649859E+02  0.7818608E-02  0.1640365E+00
          4   -1    0    0  501    0  0.00000000000E+00  0.00000000000E+00  0.49119855970E+01  0.51131206230E+01  0.14200000000E+01 0.  1.
         -4   -1    0    0    0  501 -0.00000000000E+00 -0.00000000000E+00 -0.34804937710E+02  0.34833892820E+02  0.14200000000E+01 0. -1.
        -11    1    1    2    0    0  0.86432128174E+01 -0.93144508590E+01 -0.92898396509E+01  0.15740560460E+02  0.51100000000E-03 0. -1.
         11    1    1    2    0    0 -0.86432128174E+01  0.93144508590E+01 -0.20603112463E+02  0.24206452983E+02  0.51100000000E-03 0.  1.
<mgrwt>
<rscale>  0 0.26498590E+02</rscale>
<asrwt>0</asrwt>
<pdfrwt beam="1">  1        4 0.77338936E-03 0.26498590E+02</pdfrwt>
<pdfrwt beam="2">  1       -4 0.53723049E-02 0.26498590E+02</pdfrwt>
<totfact> 0.66048938E+05</totfact>
</mgrwt>
</event>
<event>
 4    1  0.5401488E-001  0.3855865E+02  0.7818608E-02  0.1519094E+00
          4   -1    0    0  501    0  0.00000000000E+00  0.00000000000E+00  0.10986157030E+02  0.11077546944E+02  0.14200000000E+01 0. -1.
         -4   -1    0    0    0  501 -0.00000000000E+00 -0.00000000000E+00 -0.33586207653E+02  0.33616212525E+02  0.14200000000E+01 0.  1.
        -11    1    1    2    0    0  0.69673815124E+01  0.92986271990E+01 -0.29132396179E+02  0.31364077865E+02  0.51100000000E-03 0.  1.
         11    1    1    2    0    0 -0.69673815124E+01 -0.92986271990E+01  0.65323455566E+01  0.13329681604E+02  0.51100000000E-03 0. -1.
<mgrwt>
<rscale>  0 0.38558655E+02</rscale>
<asrwt>0</asrwt>
<pdfrwt beam="1">  1        4 0.16995161E-02 0.38558655E+02</pdfrwt>
<pdfrwt beam="2">  1       -4 0.51764469E-02 0.38558655E+02</pdfrwt>
<totfact> 0.27579288E+05</totfact>
</mgrwt>
</event>
<event>
 4    1  0.5401488E-001  0.2640789E+02  0.7818608E-02  0.1641566E+00
         -4   -1    0    0    0  501 -0.00000000000E+00  0.00000000000E+00  0.15377411760E+02  0.15442836282E+02  0.14200000000E+01 0.  1.
          4   -1    0    0  501    0  0.00000000000E+00 -0.00000000000E+00 -0.11203271865E+02  0.11292904874E+02  0.14200000000E+01 0. -1.
        -11    1    1    2    0    0  0.10322302968E+02  0.78328031837E+01 -0.48242240362E+00  0.12966706441E+02  0.51100000000E-03 0. -1.
         11    1    1    2    0    0 -0.10322302968E+02 -0.78328031837E+01  0.46565622985E+01  0.13769034715E+02  0.51100000000E-03 0.  1.
<mgrwt>
<rscale>  0 0.26407885E+02</rscale>
<asrwt>0</asrwt>
<pdfrwt beam="2">  1        4 0.17355078E-02 0.26407885E+02</pdfrwt>
<pdfrwt beam="1">  1       -4 0.23776831E-02 0.26407885E+02</pdfrwt>
<totfact> 0.70039168E+05</totfact>
</mgrwt>
</event>
<event>
 4    1  0.5401488E-001  0.2804075E+02  0.7818608E-02  0.1620813E+00
          4   -1    0    0  501    0  0.00000000000E+00  0.00000000000E+00  0.19501846644E+01  0.24123889042E+01  0.14200000000E+01 0.  1.
         -4   -1    0    0    0  501 -0.00000000000E+00 -0.00000000000E+00 -0.89648555344E+02  0.89659800776E+02  0.14200000000E+01 0. -1.
        -11    1    1    2    0    0 -0.13642669789E+02 -0.63580379516E+00 -0.54255533446E+02  0.55948097334E+02  0.51100000000E-03 0.  1.
         11    1    1    2    0    0  0.13642669789E+02  0.63580379516E+00 -0.33442837233E+02  0.36124092347E+02  0.51100000000E-03 0. -1.
<mgrwt>
<rscale>  0 0.28040754E+02</rscale>
<asrwt>0</asrwt>
<pdfrwt beam="1">  1        4 0.33644768E-03 0.28040754E+02</pdfrwt>
<pdfrwt beam="2">  1       -4 0.13828502E-01 0.28040754E+02</pdfrwt>
<totfact> 0.49331690E+05</totfact>
</mgrwt>
</event>
<event>
 4    1  0.5401488E-001  0.3502425E+02  0.7818608E-02  0.1548385E+00
          4   -1    0    0  501    0  0.00000000000E+00  0.00000000000E+00  0.39960499727E+02  0.39985721682E+02  0.14200000000E+01 0. -1.
         -4   -1    0    0    0  501 -0.00000000000E+00 -0.00000000000E+00 -0.75808558371E+01  0.77127021998E+01  0.14200000000E+01 0.  1.
        -11    1    1    2    0    0  0.15734884855E+02 -0.69433267693E+01  0.11698094326E+02  0.20800043249E+02  0.51100000000E-03 0.  1.
         11    1    1    2    0    0 -0.15734884855E+02  0.69433267693E+01  0.20681549564E+02  0.26898380633E+02  0.51100000000E-03 0. -1.
<mgrwt>
<rscale>  0 0.35024253E+02</rscale>
<asrwt>0</asrwt>
<pdfrwt beam="1">  1        4 0.61598515E-02 0.35024253E+02</pdfrwt>
<pdfrwt beam="2">  1       -4 0.11783677E-02 0.35024253E+02</pdfrwt>
<totfact> 0.34230653E+05</totfact>
</mgrwt>
</event>
<event>
 4    1  0.5401488E-001  0.4044312E+02  0.7818608E-02  0.1504976E+00
         -4   -1    0    0    0  501 -0.00000000000E+00  0.00000000000E+00  0.30225945690E+02  0.30259282755E+02  0.14200000000E+01 0.  1.
          4   -1    0    0  501    0  0.00000000000E+00 -0.00000000000E+00 -0.13450305404E+02  0.13525055100E+02  0.14200000000E+01 0. -1.
        -11    1    1    2    0    0 -0.99590485900E+01 -0.13933680675E+02 -0.32512460288E+01  0.17432748118E+02  0.51100000000E-03 0. -1.
         11    1    1    2    0    0  0.99590485900E+01  0.13933680675E+02  0.20026886314E+02  0.26351589737E+02  0.51100000000E-03 0.  1.
<mgrwt>
<rscale>  0 0.40443122E+02</rscale>
<asrwt>0</asrwt>
<pdfrwt beam="2">  1        4 0.20775921E-02 0.40443122E+02</pdfrwt>
<pdfrwt beam="1">  1       -4 0.46584598E-02 0.40443122E+02</pdfrwt>
<totfact> 0.24689057E+05</totfact>
</mgrwt>
</event>
<event>
 4    1  0.5401488E-001  0.2096519E+02  0.7818608E-02  0.1726788E+00
         -4   -1    0    0    0  501 -0.00000000000E+00  0.00000000000E+00  0.51249893933E+00  0.15096539878E+01  0.14200000000E+01 0.  1.
          4   -1    0    0  501    0  0.00000000000E+00 -0.00000000000E+00 -0.10767683839E+03  0.10768620118E+03  0.14200000000E+01 0. -1.
        -11    1    1    2    0    0 -0.64705443792E+01  0.82274238105E+01 -0.50606803339E+02  0.51677915898E+02  0.51100000000E-03 0. -1.
         11    1    1    2    0    0  0.64705443792E+01 -0.82274238105E+01 -0.56557536110E+02  0.57517939273E+02  0.51100000000E-03 0.  1.
<mgrwt>
<rscale>  0 0.20965189E+02</rscale>
<asrwt>0</asrwt>
<pdfrwt beam="2">  1        4 0.16643083E-01 0.20965189E+02</pdfrwt>
<pdfrwt beam="1">  1       -4 0.15627053E-03 0.20965189E+02</pdfrwt>
<totfact> 0.86834871E+05</totfact>
</mgrwt>
</event>
<event>
 4    1  0.5401488E-001  0.2616847E+02  0.7818608E-02  0.1644765E+00
          4   -1    0    0  501    0  0.00000000000E+00  0.00000000000E+00  0.32773484560E+02  0.32804232809E+02  0.14200000000E+01 0. -1.
         -4   -1    0    0    0  501 -0.00000000000E+00 -0.00000000000E+00 -0.50932847497E+01  0.52875277343E+01  0.14200000000E+01 0.  1.
        -11    1    1    2    0    0  0.11243454890E+02 -0.10802045934E+01  0.42268325613E+01  0.12060192104E+02  0.51100000000E-03 0.  1.
         11    1    1    2    0    0 -0.11243454890E+02  0.10802045934E+01  0.23453367249E+02  0.26031568439E+02  0.51100000000E-03 0. -1.
<mgrwt>
<rscale>  0 0.26168469E+02</rscale>
<asrwt>0</asrwt>
<pdfrwt beam="1">  1        4 0.50593817E-02 0.26168469E+02</pdfrwt>
<pdfrwt beam="2">  1       -4 0.80088927E-03 0.26168469E+02</pdfrwt>
<totfact> 0.68356362E+05</totfact>
</mgrwt>
</event>
<event>
 4    1  0.5401488E-001  0.2477196E+02  0.7818608E-02  0.1664299E+00
         -4   -1    0    0    0  501 -0.00000000000E+00  0.00000000000E+00  0.54784577329E+02  0.54802977229E+02  0.14200000000E+01 0.  1.
          4   -1    0    0  501    0  0.00000000000E+00 -0.00000000000E+00 -0.26001456015E+01  0.29626267313E+01  0.14200000000E+01 0. -1.
        -11    1    1    2    0    0 -0.71417800783E+01  0.81314988019E+01  0.40139094111E+02  0.41572504997E+02  0.51100000000E-03 0.  1.
         11    1    1    2    0    0  0.71417800783E+01 -0.81314988019E+01  0.12045337617E+02  0.16193098963E+02  0.51100000000E-03 0. -1.
<mgrwt>
<rscale>  0 0.24771962E+02</rscale>
<asrwt>0</asrwt>
<pdfrwt beam="2">  1        4 0.42932096E-03 0.24771962E+02</pdfrwt>
<pdfrwt beam="1">  1       -4 0.84576946E-02 0.24771962E+02</pdfrwt>
<totfact> 0.71787414E+05</totfact>
</mgrwt>
</event>
<event>
 4    1  0.5401488E-001  0.2088255E+02  0.7818608E-02  0.1728326E+00
         -4   -1    0    0    0  501 -0.00000000000E+00  0.00000000000E+00  0.47640679550E+01  0.49711913541E+01  0.14200000000E+01 0. -1.
          4   -1    0    0  501    0  0.00000000000E+00 -0.00000000000E+00 -0.22166666499E+02  0.22212102640E+02  0.14200000000E+01 0.  1.
        -11    1    1    2    0    0 -0.96225133956E-01  0.10103332930E+02 -0.12128975985E+02  0.15786027185E+02  0.51100000000E-03 0.  1.
         11    1    1    2    0    0  0.96225133956E-01 -0.10103332930E+02 -0.52736225592E+01  0.11397266809E+02  0.51100000000E-03 0. -1.
<mgrwt>
<rscale>  0 0.20882553E+02</rscale>
<asrwt>0</asrwt>
<pdfrwt beam="2">  1        4 0.34296840E-02 0.20882553E+02</pdfrwt>
<pdfrwt beam="1">  1       -4 0.75236120E-03 0.20882553E+02</pdfrwt>
<totfact> 0.11535598E+06</totfact>
</mgrwt>
</event>
<event>
 4    1  0.5401488E-001  0.4146941E+02  0.7818608E-02  0.1497668E+00
         -4   -1    0    0    0  501 -0.00000000000E+00  0.00000000000E+00  0.48608437184E+02  0.48629174016E+02  0.14200000000E+01 0.  1.
          4   -1    0    0  501    0  0.00000000000E+00 -0.00000000000E+00 -0.87649423445E+01  0.88792237443E+01  0.14200000000E+01 0. -1.
        -11    1    1    2    0    0 -0.95697529522E+01  0.64161057370E+01 -0.39846544222E+01  0.12191146604E+02  0.51100000000E-03 0. -1.
         11    1    1    2    0    0  0.95697529522E+01 -0.64161057370E+01  0.43828149262E+02  0.45317251157E+02  0.51100000000E-03 0.  1.
<mgrwt>
<rscale>  0 0.41469407E+02</rscale>
<asrwt>0</asrwt>
<pdfrwt beam="2">  1        4 0.13588387E-02 0.41469407E+02</pdfrwt>
<pdfrwt beam="1">  1       -4 0.74886072E-02 0.41469407E+02</pdfrwt>
<totfact> 0.22247662E+05</totfact>
</mgrwt>
</event>
<event>
 4    1  0.5401488E-001  0.8092542E+02  0.7818608E-02  0.1326446E+00
          4   -1    0    0  501    0  0.00000000000E+00  0.00000000000E+00  0.35539188062E+02  0.35567545432E+02  0.14200000000E+01 0. -1.
         -4   -1    0    0    0  501 -0.00000000000E+00 -0.00000000000E+00 -0.46010642714E+02  0.46032549820E+02  0.14200000000E+01 0.  1.
        -11    1    1    2    0    0 -0.30674806016E+02  0.91973987571E+01 -0.30174392973E+02  0.44000339312E+02  0.51100000000E-03 0.  1.
         11    1    1    2    0    0  0.30674806016E+02 -0.91973987571E+01  0.19702938321E+02  0.37599755940E+02  0.51100000000E-03 0. -1.
<mgrwt>
<rscale>  0 0.80925424E+02</rscale>
<asrwt>0</asrwt>
<pdfrwt beam="1">  1        4 0.54714339E-02 0.80925424E+02</pdfrwt>
<pdfrwt beam="2">  1       -4 0.70824269E-02 0.80925424E+02</pdfrwt>
<totfact> 0.38122364E+04</totfact>
</mgrwt>
</event>
<event>
 4    1  0.5401488E-001  0.2433145E+02  0.7818608E-02  0.1670794E+00
          4   -1    0    0  501    0  0.00000000000E+00  0.00000000000E+00  0.86693287393E+02  0.86704916118E+02  0.14200000000E+01 0.  1.
         -4   -1    0    0    0  501 -0.00000000000E+00 -0.00000000000E+00 -0.13981368254E+01  0.19927836266E+01  0.14200000000E+01 0. -1.
        -11    1    1    2    0    0  0.33909199094E+01 -0.10754915336E+02  0.26006735732E+02  0.28346372703E+02  0.51100000000E-03 0. -1.
         11    1    1    2    0    0 -0.33909199094E+01  0.10754915336E+02  0.59288414835E+02  0.60351327041E+02  0.51100000000E-03 0.  1.
<mgrwt>
<rscale>  0 0.24331445E+02</rscale>
<asrwt>0</asrwt>
<pdfrwt beam="1">  1        4 0.13384072E-01 0.24331445E+02</pdfrwt>
<pdfrwt beam="2">  1       -4 0.26173442E-03 0.24331445E+02</pdfrwt>
<totfact> 0.67665458E+05</totfact>
</mgrwt>
</event>
<event>
 4    1  0.5401488E-001  0.2188670E+02  0.7818608E-02  0.1710219E+00
          4   -1    0    0  501    0  0.00000000000E+00  0.00000000000E+00  0.40210705495E+01  0.42644352926E+01  0.14200000000E+01 0. -1.
         -4   -1    0    0    0  501 -0.00000000000E+00 -0.00000000000E+00 -0.28646091601E+02  0.28681265035E+02  0.14200000000E+01 0.  1.
        -11    1    1    2    0    0 -0.84476567496E+01  0.59180768023E+01 -0.17816653796E+02  0.20586881511E+02  0.51100000000E-03 0.  1.
         11    1    1    2    0    0  0.84476567496E+01 -0.59180768023E+01 -0.68083672553E+01  0.12358818817E+02  0.51100000000E-03 0. -1.
<mgrwt>
<rscale>  0 0.21886697E+02</rscale>
<asrwt>0</asrwt>
<pdfrwt beam="1">  1        4 0.64005227E-03 0.21886697E+02</pdfrwt>
<pdfrwt beam="2">  1       -4 0.44285169E-02 0.21886697E+02</pdfrwt>
<totfact> 0.10216067E+06</totfact>
</mgrwt>
</event>
<event>
 4    1  0.5401488E-001  0.2394499E+02  0.7818608E-02  0.1676635E+00
          4   -1    0    0  501    0  0.00000000000E+00  0.00000000000E+00  0.70546431273E+01  0.71961371341E+01  0.14200000000E+01 0.  1.
         -4   -1    0    0    0  501 -0.00000000000E+00 -0.00000000000E+00 -0.19949906109E+02  0.20000378840E+02  0.14200000000E+01 0. -1.
        -11    1    1    2    0    0  0.16179294377E+01 -0.11790935215E+02 -0.79271362170E+01  0.14299767053E+02  0.51100000000E-03 0.  1.
         11    1    1    2    0    0 -0.16179294377E+01  0.11790935215E+02 -0.49681267643E+01  0.12896748921E+02  0.51100000000E-03 0. -1.
<mgrwt>
<rscale>  0 0.23944993E+02</rscale>
<asrwt>0</asrwt>
<pdfrwt beam="1">  1        4 0.11000964E-02 0.23944993E+02</pdfrwt>
<pdfrwt beam="2">  1       -4 0.30839830E-02 0.23944993E+02</pdfrwt>
<totfact> 0.86482354E+05</totfact>
</mgrwt>
</event>
<event>
 4    1  0.5401488E-001  0.2124182E+02  0.7818608E-02  0.1721704E+00
          4   -1    0    0  501    0  0.00000000000E+00  0.00000000000E+00  0.83386492352E+02  0.83398582163E+02  0.14200000000E+01 0. -1.
         -4   -1    0    0    0  501 -0.00000000000E+00 -0.00000000000E+00 -0.96453107608E+00  0.17166013506E+01  0.14200000000E+01 0.  1.
        -11    1    1    2    0    0  0.63563929757E+01 -0.83821374297E+01  0.47072294748E+02  0.48233441643E+02  0.51100000000E-03 0.  1.
         11    1    1    2    0    0 -0.63563929757E+01  0.83821374297E+01  0.35349666527E+02  0.36881741871E+02  0.51100000000E-03 0. -1.
<mgrwt>
<rscale>  0 0.21241816E+02</rscale>
<asrwt>0</asrwt>
<pdfrwt beam="1">  1        4 0.12887471E-01 0.21241816E+02</pdfrwt>
<pdfrwt beam="2">  1       -4 0.20717096E-03 0.21241816E+02</pdfrwt>
<totfact> 0.90708069E+05</totfact>
</mgrwt>
</event>
<event>
 4    1  0.5401488E-001  0.2462536E+02  0.7818608E-02  0.1666442E+00
          4   -1    0    0  501    0  0.00000000000E+00  0.00000000000E+00  0.80107700890E+00  0.16303755316E+01  0.14200000000E+01 0. -1.
         -4   -1    0    0    0  501 -0.00000000000E+00 -0.00000000000E+00 -0.12386605605E+03  0.12387419522E+03  0.14200000000E+01 0.  1.
        -11    1    1    2    0    0 -0.10031473688E+02  0.70451508252E+01 -0.55638438089E+02  0.56972804106E+02  0.51100000000E-03 0. -1.
         11    1    1    2    0    0  0.10031473688E+02 -0.70451508252E+01 -0.67426540957E+02  0.68531766650E+02  0.51100000000E-03 0.  1.
<mgrwt>
<rscale>  0 0.24625357E+02</rscale>
<asrwt>0</asrwt>
<pdfrwt beam="1">  1        4 0.18766100E-03 0.24625357E+02</pdfrwt>
<pdfrwt beam="2">  1       -4 0.19120725E-01 0.24625357E+02</pdfrwt>
<totfact> 0.59561493E+05</totfact>
</mgrwt>
</event>
<event>
 4    1  0.5401488E-001  0.5178593E+02  0.7818608E-02  0.1435940E+00
         -4   -1    0    0    0  501 -0.00000000000E+00  0.00000000000E+00  0.12261862715E+03  0.12262684912E+03  0.14200000000E+01 0.  1.
          4   -1    0    0  501    0  0.00000000000E+00 -0.00000000000E+00 -0.53669847169E+01  0.55516596574E+01  0.14200000000E+01 0. -1.
        -11    1    1    2    0    0  0.15405177213E+02 -0.20256400751E+02  0.46805960300E+02  0.53277004197E+02  0.51100000000E-03 0. -1.
         11    1    1    2    0    0 -0.15405177213E+02  0.20256400751E+02  0.70445682137E+02  0.74901504580E+02  0.51100000000E-03 0.  1.
<mgrwt>
<rscale>  0 0.51785929E+02</rscale>
<asrwt>0</asrwt>
<pdfrwt beam="2">  1        4 0.84052827E-03 0.51785929E+02</pdfrwt>
<pdfrwt beam="1">  1       -4 0.18879240E-01 0.51785929E+02</pdfrwt>
<totfact> 0.10709422E+05</totfact>
</mgrwt>
</event>
<event>
 4    1  0.5401488E-001  0.3344483E+02  0.7818608E-02  0.1562861E+00
         -4   -1    0    0    0  501 -0.00000000000E+00  0.00000000000E+00  0.20037265629E+02  0.20087518859E+02  0.14200000000E+01 0.  1.
          4   -1    0    0  501    0  0.00000000000E+00 -0.00000000000E+00 -0.13851879028E+02  0.13924473154E+02  0.14200000000E+01 0. -1.
        -11    1    1    2    0    0  0.14733816565E+02 -0.34911612362E+01  0.10309915119E+02  0.18318512695E+02  0.51100000000E-03 0.  1.
         11    1    1    2    0    0 -0.14733816565E+02  0.34911612362E+01 -0.41245285177E+01  0.15693479318E+02  0.51100000000E-03 0. -1.
<mgrwt>
<rscale>  0 0.33444829E+02</rscale>
<asrwt>0</asrwt>
<pdfrwt beam="2">  1        4 0.21405081E-02 0.33444829E+02</pdfrwt>
<pdfrwt beam="1">  1       -4 0.30921060E-02 0.33444829E+02</pdfrwt>
<totfact> 0.39962910E+05</totfact>
</mgrwt>
</event>
<event>
 4    1  0.5401488E-001  0.3907368E+02  0.7818608E-02  0.1515141E+00
         -4   -1    0    0    0  501 -0.00000000000E+00  0.00000000000E+00  0.27571460574E+02  0.27608003155E+02  0.14200000000E+01 0.  1.
          4   -1    0    0  501    0  0.00000000000E+00 -0.00000000000E+00 -0.13761327148E+02  0.13834396440E+02  0.14200000000E+01 0. -1.
        -11    1    1    2    0    0  0.18023032728E+02 -0.43752826130E+01  0.39148719393E+00  0.18550635276E+02  0.51100000000E-03 0. -1.
         11    1    1    2    0    0 -0.18023032728E+02  0.43752826130E+01  0.13418646233E+02  0.22891764319E+02  0.51100000000E-03 0.  1.
<mgrwt>
<rscale>  0 0.39073683E+02</rscale>
<asrwt>0</asrwt>
<pdfrwt beam="2">  1        4 0.21255589E-02 0.39073683E+02</pdfrwt>
<pdfrwt beam="1">  1       -4 0.42501948E-02 0.39073683E+02</pdfrwt>
<totfact> 0.27018044E+05</totfact>
</mgrwt>
</event>
<event>
 4    1  0.5401488E-001  0.3986003E+02  0.7818608E-02  0.1509244E+00
         -4   -1    0    0    0  501 -0.00000000000E+00  0.00000000000E+00  0.13454309800E+03  0.13455059130E+03  0.14200000000E+01 0.  1.
          4   -1    0    0  501    0  0.00000000000E+00 -0.00000000000E+00 -0.27734834005E+01  0.31158642738E+01  0.14200000000E+01 0. -1.
        -11    1    1    2    0    0  0.20704115651E+01  0.18949635764E+02  0.85973065925E+02  0.88061020687E+02  0.51100000000E-03 0. -1.
         11    1    1    2    0    0 -0.20704115651E+01 -0.18949635764E+02  0.45796548672E+02  0.49605434885E+02  0.51100000000E-03 0.  1.
<mgrwt>
<rscale>  0 0.39860026E+02</rscale>
<asrwt>0</asrwt>
<pdfrwt beam="2">  1        4 0.45360328E-03 0.39860026E+02</pdfrwt>
<pdfrwt beam="1">  1       -4 0.20725846E-01 0.39860026E+02</pdfrwt>
<totfact> 0.19670411E+05</totfact>
</mgrwt>
</event>
<event>
 4    1  0.5401488E-001  0.2747479E+02  0.7818608E-02  0.1627805E+00
          4   -1    0    0  501    0  0.00000000000E+00  0.00000000000E+00  0.41530877203E+01  0.43891385957E+01  0.14200000000E+01 0.  1.
         -4   -1    0    0    0  501 -0.00000000000E+00 -0.00000000000E+00 -0.43936447668E+02  0.43959388459E+02  0.14200000000E+01 0. -1.
        -11    1    1    2    0    0  0.21741389361E+01 -0.13538457602E+02 -0.18420037251E+02  0.22963329178E+02  0.51100000000E-03 0.  1.
         11    1    1    2    0    0 -0.21741389361E+01  0.13538457602E+02 -0.21363322697E+02  0.25385197877E+02  0.51100000000E-03 0. -1.
<mgrwt>
<rscale>  0 0.27474795E+02</rscale>
<asrwt>0</asrwt>
<pdfrwt beam="1">  1        4 0.65885904E-03 0.27474795E+02</pdfrwt>
<pdfrwt beam="2">  1       -4 0.67793756E-02 0.27474795E+02</pdfrwt>
<totfact> 0.59191826E+05</totfact>
</mgrwt>
</event>
<event>
 4    1  0.5401488E-001  0.2857978E+02  0.7818608E-02  0.1614340E+00
          4   -1    0    0  501    0  0.00000000000E+00  0.00000000000E+00  0.22950162368E+01  0.26987959403E+01  0.14200000000E+01 0.  1.
         -4   -1    0    0    0  501 -0.00000000000E+00 -0.00000000000E+00 -0.81371113193E+02  0.81383502396E+02  0.14200000000E+01 0. -1.
        -11    1    1    2    0    0 -0.10747584222E+02 -0.24755565499E+01 -0.12805780673E+02  0.16900501937E+02  0.51100000000E-03 0. -1.
         11    1    1    2    0    0  0.10747584222E+02  0.24755565499E+01 -0.66270316284E+02  0.67181796399E+02  0.51100000000E-03 0.  1.
<mgrwt>
<rscale>  0 0.28579779E+02</rscale>
<asrwt>0</asrwt>
<pdfrwt beam="1">  1        4 0.38509248E-03 0.28579779E+02</pdfrwt>
<pdfrwt beam="2">  1       -4 0.12550644E-01 0.28579779E+02</pdfrwt>
<totfact> 0.48421045E+05</totfact>
</mgrwt>
</event>
<event>
 4    1  0.5401488E-001  0.4513928E+02  0.7818608E-02  0.1473474E+00
         -4   -1    0    0    0  501 -0.00000000000E+00  0.00000000000E+00  0.78433053180E+01  0.79708116470E+01  0.14200000000E+01 0.  1.
          4   -1    0    0  501    0  0.00000000000E+00 -0.00000000000E+00 -0.64286594592E+02  0.64302275576E+02  0.14200000000E+01 0. -1.
        -11    1    1    2    0    0  0.99698161846E+01 -0.20230682630E+02 -0.26871759598E+02  0.35082320599E+02  0.51100000000E-03 0.  1.
         11    1    1    2    0    0 -0.99698161846E+01  0.20230682630E+02 -0.29571529676E+02  0.37190766624E+02  0.51100000000E-03 0. -1.
<mgrwt>
<rscale>  0 0.45139276E+02</rscale>
<asrwt>0</asrwt>
<pdfrwt beam="2">  1        4 0.99012594E-02 0.45139276E+02</pdfrwt>
<pdfrwt beam="1">  1       -4 0.12176768E-02 0.45139276E+02</pdfrwt>
<totfact> 0.17345236E+05</totfact>
</mgrwt>
</event>
<event>
 4    1  0.5401488E-001  0.3222444E+02  0.7818608E-02  0.1574726E+00
          4   -1    0    0  501    0  0.00000000000E+00  0.00000000000E+00  0.94675389900E+02  0.94686038319E+02  0.14200000000E+01 0. -1.
         -4   -1    0    0    0  501 -0.00000000000E+00 -0.00000000000E+00 -0.25466569595E+01  0.29157952036E+01  0.14200000000E+01 0.  1.
        -11    1    1    2    0    0 -0.29773037023E+01 -0.13112455578E+02  0.19177300939E+02  0.23421564854E+02  0.51100000000E-03 0. -1.
         11    1    1    2    0    0  0.29773037023E+01  0.13112455578E+02  0.72951432001E+02  0.74180268669E+02  0.51100000000E-03 0.  1.
<mgrwt>
<rscale>  0 0.32224439E+02</rscale>
<asrwt>0</asrwt>
<pdfrwt beam="1">  1        4 0.14594659E-01 0.32224439E+02</pdfrwt>
<pdfrwt beam="2">  1       -4 0.42100773E-03 0.32224439E+02</pdfrwt>
<totfact> 0.35622600E+05</totfact>
</mgrwt>
</event>
<event>
 4    1  0.5401488E-001  0.6564298E+02  0.7818608E-02  0.1375569E+00
         -4   -1    0    0    0  501 -0.00000000000E+00  0.00000000000E+00  0.12996405733E+02  0.13073750877E+02  0.14200000000E+01 0.  1.
          4   -1    0    0  501    0  0.00000000000E+00 -0.00000000000E+00 -0.82558938771E+02  0.82571149750E+02  0.14200000000E+01 0. -1.
        -11    1    1    2    0    0 -0.20274066892E+02  0.10115304396E+02 -0.69380932430E+02  0.72986786177E+02  0.51100000000E-03 0. -1.
         11    1    1    2    0    0  0.20274066892E+02 -0.10115304396E+02 -0.18160060754E+00  0.22658114449E+02  0.51100000000E-03 0.  1.
<mgrwt>
<rscale>  0 0.65642981E+02</rscale>
<asrwt>0</asrwt>
<pdfrwt beam="2">  1        4 0.12708264E-01 0.65642981E+02</pdfrwt>
<pdfrwt beam="1">  1       -4 0.20063360E-02 0.65642981E+02</pdfrwt>
<totfact> 0.63747697E+04</totfact>
</mgrwt>
</event>
<event>
 4    1  0.5401488E-001  0.2655294E+02  0.7818608E-02  0.1639649E+00
          4   -1    0    0  501    0  0.00000000000E+00  0.00000000000E+00  0.17345916708E+02  0.17403942842E+02  0.14200000000E+01 0.  1.
         -4   -1    0    0    0  501 -0.00000000000E+00 -0.00000000000E+00 -0.10036682272E+02  0.10136636081E+02  0.14200000000E+01 0. -1.
        -11    1    1    2    0    0  0.12161197737E+02 -0.10079626339E+01 -0.17700149436E+01  0.12330599021E+02  0.51100000000E-03 0. -1.
         11    1    1    2    0    0 -0.12161197737E+02  0.10079626339E+01  0.90792493794E+01  0.15209979902E+02  0.51100000000E-03 0.  1.
<mgrwt>
<rscale>  0 0.26552939E+02</rscale>
<asrwt>0</asrwt>
<pdfrwt beam="1">  1        4 0.26807548E-02 0.26552939E+02</pdfrwt>
<pdfrwt beam="2">  1       -4 0.15562573E-02 0.26552939E+02</pdfrwt>
<totfact> 0.68975199E+05</totfact>
</mgrwt>
</event>
<event>
 4    1  0.5401488E-001  0.2711238E+02  0.7818608E-02  0.1632392E+00
         -4   -1    0    0    0  501 -0.00000000000E+00  0.00000000000E+00  0.12097753337E+02  0.12180806041E+02  0.14200000000E+01 0. -1.
          4   -1    0    0  501    0  0.00000000000E+00 -0.00000000000E+00 -0.15021838237E+02  0.15088804592E+02  0.14200000000E+01 0.  1.
        -11    1    1    2    0    0 -0.16246521244E+01 -0.10107602792E+02 -0.10399925013E+02  0.14593202845E+02  0.51100000000E-03 0.  1.
         11    1    1    2    0    0  0.16246521244E+01  0.10107602792E+02  0.74758401133E+01  0.12676407787E+02  0.51100000000E-03 0. -1.
<mgrwt>
<rscale>  0 0.27112384E+02</rscale>
<asrwt>0</asrwt>
<pdfrwt beam="2">  1        4 0.23225920E-02 0.27112384E+02</pdfrwt>
<pdfrwt beam="1">  1       -4 0.18727327E-02 0.27112384E+02</pdfrwt>
<totfact> 0.65946282E+05</totfact>
</mgrwt>
</event>
<event>
 4    1  0.5401488E-001  0.3350441E+02  0.7818608E-02  0.1562297E+00
         -4   -1    0    0    0  501 -0.00000000000E+00  0.00000000000E+00  0.59598785106E+02  0.59615699158E+02  0.14200000000E+01 0.  1.
          4   -1    0    0  501    0  0.00000000000E+00 -0.00000000000E+00 -0.45837046048E+01  0.47986193748E+01  0.14200000000E+01 0. -1.
        -11    1    1    2    0    0  0.47811178798E+01  0.89073852914E+01  0.18259810424E+01  0.10273013576E+02  0.51100000000E-03 0. -1.
         11    1    1    2    0    0 -0.47811178798E+01 -0.89073852914E+01  0.53189099459E+02  0.54141304957E+02  0.51100000000E-03 0.  1.
<mgrwt>
<rscale>  0 0.33504408E+02</rscale>
<asrwt>0</asrwt>
<pdfrwt beam="2">  1        4 0.72301828E-03 0.33504408E+02</pdfrwt>
<pdfrwt beam="1">  1       -4 0.91868773E-02 0.33504408E+02</pdfrwt>
<totfact> 0.35925175E+05</totfact>
</mgrwt>
</event>
<event>
 4    1  0.5401488E-001  0.2337206E+02  0.7818608E-02  0.1685549E+00
         -4   -1    0    0    0  501 -0.00000000000E+00  0.00000000000E+00  0.12731459383E+02  0.12810404287E+02  0.14200000000E+01 0.  1.
          4   -1    0    0  501    0  0.00000000000E+00 -0.00000000000E+00 -0.10566708032E+02  0.10661693986E+02  0.14200000000E+01 0. -1.
        -11    1    1    2    0    0 -0.10128702350E+02 -0.56472373446E+01 -0.36650902698E+00  0.11602423456E+02  0.51100000000E-03 0. -1.
         11    1    1    2    0    0  0.10128702350E+02  0.56472373446E+01  0.25312603770E+01  0.11869674818E+02  0.51100000000E-03 0.  1.
<mgrwt>
<rscale>  0 0.23372061E+02</rscale>
<asrwt>0</asrwt>
<pdfrwt beam="2">  1        4 0.16390267E-02 0.23372061E+02</pdfrwt>
<pdfrwt beam="1">  1       -4 0.19720653E-02 0.23372061E+02</pdfrwt>
<totfact> 0.92511717E+05</totfact>
</mgrwt>
</event>
<event>
 4    1  0.5401488E-001  0.2682713E+02  0.7818608E-02  0.1636065E+00
          4   -1    0    0  501    0  0.00000000000E+00  0.00000000000E+00  0.82743364072E+01  0.83952988618E+01  0.14200000000E+01 0.  1.
         -4   -1    0    0    0  501 -0.00000000000E+00 -0.00000000000E+00 -0.21442382683E+02  0.21489350272E+02  0.14200000000E+01 0. -1.
        -11    1    1    2    0    0  0.81909528394E+01 -0.99679729085E+01 -0.24953525916E+01  0.13140737313E+02  0.51100000000E-03 0.  1.
         11    1    1    2    0    0 -0.81909528394E+01  0.99679729085E+01 -0.10672693684E+02  0.16743911821E+02  0.51100000000E-03 0. -1.
<mgrwt>
<rscale>  0 0.26827128E+02</rscale>
<asrwt>0</asrwt>
<pdfrwt beam="1">  1        4 0.12858925E-02 0.26827128E+02</pdfrwt>
<pdfrwt beam="2">  1       -4 0.33117458E-02 0.26827128E+02</pdfrwt>
<totfact> 0.66803630E+05</totfact>
</mgrwt>
</event>
<event>
 4    1  0.5401488E-001  0.2573684E+02  0.7818608E-02  0.1650639E+00
          4   -1    0    0  501    0  0.00000000000E+00  0.00000000000E+00  0.26982605032E+02  0.27019944011E+02  0.14200000000E+01 0. -1.
         -4   -1    0    0    0  501 -0.00000000000E+00 -0.00000000000E+00 -0.60128083988E+01  0.61782088699E+01  0.14200000000E+01 0.  1.
        -11    1    1    2    0    0 -0.11531451711E+02  0.15466723256E+01  0.17577007251E+02  0.21078846221E+02  0.51100000000E-03 0. -1.
         11    1    1    2    0    0  0.11531451711E+02 -0.15466723256E+01  0.33927893829E+01  0.12119306660E+02  0.51100000000E-03 0.  1.
<mgrwt>
<rscale>  0 0.25736841E+02</rscale>
<asrwt>0</asrwt>
<pdfrwt beam="1">  1        4 0.41667654E-02 0.25736841E+02</pdfrwt>
<pdfrwt beam="2">  1       -4 0.94064278E-03 0.25736841E+02</pdfrwt>
<totfact> 0.72222937E+05</totfact>
</mgrwt>
</event>
<event>
 4    1  0.5401488E-001  0.1192437E+03  0.7818608E-02  0.1244350E+00
          4   -1    0    0  501    0  0.00000000000E+00  0.00000000000E+00  0.12329284413E+02  0.12410787813E+02  0.14200000000E+01 0. -1.
         -4   -1    0    0    0  501 -0.00000000000E+00 -0.00000000000E+00 -0.28728588434E+03  0.28728939371E+03  0.14200000000E+01 0.  1.
        -11    1    1    2    0    0  0.37448884789E+02 -0.23420647026E+02 -0.23813192311E+03  0.24219363841E+03  0.51100000000E-03 0.  1.
         11    1    1    2    0    0 -0.37448884789E+02  0.23420647026E+02 -0.36824676813E+02  0.57506543121E+02  0.51100000000E-03 0. -1.
<mgrwt>
<rscale>  0 0.11924373E+03</rscale>
<asrwt>0</asrwt>
<pdfrwt beam="1">  1        4 0.19033526E-02 0.11924373E+03</pdfrwt>
<pdfrwt beam="2">  1       -4 0.44204363E-01 0.11924373E+03</pdfrwt>
<totfact> 0.86175524E+03</totfact>
</mgrwt>
</event>
<event>
 4    1  0.5401488E-001  0.2358582E+02  0.7818608E-02  0.1682186E+00
         -4   -1    0    0    0  501 -0.00000000000E+00  0.00000000000E+00  0.12179643606E+03  0.12180471352E+03  0.14200000000E+01 0.  1.
          4   -1    0    0  501    0  0.00000000000E+00 -0.00000000000E+00 -0.68879090864E+00  0.15782372812E+01  0.14200000000E+01 0. -1.
        -11    1    1    2    0    0 -0.73170184288E+01 -0.92471966852E+01  0.61352394210E+02  0.62475320574E+02  0.51100000000E-03 0. -1.
         11    1    1    2    0    0  0.73170184288E+01  0.92471966852E+01  0.59755250939E+02  0.60907630231E+02  0.51100000000E-03 0.  1.
<mgrwt>
<rscale>  0 0.23585819E+02</rscale>
<asrwt>0</asrwt>
<pdfrwt beam="2">  1        4 0.17502331E-03 0.23585819E+02</pdfrwt>
<pdfrwt beam="1">  1       -4 0.18806991E-01 0.23585819E+02</pdfrwt>
<totfact> 0.65570937E+05</totfact>
</mgrwt>
</event>
<event>
 4    1  0.5401488E-001  0.2223587E+02  0.7818608E-02  0.1704204E+00
         -4   -1    0    0    0  501 -0.00000000000E+00  0.00000000000E+00  0.75558862009E+02  0.75572204071E+02  0.14200000000E+01 0. -1.
          4   -1    0    0  501    0  0.00000000000E+00 -0.00000000000E+00 -0.13116984329E+01  0.19331199598E+01  0.14200000000E+01 0.  1.
        -11    1    1    2    0    0 -0.51530197003E+01 -0.97981073883E+01  0.33548560619E+02  0.35327927201E+02  0.51100000000E-03 0. -1.
         11    1    1    2    0    0  0.51530197003E+01  0.97981073883E+01  0.40698602957E+02  0.42177396830E+02  0.51100000000E-03 0.  1.
<mgrwt>
<rscale>  0 0.22235871E+02</rscale>
<asrwt>0</asrwt>
<pdfrwt beam="2">  1        4 0.25062763E-03 0.22235871E+02</pdfrwt>
<pdfrwt beam="1">  1       -4 0.11673273E-01 0.22235871E+02</pdfrwt>
<totfact> 0.84524614E+05</totfact>
</mgrwt>
</event>
<event>
 4    1  0.5401488E-001  0.4296980E+02  0.7818608E-02  0.1487429E+00
          4   -1    0    0  501    0  0.00000000000E+00  0.00000000000E+00  0.22637608303E+02  0.22682101086E+02  0.14200000000E+01 0.  1.
         -4   -1    0    0    0  501 -0.00000000000E+00 -0.00000000000E+00 -0.20301548005E+02  0.20351148651E+02  0.14200000000E+01 0. -1.
        -11    1    1    2    0    0 -0.15213770744E+02 -0.71855900215E+01  0.14548498151E+02  0.22242983679E+02  0.51100000000E-03 0.  1.
         11    1    1    2    0    0  0.15213770744E+02  0.71855900215E+01 -0.12212437853E+02  0.20790266059E+02  0.51100000000E-03 0. -1.
<mgrwt>
<rscale>  0 0.42969796E+02</rscale>
<asrwt>0</asrwt>
<pdfrwt beam="1">  1        4 0.34899469E-02 0.42969796E+02</pdfrwt>
<pdfrwt beam="2">  1       -4 0.31305530E-02 0.42969796E+02</pdfrwt>
<totfact> 0.21392745E+05</totfact>
</mgrwt>
</event>
<event>
 4    1  0.5401488E-001  0.4379524E+02  0.7818608E-02  0.1482006E+00
          4   -1    0    0  501    0  0.00000000000E+00  0.00000000000E+00  0.32706480080E+02  0.32737291263E+02  0.14200000000E+01 0. -1.
         -4   -1    0    0    0  501 -0.00000000000E+00 -0.00000000000E+00 -0.14588678161E+02  0.14657623631E+02  0.14200000000E+01 0.  1.
        -11    1    1    2    0    0  0.12573393678E+01  0.16885074809E+02  0.24086164376E+02  0.29441976296E+02  0.51100000000E-03 0. -1.
         11    1    1    2    0    0 -0.12573393678E+01 -0.16885074809E+02 -0.59683624573E+01  0.17952938598E+02  0.51100000000E-03 0.  1.
<mgrwt>
<rscale>  0 0.43795242E+02</rscale>
<asrwt>0</asrwt>
<pdfrwt beam="1">  1        4 0.50394397E-02 0.43795242E+02</pdfrwt>
<pdfrwt beam="2">  1       -4 0.22520856E-02 0.43795242E+02</pdfrwt>
<totfact> 0.20136133E+05</totfact>
</mgrwt>
</event>
<event>
 4    1  0.5401488E-001  0.2735899E+02  0.7818608E-02  0.1629261E+00
         -4   -1    0    0    0  501 -0.00000000000E+00  0.00000000000E+00  0.49845577648E+01  0.51828772039E+01  0.14200000000E+01 0. -1.
          4   -1    0    0  501    0  0.00000000000E+00 -0.00000000000E+00 -0.36597046048E+02  0.36624584359E+02  0.14200000000E+01 0.  1.
        -11    1    1    2    0    0 -0.11705910364E+02 -0.34070651202E+01 -0.63255541816E+01  0.13734957814E+02  0.51100000000E-03 0.  1.
         11    1    1    2    0    0  0.11705910364E+02  0.34070651202E+01 -0.25286934102E+02  0.28072503749E+02  0.51100000000E-03 0. -1.
<mgrwt>
<rscale>  0 0.27358992E+02</rscale>
<asrwt>0</asrwt>
<pdfrwt beam="2">  1        4 0.56476883E-02 0.27358992E+02</pdfrwt>
<pdfrwt beam="1">  1       -4 0.78422874E-03 0.27358992E+02</pdfrwt>
<totfact> 0.61152128E+05</totfact>
</mgrwt>
</event>
<event>
 4    1  0.5401488E-001  0.3168249E+02  0.7818608E-02  0.1580202E+00
          4   -1    0    0  501    0  0.00000000000E+00  0.00000000000E+00  0.20637237606E+02  0.20686033356E+02  0.14200000000E+01 0. -1.
         -4   -1    0    0    0  501 -0.00000000000E+00 -0.00000000000E+00 -0.12054937667E+02  0.12138283328E+02  0.14200000000E+01 0.  1.
        -11    1    1    2    0    0  0.15102426103E+02  0.39712975379E+01  0.15323848932E+01  0.15690847079E+02  0.51100000000E-03 0. -1.
         11    1    1    2    0    0 -0.15102426103E+02 -0.39712975379E+01  0.70499150460E+01  0.17133469606E+02  0.51100000000E-03 0.  1.
<mgrwt>
<rscale>  0 0.31682486E+02</rscale>
<asrwt>0</asrwt>
<pdfrwt beam="1">  1        4 0.31851243E-02 0.31682486E+02</pdfrwt>
<pdfrwt beam="2">  1       -4 0.18647705E-02 0.31682486E+02</pdfrwt>
<totfact> 0.45460377E+05</totfact>
</mgrwt>
</event>
<event>
 4    1  0.5401488E-001  0.4115586E+02  0.7818608E-02  0.1499874E+00
          4   -1    0    0  501    0  0.00000000000E+00  0.00000000000E+00  0.61855402779E+01  0.63464406190E+01  0.14200000000E+01 0. -1.
         -4   -1    0    0    0  501 -0.00000000000E+00 -0.00000000000E+00 -0.67410832761E+02  0.67425787155E+02  0.14200000000E+01 0.  1.
        -11    1    1    2    0    0  0.19555045922E+01 -0.16976085411E+02 -0.10062039870E+02  0.19830686340E+02  0.51100000000E-03 0. -1.
         11    1    1    2    0    0 -0.19555045922E+01  0.16976085411E+02 -0.51163252613E+02  0.53941541434E+02  0.51100000000E-03 0.  1.
<mgrwt>
<rscale>  0 0.41155864E+02</rscale>
<asrwt>0</asrwt>
<pdfrwt beam="1">  1        4 0.96514892E-03 0.41155864E+02</pdfrwt>
<pdfrwt beam="2">  1       -4 0.10384424E-01 0.41155864E+02</pdfrwt>
<totfact> 0.21575462E+05</totfact>
</mgrwt>
</event>
<event>
 4    1  0.5401488E-001  0.2962476E+02  0.7818608E-02  0.1602274E+00
         -4   -1    0    0    0  501 -0.00000000000E+00  0.00000000000E+00  0.47914739491E+02  0.47935776415E+02  0.14200000000E+01 0.  1.
          4   -1    0    0  501    0  0.00000000000E+00 -0.00000000000E+00 -0.44464184314E+01  0.46676586065E+01  0.14200000000E+01 0. -1.
        -11    1    1    2    0    0 -0.21250147625E+01 -0.12462094974E+02  0.80273812332E+01  0.14975257881E+02  0.51100000000E-03 0. -1.
         11    1    1    2    0    0  0.21250147625E+01  0.12462094974E+02  0.35440939826E+02  0.37628177140E+02  0.51100000000E-03 0.  1.
<mgrwt>
<rscale>  0 0.29624761E+02</rscale>
<asrwt>0</asrwt>
<pdfrwt beam="2">  1        4 0.70270106E-03 0.29624761E+02</pdfrwt>
<pdfrwt beam="1">  1       -4 0.73901352E-02 0.29624761E+02</pdfrwt>
<totfact> 0.49353727E+05</totfact>
</mgrwt>
</event>
<event>
 4    1  0.5401488E-001  0.2477803E+02  0.7818608E-02  0.1664211E+00
          4   -1    0    0  501    0  0.00000000000E+00  0.00000000000E+00  0.13584111819E+02  0.13658129225E+02  0.14200000000E+01 0. -1.
         -4   -1    0    0    0  501 -0.00000000000E+00 -0.00000000000E+00 -0.11149191755E+02  0.11239256060E+02  0.14200000000E+01 0.  1.
        -11    1    1    2    0    0 -0.35070304553E+01  0.11343902947E+02 -0.23357209723E+01  0.12101197850E+02  0.51100000000E-03 0.  1.
         11    1    1    2    0    0  0.35070304553E+01 -0.11343902947E+02  0.47706410372E+01  0.12796187434E+02  0.51100000000E-03 0. -1.
<mgrwt>
<rscale>  0 0.24778034E+02</rscale>
<asrwt>0</asrwt>
<pdfrwt beam="1">  1        4 0.21024850E-02 0.24778034E+02</pdfrwt>
<pdfrwt beam="2">  1       -4 0.17278820E-02 0.24778034E+02</pdfrwt>
<totfact> 0.81112502E+05</totfact>
</mgrwt>
</event>
<event>
 4    1  0.5401488E-001  0.3628987E+02  0.7818608E-02  0.1537436E+00
         -4   -1    0    0    0  501 -0.00000000000E+00  0.00000000000E+00  0.32733453894E+01  0.35680793206E+01  0.14200000000E+01 0.  1.
          4   -1    0    0  501    0  0.00000000000E+00 -0.00000000000E+00 -0.95948352474E+02  0.95958859635E+02  0.14200000000E+01 0. -1.
        -11    1    1    2    0    0 -0.40808480567E+01  0.13225301578E+02 -0.78517465105E+02  0.79728001664E+02  0.51100000000E-03 0. -1.
         11    1    1    2    0    0  0.40808480567E+01 -0.13225301578E+02 -0.14157541980E+02  0.19798937292E+02  0.51100000000E-03 0.  1.
<mgrwt>
<rscale>  0 0.36289870E+02</rscale>
<asrwt>0</asrwt>
<pdfrwt beam="2">  1        4 0.14784763E-01 0.36289870E+02</pdfrwt>
<pdfrwt beam="1">  1       -4 0.52707176E-03 0.36289870E+02</pdfrwt>
<totfact> 0.26994332E+05</totfact>
</mgrwt>
</event>
<event>
 4    1  0.5401488E-001  0.3184603E+02  0.7818608E-02  0.1578536E+00
         -4   -1    0    0    0  501 -0.00000000000E+00  0.00000000000E+00  0.33535606266E+02  0.33565656371E+02  0.14200000000E+01 0.  1.
          4   -1    0    0  501    0  0.00000000000E+00 -0.00000000000E+00 -0.74599543589E+01  0.75939001203E+01  0.14200000000E+01 0. -1.
        -11    1    1    2    0    0 -0.25132076984E+01 -0.12818738483E+02  0.24805988463E+02  0.28035215946E+02  0.51100000000E-03 0.  1.
         11    1    1    2    0    0  0.25132076984E+01  0.12818738483E+02  0.12696634441E+01  0.13124340546E+02  0.51100000000E-03 0. -1.
<mgrwt>
<rscale>  0 0.31846028E+02</rscale>
<asrwt>0</asrwt>
<pdfrwt beam="2">  1        4 0.11603003E-02 0.31846028E+02</pdfrwt>
<pdfrwt beam="1">  1       -4 0.51719391E-02 0.31846028E+02</pdfrwt>
<totfact> 0.43585293E+05</totfact>
</mgrwt>
</event>
<event>
 4    1  0.5401488E-001  0.9777896E+02  0.7818608E-02  0.1285037E+00
          4   -1    0    0  501    0  0.00000000000E+00  0.00000000000E+00  0.12272227890E+02  0.12354107713E+02  0.14200000000E+01 0.  1.
         -4   -1    0    0    0  501 -0.00000000000E+00 -0.00000000000E+00 -0.19403138123E+03  0.19403657722E+03  0.14200000000E+01 0. -1.
        -11    1    1    2    0    0  0.45517305071E+02 -0.17158971353E+02 -0.80554845442E+02  0.94102808052E+02  0.51100000000E-03 0.  1.
         11    1    1    2    0    0 -0.45517305071E+02  0.17158971353E+02 -0.10120430789E+03  0.11228787688E+03  0.51100000000E-03 0. -1.
<mgrwt>
<rscale>  0 0.97778960E+02</rscale>
<asrwt>0</asrwt>
<pdfrwt beam="1">  1        4 0.18947333E-02 0.97778960E+02</pdfrwt>
<pdfrwt beam="2">  1       -4 0.29857678E-01 0.97778960E+02</pdfrwt>
<totfact> 0.17498809E+04</totfact>
</mgrwt>
</event>
<event>
 4    1  0.5401488E-001  0.2429434E+02  0.7818608E-02  0.1671349E+00
         -4   -1    0    0    0  501 -0.00000000000E+00  0.00000000000E+00  0.24556371748E+01  0.28366448375E+01  0.14200000000E+01 0.  1.
          4   -1    0    0  501    0  0.00000000000E+00 -0.00000000000E+00 -0.55371108784E+02  0.55389313843E+02  0.14200000000E+01 0. -1.
        -11    1    1    2    0    0 -0.80491288002E+01  0.90963289692E+01 -0.26814083373E+02  0.29436826299E+02  0.51100000000E-03 0.  1.
         11    1    1    2    0    0  0.80491288002E+01 -0.90963289692E+01 -0.26101388237E+02  0.28789132382E+02  0.51100000000E-03 0. -1.
<mgrwt>
<rscale>  0 0.24294344E+02</rscale>
<asrwt>0</asrwt>
<pdfrwt beam="2">  1        4 0.85493399E-02 0.24294344E+02</pdfrwt>
<pdfrwt beam="1">  1       -4 0.40849905E-03 0.24294344E+02</pdfrwt>
<totfact> 0.74724123E+05</totfact>
</mgrwt>
</event>
<event>
 4    1  0.5401488E-001  0.2935812E+02  0.7818608E-02  0.1605294E+00
         -4   -1    0    0    0  501 -0.00000000000E+00  0.00000000000E+00  0.11917386847E+02  0.12001687767E+02  0.14200000000E+01 0.  1.
          4   -1    0    0  501    0  0.00000000000E+00 -0.00000000000E+00 -0.17904480014E+02  0.17960701673E+02  0.14200000000E+01 0. -1.
        -11    1    1    2    0    0  0.59323774566E+01 -0.11911874604E+02 -0.93169605669E+01  0.16244741098E+02  0.51100000000E-03 0.  1.
         11    1    1    2    0    0 -0.59323774566E+01  0.11911874604E+02  0.33298673996E+01  0.13717648342E+02  0.51100000000E-03 0. -1.
<mgrwt>
<rscale>  0 0.29358125E+02</rscale>
<asrwt>0</asrwt>
<pdfrwt beam="2">  1        4 0.27653448E-02 0.29358125E+02</pdfrwt>
<pdfrwt beam="1">  1       -4 0.18442536E-02 0.29358125E+02</pdfrwt>
<totfact> 0.54647636E+05</totfact>
</mgrwt>
</event>
<event>
 4    1  0.5401488E-001  0.2384989E+02  0.7818608E-02  0.1678093E+00
          4   -1    0    0  501    0  0.00000000000E+00  0.00000000000E+00  0.61029844789E+01  0.62660050710E+01  0.14200000000E+01 0.  1.
         -4   -1    0    0    0  501 -0.00000000000E+00 -0.00000000000E+00 -0.22808296342E+02  0.22852456805E+02  0.14200000000E+01 0. -1.
        -11    1    1    2    0    0 -0.10182062293E+02  0.59185263729E+01 -0.10637086074E+02  0.15869812455E+02  0.51100000000E-03 0.  1.
         11    1    1    2    0    0  0.10182062293E+02 -0.59185263729E+01 -0.60682257895E+01  0.13248649420E+02  0.51100000000E-03 0. -1.
<mgrwt>
<rscale>  0 0.23849893E+02</rscale>
<asrwt>0</asrwt>
<pdfrwt beam="1">  1        4 0.95485770E-03 0.23849893E+02</pdfrwt>
<pdfrwt beam="2">  1       -4 0.35249056E-02 0.23849893E+02</pdfrwt>
<totfact> 0.86535527E+05</totfact>
</mgrwt>
</event>
<event>
 4    1  0.5401488E-001  0.2487053E+02  0.7818608E-02  0.1662869E+00
          4   -1    0    0  501    0  0.00000000000E+00  0.00000000000E+00  0.23080151427E+01  0.27098586492E+01  0.14200000000E+01 0.  1.
         -4   -1    0    0    0  501 -0.00000000000E+00 -0.00000000000E+00 -0.61223244793E+02  0.61239710180E+02  0.14200000000E+01 0. -1.
        -11    1    1    2    0    0 -0.11814692303E+02  0.38623035972E+01 -0.28525457179E+02  0.31116009558E+02  0.51100000000E-03 0.  1.
         11    1    1    2    0    0  0.11814692303E+02 -0.38623035972E+01 -0.30389772471E+02  0.32833559271E+02  0.51100000000E-03 0. -1.
<mgrwt>
<rscale>  0 0.24870526E+02</rscale>
<asrwt>0</asrwt>
<pdfrwt beam="1">  1        4 0.38725691E-03 0.24870526E+02</pdfrwt>
<pdfrwt beam="2">  1       -4 0.94511372E-02 0.24870526E+02</pdfrwt>
<totfact> 0.69730885E+05</totfact>
</mgrwt>
</event>
<event>
 4    1  0.5401488E-001  0.3406485E+02  0.7818608E-02  0.1557065E+00
          4   -1    0    0  501    0  0.00000000000E+00  0.00000000000E+00  0.67983275955E+01  0.69450455791E+01  0.14200000000E+01 0. -1.
         -4   -1    0    0    0  501 -0.00000000000E+00 -0.00000000000E+00 -0.42058398541E+02  0.42082363144E+02  0.14200000000E+01 0.  1.
        -11    1    1    2    0    0  0.28820478964E+01 -0.13080657665E+02 -0.32772409288E+02  0.35403963278E+02  0.51100000000E-03 0.  1.
         11    1    1    2    0    0 -0.28820478964E+01  0.13080657665E+02 -0.24876616574E+01  0.13623445445E+02  0.51100000000E-03 0. -1.
<mgrwt>
<rscale>  0 0.34064853E+02</rscale>
<asrwt>0</asrwt>
<pdfrwt beam="1">  1        4 0.10590260E-02 0.34064853E+02</pdfrwt>
<pdfrwt beam="2">  1       -4 0.64836521E-02 0.34064853E+02</pdfrwt>
<totfact> 0.36340939E+05</totfact>
</mgrwt>
</event>
<event>
 4    1  0.5401488E-001  0.3513998E+02  0.7818608E-02  0.1547361E+00
         -4   -1    0    0    0  501 -0.00000000000E+00  0.00000000000E+00  0.20758508549E+02  0.20807019902E+02  0.14200000000E+01 0.  1.
          4   -1    0    0  501    0  0.00000000000E+00 -0.00000000000E+00 -0.14771275397E+02  0.14839372523E+02  0.14200000000E+01 0. -1.
        -11    1    1    2    0    0  0.11178893916E+02 -0.71878162858E+01 -0.86642685941E+01  0.15865116535E+02  0.51100000000E-03 0. -1.
         11    1    1    2    0    0 -0.11178893916E+02  0.71878162858E+01  0.14651501746E+02  0.19781275889E+02  0.51100000000E-03 0.  1.
<mgrwt>
<rscale>  0 0.35139982E+02</rscale>
<asrwt>0</asrwt>
<pdfrwt beam="2">  1        4 0.22814738E-02 0.35139982E+02</pdfrwt>
<pdfrwt beam="1">  1       -4 0.32025865E-02 0.35139982E+02</pdfrwt>
<totfact> 0.35420310E+05</totfact>
</mgrwt>
</event>
<event>
 4    1  0.5401488E-001  0.3957717E+02  0.7818608E-02  0.1511346E+00
          4   -1    0    0  501    0  0.00000000000E+00  0.00000000000E+00  0.71695370451E+01  0.73088071148E+01  0.14200000000E+01 0. -1.
         -4   -1    0    0    0  501 -0.00000000000E+00 -0.00000000000E+00 -0.53944230306E+02  0.53962916742E+02  0.14200000000E+01 0.  1.
        -11    1    1    2    0    0  0.96877741285E+00 -0.19677707049E+02 -0.20517038863E+02  0.28444675571E+02  0.51100000000E-03 0. -1.
         11    1    1    2    0    0 -0.96877741285E+00  0.19677707049E+02 -0.26257654398E+02  0.32827048285E+02  0.51100000000E-03 0.  1.
<mgrwt>
<rscale>  0 0.39577168E+02</rscale>
<asrwt>0</asrwt>
<pdfrwt beam="1">  1        4 0.11151562E-02 0.39577168E+02</pdfrwt>
<pdfrwt beam="2">  1       -4 0.83112626E-02 0.39577168E+02</pdfrwt>
<totfact> 0.24581672E+05</totfact>
</mgrwt>
</event>
<event>
 4    1  0.5401488E-001  0.8661006E+02  0.7818608E-02  0.1311275E+00
         -4   -1    0    0    0  501 -0.00000000000E+00  0.00000000000E+00  0.45197064784E+02  0.45219366041E+02  0.14200000000E+01 0. -1.
          4   -1    0    0  501    0  0.00000000000E+00 -0.00000000000E+00 -0.41447501030E+02  0.41471818644E+02  0.14200000000E+01 0.  1.
        -11    1    1    2    0    0  0.30219250346E-01  0.29287112322E+02 -0.30054779856E+02  0.41964576178E+02  0.51100000000E-03 0.  1.
         11    1    1    2    0    0 -0.30219250346E-01 -0.29287112322E+02  0.33804343610E+02  0.44726608507E+02  0.51100000000E-03 0. -1.
<mgrwt>
<rscale>  0 0.86610059E+02</rscale>
<asrwt>0</asrwt>
<pdfrwt beam="2">  1        4 0.63801247E-02 0.86610059E+02</pdfrwt>
<pdfrwt beam="1">  1       -4 0.69569806E-02 0.86610059E+02</pdfrwt>
<totfact> 0.31377109E+04</totfact>
</mgrwt>
</event>
<event>
 4    1  0.5401488E-001  0.2631893E+02  0.7818608E-02  0.1642750E+00
         -4   -1    0    0    0  501 -0.00000000000E+00  0.00000000000E+00  0.60095069064E+01  0.61749958104E+01  0.14200000000E+01 0.  1.
          4   -1    0    0  501    0  0.00000000000E+00 -0.00000000000E+00 -0.28241302205E+02  0.28276979157E+02  0.14200000000E+01 0. -1.
        -11    1    1    2    0    0  0.80105331559E+01 -0.83170249013E+01 -0.19377241073E+02  0.22557017013E+02  0.51100000000E-03 0. -1.
         11    1    1    2    0    0 -0.80105331559E+01  0.83170249013E+01 -0.28545542256E+01  0.11894957954E+02  0.51100000000E-03 0.  1.
<mgrwt>
<rscale>  0 0.26318926E+02</rscale>
<asrwt>0</asrwt>
<pdfrwt beam="2">  1        4 0.43602899E-02 0.26318926E+02</pdfrwt>
<pdfrwt beam="1">  1       -4 0.94001384E-03 0.26318926E+02</pdfrwt>
<totfact> 0.68443339E+05</totfact>
</mgrwt>
</event>
<event>
 4    1  0.5401488E-001  0.3583937E+02  0.7818608E-02  0.1541271E+00
         -4   -1    0    0    0  501 -0.00000000000E+00  0.00000000000E+00  0.44682283281E+02  0.44704841339E+02  0.14200000000E+01 0. -1.
          4   -1    0    0  501    0  0.00000000000E+00 -0.00000000000E+00 -0.70918586647E+01  0.72326246495E+01  0.14200000000E+01 0.  1.
        -11    1    1    2    0    0 -0.56690172102E+01  0.11329086899E+02  0.42845247481E+00  0.12675548820E+02  0.51100000000E-03 0.  1.
         11    1    1    2    0    0  0.56690172102E+01 -0.11329086899E+02  0.37161972141E+02  0.39261917169E+02  0.51100000000E-03 0. -1.
<mgrwt>
<rscale>  0 0.35839369E+02</rscale>
<asrwt>0</asrwt>
<pdfrwt beam="2">  1        4 0.11036186E-02 0.35839369E+02</pdfrwt>
<pdfrwt beam="1">  1       -4 0.68867607E-02 0.35839369E+02</pdfrwt>
<totfact> 0.31992462E+05</totfact>
</mgrwt>
</event>
<event>
 4    1  0.5401488E-001  0.2871568E+02  0.7818608E-02  0.1612735E+00
         -4   -1    0    0    0  501 -0.00000000000E+00  0.00000000000E+00  0.16256821667E+02  0.16318720867E+02  0.14200000000E+01 0.  1.
          4   -1    0    0  501    0  0.00000000000E+00 -0.00000000000E+00 -0.12554582018E+02  0.12634632154E+02  0.14200000000E+01 0. -1.
        -11    1    1    2    0    0 -0.17719413698E+01 -0.10745858189E+02  0.11284533517E+02  0.15682918778E+02  0.51100000000E-03 0.  1.
         11    1    1    2    0    0  0.17719413698E+01  0.10745858189E+02 -0.75822938681E+01  0.13270434243E+02  0.51100000000E-03 0. -1.
<mgrwt>
<rscale>  0 0.28715676E+02</rscale>
<asrwt>0</asrwt>
<pdfrwt beam="2">  1        4 0.19423933E-02 0.28715676E+02</pdfrwt>
<pdfrwt beam="1">  1       -4 0.25119687E-02 0.28715676E+02</pdfrwt>
<totfact> 0.57651031E+05</totfact>
</mgrwt>
</event>
<event>
 4    1  0.5401488E-001  0.6648863E+02  0.7818608E-02  0.1372458E+00
          4   -1    0    0  501    0  0.00000000000E+00  0.00000000000E+00  0.47335521190E+02  0.47356815416E+02  0.14200000000E+01 0.  1.
         -4   -1    0    0    0  501 -0.00000000000E+00 -0.00000000000E+00 -0.23299721994E+02  0.23342952791E+02  0.14200000000E+01 0. -1.
        -11    1    1    2    0    0  0.22972049759E+02 -0.47742310525E+01  0.37061128691E+02  0.43863830343E+02  0.51100000000E-03 0.  1.
         11    1    1    2    0    0 -0.22972049759E+02  0.47742310525E+01 -0.13025329495E+02  0.26835937863E+02  0.51100000000E-03 0. -1.
<mgrwt>
<rscale>  0 0.66488627E+02</rscale>
<asrwt>0</asrwt>
<pdfrwt beam="1">  1        4 0.72873512E-02 0.66488627E+02</pdfrwt>
<pdfrwt beam="2">  1       -4 0.35895362E-02 0.66488627E+02</pdfrwt>
<totfact> 0.65804696E+04</totfact>
</mgrwt>
</event>
<event>
 4    1  0.5401488E-001  0.4013847E+02  0.7818608E-02  0.1507195E+00
          4   -1    0    0  501    0  0.00000000000E+00  0.00000000000E+00  0.15916276428E+03  0.15916909855E+03  0.14200000000E+01 0.  1.
         -4   -1    0    0    0  501 -0.00000000000E+00 -0.00000000000E+00 -0.23244850806E+01  0.27238999412E+01  0.14200000000E+01 0. -1.
        -11    1    1    2    0    0  0.13120531729E+02 -0.13489818357E+02  0.50286408579E+02  0.53692145051E+02  0.51100000000E-03 0. -1.
         11    1    1    2    0    0 -0.13120531729E+02  0.13489818357E+02  0.10655187062E+03  0.10820085344E+03  0.51100000000E-03 0.  1.
<mgrwt>
<rscale>  0 0.40138475E+02</rscale>
<asrwt>0</asrwt>
<pdfrwt beam="1">  1        4 0.24517784E-01 0.40138475E+02</pdfrwt>
<pdfrwt beam="2">  1       -4 0.38882467E-03 0.40138475E+02</pdfrwt>
<totfact> 0.18283465E+05</totfact>
</mgrwt>
</event>
<event>
 4    1  0.5401488E-001  0.3290344E+02  0.7818608E-02  0.1568048E+00
         -4   -1    0    0    0  501 -0.00000000000E+00  0.00000000000E+00  0.47871053376E+02  0.47892109489E+02  0.14200000000E+01 0.  1.
          4   -1    0    0  501    0  0.00000000000E+00 -0.00000000000E+00 -0.55420867039E+01  0.57211122199E+01  0.14200000000E+01 0. -1.
        -11    1    1    2    0    0 -0.13674214744E+02 -0.55459809576E+00  0.62870325152E+01  0.15060494880E+02  0.51100000000E-03 0. -1.
         11    1    1    2    0    0  0.13674214744E+02  0.55459809576E+00  0.36041934157E+02  0.38552726829E+02  0.51100000000E-03 0.  1.
<mgrwt>
<rscale>  0 0.32903436E+02</rscale>
<asrwt>0</asrwt>
<pdfrwt beam="2">  1        4 0.86801958E-03 0.32903436E+02</pdfrwt>
<pdfrwt beam="1">  1       -4 0.73801687E-02 0.32903436E+02</pdfrwt>
<totfact> 0.38764083E+05</totfact>
</mgrwt>
</event>
<event>
 4    1  0.5401488E-001  0.2276399E+02  0.7818608E-02  0.1695365E+00
          4   -1    0    0  501    0  0.00000000000E+00  0.00000000000E+00  0.68057339726E+01  0.69522956572E+01  0.14200000000E+01 0.  1.
         -4   -1    0    0    0  501 -0.00000000000E+00 -0.00000000000E+00 -0.18658778625E+02  0.18712734161E+02  0.14200000000E+01 0. -1.
        -11    1    1    2    0    0 -0.10559325914E+02  0.61220753663E+00 -0.11864970756E+01  0.10643398771E+02  0.51100000000E-03 0. -1.
         11    1    1    2    0    0  0.10559325914E+02 -0.61220753663E+00 -0.10666547577E+02  0.15021631047E+02  0.51100000000E-03 0.  1.
<mgrwt>
<rscale>  0 0.22763987E+02</rscale>
<asrwt>0</asrwt>
<pdfrwt beam="1">  1        4 0.10624604E-02 0.22763987E+02</pdfrwt>
<pdfrwt beam="2">  1       -4 0.28860057E-02 0.22763987E+02</pdfrwt>
<totfact> 0.96927848E+05</totfact>
</mgrwt>
</event>
<event>
 4    1  0.5401488E-001  0.2532821E+02  0.7818608E-02  0.1656332E+00
          4   -1    0    0  501    0  0.00000000000E+00  0.00000000000E+00  0.74373838563E+02  0.74387393170E+02  0.14200000000E+01 0. -1.
         -4   -1    0    0    0  501 -0.00000000000E+00 -0.00000000000E+00 -0.19073522777E+01  0.23778966991E+01  0.14200000000E+01 0.  1.
        -11    1    1    2    0    0 -0.71567750848E+01 -0.74740991332E+01  0.58359891488E+02  0.59270216148E+02  0.51100000000E-03 0. -1.
         11    1    1    2    0    0  0.71567750848E+01  0.74740991332E+01  0.14106594798E+02  0.17495073721E+02  0.51100000000E-03 0.  1.
<mgrwt>
<rscale>  0 0.25328207E+02</rscale>
<asrwt>0</asrwt>
<pdfrwt beam="1">  1        4 0.11479368E-01 0.25328207E+02</pdfrwt>
<pdfrwt beam="2">  1       -4 0.33067718E-03 0.25328207E+02</pdfrwt>
<totfact> 0.64381399E+05</totfact>
</mgrwt>
</event>
<event>
 4    1  0.5401488E-001  0.2537179E+02  0.7818608E-02  0.1655718E+00
         -4   -1    0    0    0  501 -0.00000000000E+00  0.00000000000E+00  0.11010832190E+03  0.11011747796E+03  0.14200000000E+01 0. -1.
          4   -1    0    0  501    0  0.00000000000E+00 -0.00000000000E+00 -0.11052535481E+01  0.17994403034E+01  0.14200000000E+01 0.  1.
        -11    1    1    2    0    0  0.97651220308E+01  0.79214487267E+01  0.47087561640E+02  0.48737515526E+02  0.51100000000E-03 0.  1.
         11    1    1    2    0    0 -0.97651220308E+01 -0.79214487267E+01  0.61915506711E+02  0.63179402733E+02  0.51100000000E-03 0. -1.
<mgrwt>
<rscale>  0 0.25371789E+02</rscale>
<asrwt>0</asrwt>
<pdfrwt beam="2">  1        4 0.22414228E-03 0.25371789E+02</pdfrwt>
<pdfrwt beam="1">  1       -4 0.16993846E-01 0.25371789E+02</pdfrwt>
<totfact> 0.57957757E+05</totfact>
</mgrwt>
</event>
<event>
 4    1  0.5401488E-001  0.3537021E+02  0.7818608E-02  0.1545337E+00
          4   -1    0    0  501    0  0.00000000000E+00  0.00000000000E+00  0.74179956993E+01  0.75526856280E+01  0.14200000000E+01 0.  1.
         -4   -1    0    0    0  501 -0.00000000000E+00 -0.00000000000E+00 -0.41636490820E+02  0.41660698119E+02  0.14200000000E+01 0. -1.
        -11    1    1    2    0    0 -0.26341000951E+01 -0.17455774100E+02 -0.15636487084E+02  0.23582668664E+02  0.51100000000E-03 0. -1.
         11    1    1    2    0    0  0.26341000951E+01  0.17455774100E+02 -0.18582008036E+02  0.25630715083E+02  0.51100000000E-03 0.  1.
<mgrwt>
<rscale>  0 0.35370210E+02</rscale>
<asrwt>0</asrwt>
<pdfrwt beam="1">  1        4 0.11534530E-02 0.35370210E+02</pdfrwt>
<pdfrwt beam="2">  1       -4 0.64178367E-02 0.35370210E+02</pdfrwt>
<totfact> 0.33289142E+05</totfact>
</mgrwt>
</event>
<event>
 4    1  0.5401488E-001  0.3416086E+02  0.7818608E-02  0.1556181E+00
          4   -1    0    0  501    0  0.00000000000E+00  0.00000000000E+00  0.34897886151E+01  0.37676285085E+01  0.14200000000E+01 0.  1.
         -4   -1    0    0    0  501 -0.00000000000E+00 -0.00000000000E+00 -0.80113667438E+02  0.80126251069E+02  0.14200000000E+01 0. -1.
        -11    1    1    2    0    0  0.15803821475E+02  0.31227327605E+01 -0.24369982746E+02  0.29213152730E+02  0.51100000000E-03 0. -1.
         11    1    1    2    0    0 -0.15803821475E+02 -0.31227327605E+01 -0.52253896076E+02  0.54680726847E+02  0.51100000000E-03 0.  1.
<mgrwt>
<rscale>  0 0.34160858E+02</rscale>
<asrwt>0</asrwt>
<pdfrwt beam="1">  1        4 0.55923089E-03 0.34160858E+02</pdfrwt>
<pdfrwt beam="2">  1       -4 0.12347519E-01 0.34160858E+02</pdfrwt>
<totfact> 0.32416796E+05</totfact>
</mgrwt>
</event>
<event>
 4    1  0.5401488E-001  0.1255424E+03  0.7818608E-02  0.1234224E+00
          4   -1    0    0  501    0  0.00000000000E+00  0.00000000000E+00  0.25597811972E+02  0.25637167896E+02  0.14200000000E+01 0. -1.
         -4   -1    0    0    0  501 -0.00000000000E+00 -0.00000000000E+00 -0.15376723065E+03  0.15377378717E+03  0.14200000000E+01 0.  1.
        -11    1    1    2    0    0  0.25019443370E+02 -0.11996486254E+02 -0.14455046976E+03  0.14718942400E+03  0.51100000000E-03 0.  1.
         11    1    1    2    0    0 -0.25019443370E+02  0.11996486254E+02  0.16381051089E+02  0.32221531063E+02  0.51100000000E-03 0. -1.
<mgrwt>
<rscale>  0 0.12554239E+03</rscale>
<asrwt>0</asrwt>
<pdfrwt beam="1">  1        4 0.39416567E-02 0.12554239E+03</pdfrwt>
<pdfrwt beam="2">  1       -4 0.23660028E-01 0.12554239E+03</pdfrwt>
<totfact> 0.92592326E+03</totfact>
</mgrwt>
</event>
<event>
 4    1  0.5401488E-001  0.8661973E+02  0.7818608E-02  0.1311250E+00
         -4   -1    0    0    0  501 -0.00000000000E+00  0.00000000000E+00  0.20293954246E+02  0.20343573406E+02  0.14200000000E+01 0.  1.
          4   -1    0    0  501    0  0.00000000000E+00 -0.00000000000E+00 -0.92260790176E+02  0.92271717248E+02  0.14200000000E+01 0. -1.
        -11    1    1    2    0    0  0.37493753516E+02 -0.15151189931E+01 -0.64099129256E+02  0.74274999225E+02  0.51100000000E-03 0. -1.
         11    1    1    2    0    0 -0.37493753516E+02  0.15151189931E+01 -0.78677066748E+01  0.38340291429E+02  0.51100000000E-03 0.  1.
<mgrwt>
<rscale>  0 0.86619733E+02</rscale>
<asrwt>0</asrwt>
<pdfrwt beam="2">  1        4 0.14198625E-01 0.86619733E+02</pdfrwt>
<pdfrwt beam="1">  1       -4 0.31268043E-02 0.86619733E+02</pdfrwt>
<totfact> 0.29499458E+04</totfact>
</mgrwt>
</event>
<event>
 4    1  0.5401488E-001  0.3251975E+02  0.7818608E-02  0.1571797E+00
          4   -1    0    0  501    0  0.00000000000E+00  0.00000000000E+00  0.55791649681E+01  0.57570375838E+01  0.14200000000E+01 0.  1.
         -4   -1    0    0    0  501 -0.00000000000E+00 -0.00000000000E+00 -0.46455217582E+02  0.46476915137E+02  0.14200000000E+01 0. -1.
        -11    1    1    2    0    0  0.14940917756E+02  0.62628898715E+01 -0.22668722745E+02  0.27862623783E+02  0.51100000000E-03 0. -1.
         11    1    1    2    0    0 -0.14940917756E+02 -0.62628898715E+01 -0.18207329869E+02  0.24371328937E+02  0.51100000000E-03 0.  1.
<mgrwt>
<rscale>  0 0.32519750E+02</rscale>
<asrwt>0</asrwt>
<pdfrwt beam="1">  1        4 0.87368465E-03 0.32519750E+02</pdfrwt>
<pdfrwt beam="2">  1       -4 0.71623079E-02 0.32519750E+02</pdfrwt>
<totfact> 0.40000983E+05</totfact>
</mgrwt>
</event>
<event>
 4    1  0.5401488E-001  0.4623022E+02  0.7818608E-02  0.1466805E+00
          4   -1    0    0  501    0  0.00000000000E+00  0.00000000000E+00  0.46826856884E+02  0.46848382316E+02  0.14200000000E+01 0.  1.
         -4   -1    0    0    0  501 -0.00000000000E+00 -0.00000000000E+00 -0.11341864042E+02  0.11430410314E+02  0.14200000000E+01 0. -1.
        -11    1    1    2    0    0 -0.14148971168E+02  0.58658929280E+01  0.39566400523E+02  0.42427610533E+02  0.51100000000E-03 0.  1.
         11    1    1    2    0    0  0.14148971168E+02 -0.58658929280E+01 -0.40814076811E+01  0.15851182097E+02  0.51100000000E-03 0. -1.
<mgrwt>
<rscale>  0 0.46230217E+02</rscale>
<asrwt>0</asrwt>
<pdfrwt beam="1">  1        4 0.72125989E-02 0.46230217E+02</pdfrwt>
<pdfrwt beam="2">  1       -4 0.17533692E-02 0.46230217E+02</pdfrwt>
<totfact> 0.17053790E+05</totfact>
</mgrwt>
</event>
<event>
 4    1  0.5401488E-001  0.2528278E+02  0.7818608E-02  0.1656973E+00
          4   -1    0    0  501    0  0.00000000000E+00  0.00000000000E+00  0.29453343952E+01  0.32697698236E+01  0.14200000000E+01 0.  1.
         -4   -1    0    0    0  501 -0.00000000000E+00 -0.00000000000E+00 -0.51089834486E+02  0.51109564544E+02  0.14200000000E+01 0. -1.
        -11    1    1    2    0    0 -0.10652645257E+02 -0.97201712240E-01 -0.38710082851E+02  0.40149206888E+02  0.51100000000E-03 0. -1.
         11    1    1    2    0    0  0.10652645257E+02  0.97201712240E-01 -0.94344172406E+01  0.14230127480E+02  0.51100000000E-03 0.  1.
<mgrwt>
<rscale>  0 0.25282783E+02</rscale>
<asrwt>0</asrwt>
<pdfrwt beam="1">  1        4 0.47960267E-03 0.25282783E+02</pdfrwt>
<pdfrwt beam="2">  1       -4 0.78864482E-02 0.25282783E+02</pdfrwt>
<totfact> 0.69495716E+05</totfact>
</mgrwt>
</event>
<event>
 4    1  0.5401488E-001  0.1331944E+03  0.7818608E-02  0.1222791E+00
         -4   -1    0    0    0  501 -0.00000000000E+00  0.00000000000E+00  0.68099489898E+02  0.68114293099E+02  0.14200000000E+01 0. -1.
          4   -1    0    0  501    0  0.00000000000E+00 -0.00000000000E+00 -0.65098415757E+02  0.65113901235E+02  0.14200000000E+01 0.  1.
        -11    1    1    2    0    0  0.55809417440E+02 -0.64922765101E+01  0.37263570754E+02  0.67419688778E+02  0.51100000000E-03 0. -1.
         11    1    1    2    0    0 -0.55809417440E+02  0.64922765101E+01 -0.34262496612E+02  0.65808505557E+02  0.51100000000E-03 0.  1.
<mgrwt>
<rscale>  0 0.13319439E+03</rscale>
<asrwt>0</asrwt>
<pdfrwt beam="2">  1        4 0.10017471E-01 0.13319439E+03</pdfrwt>
<pdfrwt beam="1">  1       -4 0.10479175E-01 0.13319439E+03</pdfrwt>
<totfact> 0.85848099E+03</totfact>
</mgrwt>
</event>
<event>
 4    1  0.5401488E-001  0.2082685E+02  0.7818608E-02  0.1729368E+00
          4   -1    0    0  501    0  0.00000000000E+00  0.00000000000E+00  0.24157944889E+01  0.28022246542E+01  0.14200000000E+01 0. -1.
         -4   -1    0    0    0  501 -0.00000000000E+00 -0.00000000000E+00 -0.41163845135E+02  0.41188330220E+02  0.14200000000E+01 0.  1.
        -11    1    1    2    0    0  0.81605447497E+01  0.57962827230E+01 -0.13307919840E+02  0.16652090402E+02  0.51100000000E-03 0. -1.
         11    1    1    2    0    0 -0.81605447497E+01 -0.57962827230E+01 -0.25440130806E+02  0.27338464472E+02  0.51100000000E-03 0.  1.
<mgrwt>
<rscale>  0 0.20826845E+02</rscale>
<asrwt>0</asrwt>
<pdfrwt beam="1">  1        4 0.40326959E-03 0.20826845E+02</pdfrwt>
<pdfrwt beam="2">  1       -4 0.63645076E-02 0.20826845E+02</pdfrwt>
<totfact> 0.10846394E+06</totfact>
</mgrwt>
</event>
<event>
 4    1  0.5401488E-001  0.2384646E+02  0.7818608E-02  0.1678146E+00
         -4   -1    0    0    0  501 -0.00000000000E+00  0.00000000000E+00  0.90907681180E+01  0.92010034765E+01  0.14200000000E+01 0. -1.
          4   -1    0    0  501    0  0.00000000000E+00 -0.00000000000E+00 -0.15400875066E+02  0.15466200335E+02  0.14200000000E+01 0.  1.
        -11    1    1    2    0    0 -0.11846154004E+02 -0.13399493922E+01 -0.33527984427E+01  0.12384186962E+02  0.51100000000E-03 0. -1.
         11    1    1    2    0    0  0.11846154004E+02  0.13399493922E+01 -0.29573085055E+01  0.12283016849E+02  0.51100000000E-03 0.  1.
<mgrwt>
<rscale>  0 0.23846457E+02</rscale>
<asrwt>0</asrwt>
<pdfrwt beam="2">  1        4 0.23828701E-02 0.23846457E+02</pdfrwt>
<pdfrwt beam="1">  1       -4 0.14120844E-02 0.23846457E+02</pdfrwt>
<totfact> 0.88176140E+05</totfact>
</mgrwt>
</event>
<event>
 4    1  0.5401488E-001  0.2587822E+02  0.7818608E-02  0.1648699E+00
         -4   -1    0    0    0  501 -0.00000000000E+00  0.00000000000E+00  0.68735929205E+01  0.70187377524E+01  0.14200000000E+01 0. -1.
          4   -1    0    0  501    0  0.00000000000E+00 -0.00000000000E+00 -0.23936175861E+02  0.23978259212E+02  0.14200000000E+01 0.  1.
        -11    1    1    2    0    0 -0.75531248503E+01 -0.82628045787E+01 -0.75969454786E+00  0.11220551260E+02  0.51100000000E-03 0. -1.
         11    1    1    2    0    0  0.75531248503E+01  0.82628045787E+01 -0.16302888393E+02  0.19776445705E+02  0.51100000000E-03 0.  1.
<mgrwt>
<rscale>  0 0.25878216E+02</rscale>
<asrwt>0</asrwt>
<pdfrwt beam="2">  1        4 0.36968907E-02 0.25878216E+02</pdfrwt>
<pdfrwt beam="1">  1       -4 0.10718780E-02 0.25878216E+02</pdfrwt>
<totfact> 0.71981549E+05</totfact>
</mgrwt>
</event>
<event>
 4    1  0.5401488E-001  0.2392710E+02  0.7818608E-02  0.1676908E+00
         -4   -1    0    0    0  501 -0.00000000000E+00  0.00000000000E+00  0.31587158720E+02  0.31619060644E+02  0.14200000000E+01 0. -1.
          4   -1    0    0  501    0  0.00000000000E+00 -0.00000000000E+00 -0.43848161983E+01  0.46090143298E+01  0.14200000000E+01 0.  1.
        -11    1    1    2    0    0 -0.11434091313E+02  0.33584316526E+01  0.12006693602E+02  0.16916802264E+02  0.51100000000E-03 0. -1.
         11    1    1    2    0    0  0.11434091313E+02 -0.33584316526E+01  0.15195648919E+02  0.19311272710E+02  0.51100000000E-03 0.  1.
<mgrwt>
<rscale>  0 0.23927097E+02</rscale>
<asrwt>0</asrwt>
<pdfrwt beam="2">  1        4 0.69428711E-03 0.23927097E+02</pdfrwt>
<pdfrwt beam="1">  1       -4 0.48792629E-02 0.23927097E+02</pdfrwt>
<totfact> 0.83551284E+05</totfact>
</mgrwt>
</event>
<event>
 4    1  0.5401488E-001  0.5553750E+02  0.7818608E-02  0.1417574E+00
         -4   -1    0    0    0  501 -0.00000000000E+00  0.00000000000E+00  0.37449021498E+01  0.40050832840E+01  0.14200000000E+01 0. -1.
          4   -1    0    0  501    0  0.00000000000E+00 -0.00000000000E+00 -0.19873203172E+03  0.19873710482E+03  0.14200000000E+01 0.  1.
        -11    1    1    2    0    0 -0.93594170836E+01  0.25684959681E+02 -0.11529823540E+03  0.11849472110E+03  0.51100000000E-03 0.  1.
         11    1    1    2    0    0  0.93594170836E+01 -0.25684959681E+02 -0.79688894166E+02  0.84247466999E+02  0.51100000000E-03 0. -1.
<mgrwt>
<rscale>  0 0.55537502E+02</rscale>
<asrwt>0</asrwt>
<pdfrwt beam="2">  1        4 0.30594555E-01 0.55537502E+02</pdfrwt>
<pdfrwt beam="1">  1       -4 0.59654312E-03 0.55537502E+02</pdfrwt>
<totfact> 0.76393755E+04</totfact>
</mgrwt>
</event>
<event>
 4    1  0.5401488E-001  0.3233556E+02  0.7818608E-02  0.1573620E+00
          4   -1    0    0  501    0  0.00000000000E+00  0.00000000000E+00  0.12446281600E+01  0.18882529642E+01  0.14200000000E+01 0. -1.
         -4   -1    0    0    0  501 -0.00000000000E+00 -0.00000000000E+00 -0.16622606167E+03  0.16623212679E+03  0.14200000000E+01 0.  1.
        -11    1    1    2    0    0 -0.99061899007E+01 -0.12637337703E+02 -0.92303750058E+02  0.93690005751E+02  0.51100000000E-03 0. -1.
         11    1    1    2    0    0  0.99061899007E+01  0.12637337703E+02 -0.72677683451E+02  0.74430374006E+02  0.51100000000E-03 0.  1.
<mgrwt>
<rscale>  0 0.32335564E+02</rscale>
<asrwt>0</asrwt>
<pdfrwt beam="1">  1        4 0.24145754E-03 0.32335564E+02</pdfrwt>
<pdfrwt beam="2">  1       -4 0.25623202E-01 0.32335564E+02</pdfrwt>
<totfact> 0.29623027E+05</totfact>
</mgrwt>
</event>
<event>
 4    1  0.5401488E-001  0.5427347E+02  0.7818608E-02  0.1423566E+00
          4   -1    0    0  501    0  0.00000000000E+00  0.00000000000E+00  0.16715449696E+03  0.16716052839E+03  0.14200000000E+01 0. -1.
         -4   -1    0    0    0  501 -0.00000000000E+00 -0.00000000000E+00 -0.42848232130E+01  0.45139904704E+01  0.14200000000E+01 0.  1.
        -11    1    1    2    0    0 -0.25247882259E+02 -0.50673871046E+01  0.54359315993E+02  0.60150388246E+02  0.51100000000E-03 0. -1.
         11    1    1    2    0    0  0.25247882259E+02  0.50673871046E+01  0.10851035775E+03  0.11152413062E+03  0.51100000000E-03 0.  1.
<mgrwt>
<rscale>  0 0.54273472E+02</rscale>
<asrwt>0</asrwt>
<pdfrwt beam="1">  1        4 0.25734166E-01 0.54273472E+02</pdfrwt>
<pdfrwt beam="2">  1       -4 0.67729586E-03 0.54273472E+02</pdfrwt>
<totfact> 0.86356391E+04</totfact>
</mgrwt>
</event>
<event>
 4    1  0.5401488E-001  0.2291394E+02  0.7818608E-02  0.1692909E+00
          4   -1    0    0  501    0  0.00000000000E+00  0.00000000000E+00  0.25656827567E+02  0.25696093104E+02  0.14200000000E+01 0. -1.
         -4   -1    0    0    0  501 -0.00000000000E+00 -0.00000000000E+00 -0.49734438555E+01  0.51721894574E+01  0.14200000000E+01 0.  1.
        -11    1    1    2    0    0  0.10116165920E+02  0.32135904927E+00  0.17573970084E+02  0.20280150624E+02  0.51100000000E-03 0. -1.
         11    1    1    2    0    0 -0.10116165920E+02 -0.32135904927E+00  0.31094136275E+01  0.10588131937E+02  0.51100000000E-03 0.  1.
<mgrwt>
<rscale>  0 0.22913937E+02</rscale>
<asrwt>0</asrwt>
<pdfrwt beam="1">  1        4 0.39655128E-02 0.22913937E+02</pdfrwt>
<pdfrwt beam="2">  1       -4 0.78345376E-03 0.22913937E+02</pdfrwt>
<totfact> 0.93553240E+05</totfact>
</mgrwt>
</event>
<event>
 4    1  0.5401488E-001  0.3045690E+02  0.7818608E-02  0.1593092E+00
          4   -1    0    0  501    0  0.00000000000E+00  0.00000000000E+00  0.60496154175E+02  0.60512817402E+02  0.14200000000E+01 0. -1.
         -4   -1    0    0    0  501 -0.00000000000E+00 -0.00000000000E+00 -0.36840920836E+01  0.39482824722E+01  0.14200000000E+01 0.  1.
        -11    1    1    2    0    0  0.10117589317E+02 -0.10979913394E+02  0.34748958134E+02  0.37820817064E+02  0.51100000000E-03 0. -1.
         11    1    1    2    0    0 -0.10117589317E+02  0.10979913394E+02  0.22063103957E+02  0.26640282810E+02  0.51100000000E-03 0.  1.
<mgrwt>
<rscale>  0 0.30456904E+02</rscale>
<asrwt>0</asrwt>
<pdfrwt beam="1">  1        4 0.93287042E-02 0.30456904E+02</pdfrwt>
<pdfrwt beam="2">  1       -4 0.58838756E-03 0.30456904E+02</pdfrwt>
<totfact> 0.44613779E+05</totfact>
</mgrwt>
</event>
<event>
 4    1  0.5401488E-001  0.3835599E+02  0.7818608E-02  0.1520670E+00
          4   -1    0    0  501    0  0.00000000000E+00  0.00000000000E+00  0.55360799526E+01  0.57152936269E+01  0.14200000000E+01 0. -1.
         -4   -1    0    0    0  501 -0.00000000000E+00 -0.00000000000E+00 -0.65190802753E+02  0.65206266291E+02  0.14200000000E+01 0.  1.
        -11    1    1    2    0    0 -0.13057722487E+02 -0.68323684372E+01 -0.71353966566E+01  0.16373736919E+02  0.51100000000E-03 0. -1.
         11    1    1    2    0    0  0.13057722487E+02  0.68323684372E+01 -0.52519326144E+02  0.54547822999E+02  0.51100000000E-03 0.  1.
<mgrwt>
<rscale>  0 0.38355987E+02</rscale>
<asrwt>0</asrwt>
<pdfrwt beam="1">  1        4 0.86667982E-03 0.38355987E+02</pdfrwt>
<pdfrwt beam="2">  1       -4 0.10044329E-01 0.38355987E+02</pdfrwt>
<totfact> 0.25713003E+05</totfact>
</mgrwt>
</event>
<event>
 4    1  0.5401488E-001  0.2140328E+02  0.7818608E-02  0.1718781E+00
          4   -1    0    0  501    0  0.00000000000E+00  0.00000000000E+00  0.71590528450E+01  0.72985229765E+01  0.14200000000E+01 0.  1.
         -4   -1    0    0    0  501 -0.00000000000E+00 -0.00000000000E+00 -0.15671034383E+02  0.15735238118E+02  0.14200000000E+01 0. -1.
        -11    1    1    2    0    0 -0.66112266346E+01 -0.80734727420E+01 -0.68108227933E+01  0.12461002653E+02  0.51100000000E-03 0. -1.
         11    1    1    2    0    0  0.66112266346E+01  0.80734727420E+01 -0.17011587445E+01  0.10572758442E+02  0.51100000000E-03 0.  1.
<mgrwt>
<rscale>  0 0.21403278E+02</rscale>
<asrwt>0</asrwt>
<pdfrwt beam="1">  1        4 0.11170600E-02 0.21403278E+02</pdfrwt>
<pdfrwt beam="2">  1       -4 0.24265956E-02 0.21403278E+02</pdfrwt>
<totfact> 0.11158573E+06</totfact>
</mgrwt>
</event>
<event>
 4    1  0.5401488E-001  0.3602636E+02  0.7818608E-02  0.1539671E+00
          4   -1    0    0  501    0  0.00000000000E+00  0.00000000000E+00  0.12541160283E+02  0.12621295546E+02  0.14200000000E+01 0. -1.
         -4   -1    0    0    0  501 -0.00000000000E+00 -0.00000000000E+00 -0.25690572294E+02  0.25729786334E+02  0.14200000000E+01 0.  1.
        -11    1    1    2    0    0 -0.66437917367E+01 -0.14121594131E+02 -0.16150446712E+02  0.22458769305E+02  0.51100000000E-03 0.  1.
         11    1    1    2    0    0  0.66437917367E+01  0.14121594131E+02  0.30010347007E+01  0.15892312575E+02  0.51100000000E-03 0. -1.
<mgrwt>
<rscale>  0 0.36026358E+02</rscale>
<asrwt>0</asrwt>
<pdfrwt beam="1">  1        4 0.19385900E-02 0.36026358E+02</pdfrwt>
<pdfrwt beam="2">  1       -4 0.39615764E-02 0.36026358E+02</pdfrwt>
<totfact> 0.33094169E+05</totfact>
</mgrwt>
</event>
<event>
 4    1  0.5401488E-001  0.4018757E+02  0.7818608E-02  0.1506836E+00
          4   -1    0    0  501    0  0.00000000000E+00  0.00000000000E+00  0.16282692960E+02  0.16344494181E+02  0.14200000000E+01 0.  1.
         -4   -1    0    0    0  501 -0.00000000000E+00 -0.00000000000E+00 -0.24667663565E+02  0.24708501083E+02  0.14200000000E+01 0. -1.
        -11    1    1    2    0    0 -0.17764065689E+02  0.52867085532E+00  0.53859290049E+01  0.18570130699E+02  0.51100000000E-03 0.  1.
         11    1    1    2    0    0  0.17764065689E+02 -0.52867085532E+00 -0.13770899610E+02  0.22482864564E+02  0.51100000000E-03 0. -1.
<mgrwt>
<rscale>  0 0.40187569E+02</rscale>
<asrwt>0</asrwt>
<pdfrwt beam="1">  1        4 0.25129250E-02 0.40187569E+02</pdfrwt>
<pdfrwt beam="2">  1       -4 0.38029204E-02 0.40187569E+02</pdfrwt>
<totfact> 0.25297500E+05</totfact>
</mgrwt>
</event>
<event>
 4    1  0.5401488E-001  0.2968675E+02  0.7818608E-02  0.1601577E+00
         -4   -1    0    0    0  501 -0.00000000000E+00  0.00000000000E+00  0.12879631818E+02  0.12957674011E+02  0.14200000000E+01 0.  1.
          4   -1    0    0  501    0  0.00000000000E+00 -0.00000000000E+00 -0.16947026138E+02  0.17006413347E+02  0.14200000000E+01 0. -1.
        -11    1    1    2    0    0  0.33274086610E+01  0.13600361752E+02 -0.70076372756E+01  0.15657217781E+02  0.51100000000E-03 0. -1.
         11    1    1    2    0    0 -0.33274086610E+01 -0.13600361752E+02  0.29402429562E+01  0.14306869577E+02  0.51100000000E-03 0.  1.
<mgrwt>
<rscale>  0 0.29686745E+02</rscale>
<asrwt>0</asrwt>
<pdfrwt beam="2">  1        4 0.26178063E-02 0.29686745E+02</pdfrwt>
<pdfrwt beam="1">  1       -4 0.19920533E-02 0.29686745E+02</pdfrwt>
<totfact> 0.53292332E+05</totfact>
</mgrwt>
</event>
<event>
 4    1  0.5401488E-001  0.2117969E+02  0.7818608E-02  0.1722838E+00
         -4   -1    0    0    0  501 -0.00000000000E+00  0.00000000000E+00  0.68793118631E+01  0.70243385247E+01  0.14200000000E+01 0. -1.
          4   -1    0    0  501    0  0.00000000000E+00 -0.00000000000E+00 -0.15954816803E+02  0.16017883106E+02  0.14200000000E+01 0.  1.
        -11    1    1    2    0    0 -0.10514862277E+02  0.82473148845E+00 -0.55711725293E+01  0.11928137924E+02  0.51100000000E-03 0.  1.
         11    1    1    2    0    0  0.10514862277E+02 -0.82473148845E+00 -0.35043324103E+01  0.11114083707E+02  0.51100000000E-03 0. -1.
<mgrwt>
<rscale>  0 0.21179688E+02</rscale>
<asrwt>0</asrwt>
<pdfrwt beam="2">  1        4 0.24705943E-02 0.21179688E+02</pdfrwt>
<pdfrwt beam="1">  1       -4 0.10743628E-02 0.21179688E+02</pdfrwt>
<totfact> 0.11404968E+06</totfact>
</mgrwt>
</event>
<event>
 4    1  0.5401488E-001  0.4495303E+02  0.7818608E-02  0.1474635E+00
         -4   -1    0    0    0  501 -0.00000000000E+00  0.00000000000E+00  0.11756265793E+03  0.11757123347E+03  0.14200000000E+01 0. -1.
          4   -1    0    0  501    0  0.00000000000E+00 -0.00000000000E+00 -0.41709457211E+01  0.44060399689E+01  0.14200000000E+01 0.  1.
        -11    1    1    2    0    0 -0.19161944849E+02  0.10983780891E+02  0.45386924699E+02  0.50475702144E+02  0.51100000000E-03 0.  1.
         11    1    1    2    0    0  0.19161944849E+02 -0.10983780891E+02  0.68004787507E+02  0.71501571292E+02  0.51100000000E-03 0. -1.
<mgrwt>
<rscale>  0 0.44953029E+02</rscale>
<asrwt>0</asrwt>
<pdfrwt beam="2">  1        4 0.66042794E-03 0.44953029E+02</pdfrwt>
<pdfrwt beam="1">  1       -4 0.18105302E-01 0.44953029E+02</pdfrwt>
<totfact> 0.15351203E+05</totfact>
</mgrwt>
</event>
<event>
 4    1  0.5401488E-001  0.3188024E+02  0.7818608E-02  0.1578189E+00
          4   -1    0    0  501    0  0.00000000000E+00  0.00000000000E+00  0.11595349463E+03  0.11596218917E+03  0.14200000000E+01 0.  1.
         -4   -1    0    0    0  501 -0.00000000000E+00 -0.00000000000E+00 -0.19515281198E+01  0.24134750884E+01  0.14200000000E+01 0. -1.
        -11    1    1    2    0    0 -0.44104841769E+01  0.14540553871E+02  0.39113336291E+02  0.41961090949E+02  0.51100000000E-03 0. -1.
         11    1    1    2    0    0  0.44104841769E+01 -0.14540553871E+02  0.74888630218E+02  0.76414573307E+02  0.51100000000E-03 0.  1.
<mgrwt>
<rscale>  0 0.31880237E+02</rscale>
<asrwt>0</asrwt>
<pdfrwt beam="1">  1        4 0.17875198E-01 0.31880237E+02</pdfrwt>
<pdfrwt beam="2">  1       -4 0.33643837E-03 0.31880237E+02</pdfrwt>
<totfact> 0.34522697E+05</totfact>
</mgrwt>
</event>
<event>
 4    1  0.5401488E-001  0.3020589E+02  0.7818608E-02  0.1595824E+00
         -4   -1    0    0    0  501 -0.00000000000E+00  0.00000000000E+00  0.57172245903E+02  0.57189877615E+02  0.14200000000E+01 0.  1.
          4   -1    0    0  501    0  0.00000000000E+00 -0.00000000000E+00 -0.38444815969E+01  0.40983458552E+01  0.14200000000E+01 0. -1.
        -11    1    1    2    0    0 -0.14650646972E+02 -0.12939444627E+01  0.19698941393E+02  0.24583816653E+02  0.51100000000E-03 0. -1.
         11    1    1    2    0    0  0.14650646972E+02  0.12939444627E+01  0.33628822913E+02  0.36704406816E+02  0.51100000000E-03 0.  1.
<mgrwt>
<rscale>  0 0.30205892E+02</rscale>
<asrwt>0</asrwt>
<pdfrwt beam="2">  1        4 0.61234308E-03 0.30205892E+02</pdfrwt>
<pdfrwt beam="1">  1       -4 0.88166134E-02 0.30205892E+02</pdfrwt>
<totfact> 0.45915135E+05</totfact>
</mgrwt>
</event>
<event>
 4    1  0.5401488E-001  0.3195585E+02  0.7818608E-02  0.1577424E+00
         -4   -1    0    0    0  501 -0.00000000000E+00  0.00000000000E+00  0.49313101833E+01  0.51316878435E+01  0.14200000000E+01 0.  1.
          4   -1    0    0  501    0  0.00000000000E+00 -0.00000000000E+00 -0.50528624066E+02  0.50548573174E+02  0.14200000000E+01 0. -1.
        -11    1    1    2    0    0 -0.10130242287E+02  0.47143720932E+01 -0.42699336666E+02  0.44137064527E+02  0.51100000000E-03 0. -1.
         11    1    1    2    0    0  0.10130242287E+02 -0.47143720932E+01 -0.28979772161E+01  0.11543196491E+02  0.51100000000E-03 0.  1.
<mgrwt>
<rscale>  0 0.31955851E+02</rscale>
<asrwt>0</asrwt>
<pdfrwt beam="2">  1        4 0.77905823E-02 0.31955851E+02</pdfrwt>
<pdfrwt beam="1">  1       -4 0.77561135E-03 0.31955851E+02</pdfrwt>
<totfact> 0.41160038E+05</totfact>
</mgrwt>
</event>
<event>
 4    1  0.5401488E-001  0.2919825E+02  0.7818608E-02  0.1607124E+00
         -4   -1    0    0    0  501 -0.00000000000E+00  0.00000000000E+00  0.77968728555E+01  0.79251262655E+01  0.14200000000E+01 0.  1.
          4   -1    0    0  501    0  0.00000000000E+00 -0.00000000000E+00 -0.26965813288E+02  0.27003175485E+02  0.14200000000E+01 0. -1.
        -11    1    1    2    0    0  0.63185382992E+01  0.10492970544E+02 -0.19087526208E+02  0.22679506478E+02  0.51100000000E-03 0. -1.
         11    1    1    2    0    0 -0.63185382992E+01 -0.10492970544E+02 -0.81414224138E-01  0.12248795272E+02  0.51100000000E-03 0.  1.
<mgrwt>
<rscale>  0 0.29198253E+02</rscale>
<asrwt>0</asrwt>
<pdfrwt beam="2">  1        4 0.41613263E-02 0.29198253E+02</pdfrwt>
<pdfrwt beam="1">  1       -4 0.12122586E-02 0.29198253E+02</pdfrwt>
<totfact> 0.54282940E+05</totfact>
</mgrwt>
</event>
<event>
 4    1  0.5401488E-001  0.2165733E+02  0.7818608E-02  0.1714247E+00
         -4   -1    0    0    0  501 -0.00000000000E+00  0.00000000000E+00  0.20125696407E+01  0.24630949147E+01  0.14200000000E+01 0. -1.
          4   -1    0    0  501    0  0.00000000000E+00 -0.00000000000E+00 -0.51937703086E+02  0.51957111177E+02  0.14200000000E+01 0.  1.
        -11    1    1    2    0    0  0.33196642943E+01 -0.10291666319E+02 -0.23538007280E+02  0.25903211261E+02  0.51100000000E-03 0. -1.
         11    1    1    2    0    0 -0.33196642943E+01  0.10291666319E+02 -0.26387126165E+02  0.28516994831E+02  0.51100000000E-03 0.  1.
<mgrwt>
<rscale>  0 0.21657329E+02</rscale>
<asrwt>0</asrwt>
<pdfrwt beam="2">  1        4 0.80265637E-02 0.21657329E+02</pdfrwt>
<pdfrwt beam="1">  1       -4 0.34577486E-03 0.21657329E+02</pdfrwt>
<totfact> 0.96345101E+05</totfact>
</mgrwt>
</event>
<event>
 4    1  0.5401488E-001  0.2804562E+02  0.7818608E-02  0.1620754E+00
          4   -1    0    0  501    0  0.00000000000E+00  0.00000000000E+00  0.24190470923E+02  0.24232112650E+02  0.14200000000E+01 0.  1.
         -4   -1    0    0    0  501 -0.00000000000E+00 -0.00000000000E+00 -0.80177125902E+01  0.81424882670E+01  0.14200000000E+01 0. -1.
        -11    1    1    2    0    0 -0.50999702425E+01  0.12900463791E+02  0.10454215892E+02  0.17370155229E+02  0.51100000000E-03 0.  1.
         11    1    1    2    0    0  0.50999702425E+01 -0.12900463791E+02  0.57185424405E+01  0.15004445688E+02  0.51100000000E-03 0. -1.
<mgrwt>
<rscale>  0 0.28045618E+02</rscale>
<asrwt>0</asrwt>
<pdfrwt beam="1">  1        4 0.37344122E-02 0.28045618E+02</pdfrwt>
<pdfrwt beam="2">  1       -4 0.12462956E-02 0.28045618E+02</pdfrwt>
<totfact> 0.59963540E+05</totfact>
</mgrwt>
</event>
<event>
 4    1  0.5401488E-001  0.3061813E+02  0.7818608E-02  0.1591355E+00
         -4   -1    0    0    0  501 -0.00000000000E+00  0.00000000000E+00  0.81716423040E+01  0.82941026003E+01  0.14200000000E+01 0.  1.
          4   -1    0    0  501    0  0.00000000000E+00 -0.00000000000E+00 -0.28326909539E+02  0.28362478807E+02  0.14200000000E+01 0. -1.
        -11    1    1    2    0    0  0.97333901663E+01  0.46575104155E+01 -0.23079236473E+02  0.25477096456E+02  0.51100000000E-03 0. -1.
         11    1    1    2    0    0 -0.97333901663E+01 -0.46575104155E+01  0.29239692376E+01  0.11179484951E+02  0.51100000000E-03 0.  1.
<mgrwt>
<rscale>  0 0.30618135E+02</rscale>
<asrwt>0</asrwt>
<pdfrwt beam="2">  1        4 0.43701422E-02 0.30618135E+02</pdfrwt>
<pdfrwt beam="1">  1       -4 0.12693319E-02 0.30618135E+02</pdfrwt>
<totfact> 0.48450626E+05</totfact>
</mgrwt>
</event>
<event>
 4    1  0.5401488E-001  0.3095277E+02  0.7818608E-02  0.1587790E+00
          4   -1    0    0  501    0  0.00000000000E+00  0.00000000000E+00  0.29131998841E+01  0.32408538327E+01  0.14200000000E+01 0. -1.
         -4   -1    0    0    0  501 -0.00000000000E+00 -0.00000000000E+00 -0.77506358567E+02  0.77519365441E+02  0.14200000000E+01 0.  1.
        -11    1    1    2    0    0  0.11236835759E+02 -0.10629245997E+02 -0.35938131906E+02  0.39125396784E+02  0.51100000000E-03 0.  1.
         11    1    1    2    0    0 -0.11236835759E+02  0.10629245997E+02 -0.38655026777E+02  0.41634822490E+02  0.51100000000E-03 0. -1.
<mgrwt>
<rscale>  0 0.30952766E+02</rscale>
<asrwt>0</asrwt>
<pdfrwt beam="1">  1        4 0.47438933E-03 0.30952766E+02</pdfrwt>
<pdfrwt beam="2">  1       -4 0.11950258E-01 0.30952766E+02</pdfrwt>
<totfact> 0.40932559E+05</totfact>
</mgrwt>
</event>
<event>
 4    1  0.5401488E-001  0.2468008E+02  0.7818608E-02  0.1665640E+00
         -4   -1    0    0    0  501 -0.00000000000E+00  0.00000000000E+00  0.41443400221E+01  0.43808622689E+01  0.14200000000E+01 0. -1.
          4   -1    0    0  501    0  0.00000000000E+00 -0.00000000000E+00 -0.35472746799E+02  0.35501157241E+02  0.14200000000E+01 0.  1.
        -11    1    1    2    0    0  0.22656236645E+01  0.11862773615E+02 -0.11570318672E+02  0.16725152402E+02  0.51100000000E-03 0. -1.
         11    1    1    2    0    0 -0.22656236645E+01 -0.11862773615E+02 -0.19758088105E+02  0.23156867108E+02  0.51100000000E-03 0.  1.
<mgrwt>
<rscale>  0 0.24680081E+02</rscale>
<asrwt>0</asrwt>
<pdfrwt beam="2">  1        4 0.54777249E-02 0.24680081E+02</pdfrwt>
<pdfrwt beam="1">  1       -4 0.65797023E-03 0.24680081E+02</pdfrwt>
<totfact> 0.77106058E+05</totfact>
</mgrwt>
</event>
<event>
 4    1  0.5401488E-001  0.3854507E+02  0.7818608E-02  0.1519200E+00
         -4   -1    0    0    0  501 -0.00000000000E+00  0.00000000000E+00  0.55096798290E+01  0.56897251092E+01  0.14200000000E+01 0.  1.
          4   -1    0    0  501    0  0.00000000000E+00 -0.00000000000E+00 -0.66142623844E+02  0.66157864907E+02  0.14200000000E+01 0. -1.
        -11    1    1    2    0    0  0.95147801032E+01 -0.61185933484E+01 -0.59400817042E+02  0.60468382569E+02  0.51100000000E-03 0. -1.
         11    1    1    2    0    0 -0.95147801032E+01  0.61185933484E+01 -0.12321269728E+01  0.11379207447E+02  0.51100000000E-03 0.  1.
<mgrwt>
<rscale>  0 0.38545068E+02</rscale>
<asrwt>0</asrwt>
<pdfrwt beam="2">  1        4 0.10190810E-01 0.38545068E+02</pdfrwt>
<pdfrwt beam="1">  1       -4 0.86266513E-03 0.38545068E+02</pdfrwt>
<totfact> 0.25346775E+05</totfact>
</mgrwt>
</event>
<event>
 4    1  0.5401488E-001  0.2868473E+02  0.7818608E-02  0.1613099E+00
          4   -1    0    0  501    0  0.00000000000E+00  0.00000000000E+00  0.47773930833E+02  0.47795029734E+02  0.14200000000E+01 0.  1.
         -4   -1    0    0    0  501 -0.00000000000E+00 -0.00000000000E+00 -0.41660121329E+01  0.44013699108E+01  0.14200000000E+01 0. -1.
        -11    1    1    2    0    0 -0.64530417100E+01  0.12683687573E+02  0.25051788108E+02  0.28811625526E+02  0.51100000000E-03 0.  1.
         11    1    1    2    0    0  0.64530417100E+01 -0.12683687573E+02  0.18556130592E+02  0.23384774119E+02  0.51100000000E-03 0. -1.
<mgrwt>
<rscale>  0 0.28684727E+02</rscale>
<asrwt>0</asrwt>
<pdfrwt beam="1">  1        4 0.73695630E-02 0.28684727E+02</pdfrwt>
<pdfrwt beam="2">  1       -4 0.66065237E-03 0.28684727E+02</pdfrwt>
<totfact> 0.53104309E+05</totfact>
</mgrwt>
</event>
<event>
 4    1  0.5401488E-001  0.2284231E+02  0.7818608E-02  0.1694079E+00
          4   -1    0    0  501    0  0.00000000000E+00  0.00000000000E+00  0.12981966939E+01  0.19239840581E+01  0.14200000000E+01 0.  1.
         -4   -1    0    0    0  501 -0.00000000000E+00 -0.00000000000E+00 -0.80332218832E+02  0.80344768234E+02  0.14200000000E+01 0. -1.
        -11    1    1    2    0    0  0.10252249260E+02 -0.45194111668E+01 -0.31537184491E+02  0.33468308862E+02  0.51100000000E-03 0.  1.
         11    1    1    2    0    0 -0.10252249260E+02  0.45194111668E+01 -0.47496837647E+02  0.48800443430E+02  0.51100000000E-03 0. -1.
<mgrwt>
<rscale>  0 0.22842306E+02</rscale>
<asrwt>0</asrwt>
<pdfrwt beam="1">  1        4 0.24882546E-03 0.22842306E+02</pdfrwt>
<pdfrwt beam="2">  1       -4 0.12407903E-01 0.22842306E+02</pdfrwt>
<totfact> 0.78761972E+05</totfact>
</mgrwt>
</event>
<event>
 4    1  0.5401488E-001  0.2688902E+02  0.7818608E-02  0.1635263E+00
         -4   -1    0    0    0  501 -0.00000000000E+00  0.00000000000E+00  0.20603648093E+02  0.20652523205E+02  0.14200000000E+01 0.  1.
          4   -1    0    0  501    0  0.00000000000E+00 -0.00000000000E+00 -0.86557621304E+01  0.87714661294E+01  0.14200000000E+01 0. -1.
        -11    1    1    2    0    0 -0.65906635589E+00 -0.11756191541E+02  0.13075140011E+02  0.17595502112E+02  0.51100000000E-03 0.  1.
         11    1    1    2    0    0  0.65906635589E+00  0.11756191541E+02 -0.11272540484E+01  0.11828487222E+02  0.51100000000E-03 0. -1.
<mgrwt>
<rscale>  0 0.26889016E+02</rscale>
<asrwt>0</asrwt>
<pdfrwt beam="2">  1        4 0.13443157E-02 0.26889016E+02</pdfrwt>
<pdfrwt beam="1">  1       -4 0.31824519E-02 0.26889016E+02</pdfrwt>
<totfact> 0.66586755E+05</totfact>
</mgrwt>
</event>
<event>
 4    1  0.5401488E-001  0.5495158E+02  0.7818608E-02  0.1420328E+00
          4   -1    0    0  501    0  0.00000000000E+00  0.00000000000E+00  0.87881180959E+01  0.89021019803E+01  0.14200000000E+01 0.  1.
         -4   -1    0    0    0  501 -0.00000000000E+00 -0.00000000000E+00 -0.85228798633E+02  0.85240627147E+02  0.14200000000E+01 0. -1.
        -11    1    1    2    0    0 -0.22554000247E+02  0.14118686975E+02 -0.26487935510E+02  0.37545052628E+02  0.51100000000E-03 0.  1.
         11    1    1    2    0    0  0.22554000247E+02 -0.14118686975E+02 -0.49952745028E+02  0.56597676499E+02  0.51100000000E-03 0. -1.
<mgrwt>
<rscale>  0 0.54951577E+02</rscale>
<asrwt>0</asrwt>
<pdfrwt beam="1">  1        4 0.13616961E-02 0.54951577E+02</pdfrwt>
<pdfrwt beam="2">  1       -4 0.13121800E-01 0.54951577E+02</pdfrwt>
<totfact> 0.10055535E+05</totfact>
</mgrwt>
</event>
<event>
 4    1  0.5401488E-001  0.2742414E+02  0.7818608E-02  0.1628441E+00
          4   -1    0    0  501    0  0.00000000000E+00  0.00000000000E+00  0.39536151046E+01  0.42008894767E+01  0.14200000000E+01 0.  1.
         -4   -1    0    0    0  501 -0.00000000000E+00 -0.00000000000E+00 -0.45855995919E+02  0.45877976870E+02  0.14200000000E+01 0. -1.
        -11    1    1    2    0    0 -0.11549252527E+02 -0.61381078072E+01 -0.28471307504E+02  0.31331724380E+02  0.51100000000E-03 0.  1.
         11    1    1    2    0    0  0.11549252527E+02  0.61381078072E+01 -0.13431073311E+02  0.18747141967E+02  0.51100000000E-03 0. -1.
<mgrwt>
<rscale>  0 0.27424138E+02</rscale>
<asrwt>0</asrwt>
<pdfrwt beam="1">  1        4 0.62896046E-03 0.27424138E+02</pdfrwt>
<pdfrwt beam="2">  1       -4 0.70754802E-02 0.27424138E+02</pdfrwt>
<totfact> 0.59076452E+05</totfact>
</mgrwt>
</event>
<event>
 4    1  0.5401488E-001  0.2243800E+02  0.7818608E-02  0.1700785E+00
         -4   -1    0    0    0  501 -0.00000000000E+00  0.00000000000E+00  0.25028911666E+02  0.25069160719E+02  0.14200000000E+01 0.  1.
          4   -1    0    0  501    0  0.00000000000E+00 -0.00000000000E+00 -0.48833175893E+01  0.50855865618E+01  0.14200000000E+01 0. -1.
        -11    1    1    2    0    0 -0.21091386827E+01  0.10880084196E+02  0.12416476134E+02  0.16643124043E+02  0.51100000000E-03 0. -1.
         11    1    1    2    0    0  0.21091386827E+01 -0.10880084196E+02  0.77291179428E+01  0.13511623238E+02  0.51100000000E-03 0.  1.
<mgrwt>
<rscale>  0 0.22438000E+02</rscale>
<asrwt>0</asrwt>
<pdfrwt beam="2">  1        4 0.76993486E-03 0.22438000E+02</pdfrwt>
<pdfrwt beam="1">  1       -4 0.38692570E-02 0.22438000E+02</pdfrwt>
<totfact> 0.98072766E+05</totfact>
</mgrwt>
</event>
<event>
 4    1  0.5401488E-001  0.6863515E+02  0.7818608E-02  0.1364797E+00
         -4   -1    0    0    0  501 -0.00000000000E+00  0.00000000000E+00  0.31522997095E+01  0.34573679958E+01  0.14200000000E+01 0.  1.
          4   -1    0    0  501    0  0.00000000000E+00 -0.00000000000E+00 -0.35604899193E+03  0.35605182355E+03  0.14200000000E+01 0. -1.
        -11    1    1    2    0    0  0.33041779105E+02  0.86707646567E+01 -0.19362581428E+03  0.19661611654E+03  0.51100000000E-03 0. -1.
         11    1    1    2    0    0 -0.33041779105E+02 -0.86707646567E+01 -0.15927087794E+03  0.16289307501E+03  0.51100000000E-03 0.  1.
<mgrwt>
<rscale>  0 0.68635147E+02</rscale>
<asrwt>0</asrwt>
<pdfrwt beam="2">  1        4 0.54800422E-01 0.68635147E+02</pdfrwt>
<pdfrwt beam="1">  1       -4 0.50865408E-03 0.68635147E+02</pdfrwt>
<totfact> 0.33749945E+04</totfact>
</mgrwt>
</event>
<event>
 4    1  0.5401488E-001  0.2696858E+02  0.7818608E-02  0.1634237E+00
         -4   -1    0    0    0  501 -0.00000000000E+00  0.00000000000E+00  0.10801959317E+01  0.17841589758E+01  0.14200000000E+01 0. -1.
          4   -1    0    0  501    0  0.00000000000E+00 -0.00000000000E+00 -0.12624886364E+03  0.12625684920E+03  0.14200000000E+01 0.  1.
        -11    1    1    2    0    0  0.66040260010E+01 -0.11527157310E+02 -0.51615426735E+02  0.53297662166E+02  0.51100000000E-03 0. -1.
         11    1    1    2    0    0 -0.66040260010E+01  0.11527157310E+02 -0.73553240970E+02  0.74743346008E+02  0.51100000000E-03 0.  1.
<mgrwt>
<rscale>  0 0.26968582E+02</rscale>
<asrwt>0</asrwt>
<pdfrwt beam="2">  1        4 0.19477659E-01 0.26968582E+02</pdfrwt>
<pdfrwt beam="1">  1       -4 0.22094937E-03 0.26968582E+02</pdfrwt>
<totfact> 0.48711850E+05</totfact>
</mgrwt>
</event>
<event>
 4    1  0.5401488E-001  0.2863281E+02  0.7818608E-02  0.1613712E+00
         -4   -1    0    0    0  501 -0.00000000000E+00  0.00000000000E+00  0.10822557333E+02  0.10915317093E+02  0.14200000000E+01 0. -1.
          4   -1    0    0  501    0  0.00000000000E+00 -0.00000000000E+00 -0.18737623565E+02  0.18791352715E+02  0.14200000000E+01 0.  1.
        -11    1    1    2    0    0  0.29729107638E+01  0.13916717960E+02 -0.23348244663E+01  0.14420979257E+02  0.51100000000E-03 0. -1.
         11    1    1    2    0    0 -0.29729107638E+01 -0.13916717960E+02 -0.55802417655E+01  0.15285690551E+02  0.51100000000E-03 0.  1.
<mgrwt>
<rscale>  0 0.28632813E+02</rscale>
<asrwt>0</asrwt>
<pdfrwt beam="2">  1        4 0.28939797E-02 0.28632813E+02</pdfrwt>
<pdfrwt beam="1">  1       -4 0.16762772E-02 0.28632813E+02</pdfrwt>
<totfact> 0.57853849E+05</totfact>
</mgrwt>
</event>
<event>
 4    1  0.5401488E-001  0.2112624E+02  0.7818608E-02  0.1723816E+00
          4   -1    0    0  501    0  0.00000000000E+00  0.00000000000E+00  0.31100991619E+02  0.31133391715E+02  0.14200000000E+01 0. -1.
         -4   -1    0    0    0  501 -0.00000000000E+00 -0.00000000000E+00 -0.34114431889E+01  0.36951785655E+01  0.14200000000E+01 0.  1.
        -11    1    1    2    0    0  0.96916342162E+01  0.27331121287E+01  0.19105277353E+02  0.21596511262E+02  0.51100000000E-03 0. -1.
         11    1    1    2    0    0 -0.96916342162E+01 -0.27331121287E+01  0.85842710773E+01  0.13232059019E+02  0.51100000000E-03 0.  1.
<mgrwt>
<rscale>  0 0.21126245E+02</rscale>
<asrwt>0</asrwt>
<pdfrwt beam="1">  1        4 0.48090861E-02 0.21126245E+02</pdfrwt>
<pdfrwt beam="2">  1       -4 0.54915552E-03 0.21126245E+02</pdfrwt>
<totfact> 0.10912579E+06</totfact>
</mgrwt>
</event>
<event>
 4    1  0.5401488E-001  0.7385338E+02  0.7818608E-02  0.1347459E+00
          4   -1    0    0  501    0  0.00000000000E+00  0.00000000000E+00  0.35617267264E+02  0.35645562520E+02  0.14200000000E+01 0. -1.
         -4   -1    0    0    0  501 -0.00000000000E+00 -0.00000000000E+00 -0.38227565806E+02  0.38253930353E+02  0.14200000000E+01 0.  1.
        -11    1    1    2    0    0  0.11937532434E+02 -0.97277382016E+01  0.32278387735E+02  0.35763499356E+02  0.51100000000E-03 0. -1.
         11    1    1    2    0    0 -0.11937532434E+02  0.97277382016E+01 -0.34888686278E+02  0.38135993518E+02  0.51100000000E-03 0.  1.
<mgrwt>
<rscale>  0 0.73853378E+02</rscale>
<asrwt>0</asrwt>
<pdfrwt beam="1">  1        4 0.54837842E-02 0.73853378E+02</pdfrwt>
<pdfrwt beam="2">  1       -4 0.58853686E-02 0.73853378E+02</pdfrwt>
<totfact> 0.49571803E+04</totfact>
</mgrwt>
</event>
<event>
 4    1  0.5401488E-001  0.2628700E+02  0.7818608E-02  0.1643176E+00
          4   -1    0    0  501    0  0.00000000000E+00  0.00000000000E+00  0.10887375845E+02  0.10979588006E+02  0.14200000000E+01 0.  1.
         -4   -1    0    0    0  501 -0.00000000000E+00 -0.00000000000E+00 -0.15675795874E+02  0.15739980187E+02  0.14200000000E+01 0. -1.
        -11    1    1    2    0    0  0.60473222640E+01 -0.86833525042E+01 -0.10318710143E+02  0.14779935607E+02  0.51100000000E-03 0. -1.
         11    1    1    2    0    0 -0.60473222640E+01  0.86833525042E+01  0.55302901137E+01  0.11939632586E+02  0.51100000000E-03 0.  1.
<mgrwt>
<rscale>  0 0.26287000E+02</rscale>
<asrwt>0</asrwt>
<pdfrwt beam="1">  1        4 0.16870114E-02 0.26287000E+02</pdfrwt>
<pdfrwt beam="2">  1       -4 0.24236914E-02 0.26287000E+02</pdfrwt>
<totfact> 0.70753762E+05</totfact>
</mgrwt>
</event>
<event>
 4    1  0.5401488E-001  0.2217515E+02  0.7818608E-02  0.1705240E+00
          4   -1    0    0  501    0  0.00000000000E+00  0.00000000000E+00  0.15735044933E+01  0.21195085257E+01  0.14200000000E+01 0. -1.
         -4   -1    0    0    0  501 -0.00000000000E+00 -0.00000000000E+00 -0.66021917323E+02  0.66037186244E+02  0.14200000000E+01 0.  1.
        -11    1    1    2    0    0  0.82290849531E+01  0.64467958318E+01 -0.43581950955E+02  0.44818137679E+02  0.51100000000E-03 0. -1.
         11    1    1    2    0    0 -0.82290849531E+01 -0.64467958318E+01 -0.20866461874E+02  0.23338557091E+02  0.51100000000E-03 0.  1.
<mgrwt>
<rscale>  0 0.22175147E+02</rscale>
<asrwt>0</asrwt>
<pdfrwt beam="1">  1        4 0.28525251E-03 0.22175147E+02</pdfrwt>
<pdfrwt beam="2">  1       -4 0.10200391E-01 0.22175147E+02</pdfrwt>
<totfact> 0.87580004E+05</totfact>
</mgrwt>
</event>
<event>
 4    1  0.5401488E-001  0.3933338E+02  0.7818608E-02  0.1513175E+00
         -4   -1    0    0    0  501 -0.00000000000E+00  0.00000000000E+00  0.11601434945E+03  0.11602303943E+03  0.14200000000E+01 0. -1.
          4   -1    0    0  501    0  0.00000000000E+00 -0.00000000000E+00 -0.31734601982E+01  0.34766722063E+01  0.14200000000E+01 0.  1.
        -11    1    1    2    0    0  0.28440876519E+01 -0.15447017860E+02  0.20462663574E+02  0.25795732131E+02  0.51100000000E-03 0.  1.
         11    1    1    2    0    0 -0.28440876519E+01  0.15447017860E+02  0.92378225679E+02  0.93703979506E+02  0.51100000000E-03 0. -1.
<mgrwt>
<rscale>  0 0.39333380E+02</rscale>
<asrwt>0</asrwt>
<pdfrwt beam="2">  1        4 0.51221721E-03 0.39333380E+02</pdfrwt>
<pdfrwt beam="1">  1       -4 0.17872350E-01 0.39333380E+02</pdfrwt>
<totfact> 0.21225555E+05</totfact>
</mgrwt>
</event>
<event>
 4    1  0.5401488E-001  0.4412481E+02  0.7818608E-02  0.1479880E+00
         -4   -1    0    0    0  501 -0.00000000000E+00  0.00000000000E+00  0.80829179553E+02  0.80841651809E+02  0.14200000000E+01 0. -1.
          4   -1    0    0  501    0  0.00000000000E+00 -0.00000000000E+00 -0.59251220570E+01  0.60929033630E+01  0.14200000000E+01 0.  1.
        -11    1    1    2    0    0  0.80413380185E+01  0.10721406564E+02  0.71980424738E+02  0.73217437960E+02  0.51100000000E-03 0. -1.
         11    1    1    2    0    0 -0.80413380185E+01 -0.10721406564E+02  0.29236327584E+01  0.13717117212E+02  0.51100000000E-03 0.  1.
<mgrwt>
<rscale>  0 0.44124812E+02</rscale>
<asrwt>0</asrwt>
<pdfrwt beam="2">  1        4 0.92542293E-03 0.44124812E+02</pdfrwt>
<pdfrwt beam="1">  1       -4 0.12449124E-01 0.44124812E+02</pdfrwt>
<totfact> 0.17588474E+05</totfact>
</mgrwt>
</event>
<event>
 4    1  0.5401488E-001  0.4243000E+02  0.7818608E-02  0.1491054E+00
          4   -1    0    0  501    0  0.00000000000E+00  0.00000000000E+00  0.20497281169E+02  0.20546409304E+02  0.14200000000E+01 0.  1.
         -4   -1    0    0    0  501 -0.00000000000E+00 -0.00000000000E+00 -0.21859376459E+02  0.21905449988E+02  0.14200000000E+01 0. -1.
        -11    1    1    2    0    0  0.43789416393E+00  0.21210353624E+02 -0.60744999342E+00  0.21223568218E+02  0.51100000000E-03 0. -1.
         11    1    1    2    0    0 -0.43789416393E+00 -0.21210353624E+02 -0.75464529740E+00  0.21228291074E+02  0.51100000000E-03 0.  1.
<mgrwt>
<rscale>  0 0.42430002E+02</rscale>
<asrwt>0</asrwt>
<pdfrwt beam="1">  1        4 0.31607511E-02 0.42430002E+02</pdfrwt>
<pdfrwt beam="2">  1       -4 0.33703042E-02 0.42430002E+02</pdfrwt>
<totfact> 0.22098933E+05</totfact>
</mgrwt>
</event>
<event>
 4    1  0.5401488E-001  0.2169749E+02  0.7818608E-02  0.1713537E+00
          4   -1    0    0  501    0  0.00000000000E+00  0.00000000000E+00  0.11191075538E+01  0.18079827756E+01  0.14200000000E+01 0.  1.
         -4   -1    0    0    0  501 -0.00000000000E+00 -0.00000000000E+00 -0.79721270344E+02  0.79733915903E+02  0.14200000000E+01 0. -1.
        -11    1    1    2    0    0  0.65432678333E+01  0.81957781086E+01 -0.28865817140E+02  0.30711895614E+02  0.51100000000E-03 0.  1.
         11    1    1    2    0    0 -0.65432678333E+01 -0.81957781086E+01 -0.49736345650E+02  0.50830003065E+02  0.51100000000E-03 0. -1.
<mgrwt>
<rscale>  0 0.21697494E+02</rscale>
<asrwt>0</asrwt>
<pdfrwt beam="1">  1        4 0.22613359E-03 0.21697494E+02</pdfrwt>
<pdfrwt beam="2">  1       -4 0.12318770E-01 0.21697494E+02</pdfrwt>
<totfact> 0.87803177E+05</totfact>
</mgrwt>
</event>
<event>
 4    1  0.5401488E-001  0.2040265E+02  0.7818608E-02  0.1737437E+00
          4   -1    0    0  501    0  0.00000000000E+00  0.00000000000E+00  0.24242860113E+01  0.28095484806E+01  0.14200000000E+01 0.  1.
         -4   -1    0    0    0  501 -0.00000000000E+00 -0.00000000000E+00 -0.39368015636E+02  0.39393616933E+02  0.14200000000E+01 0. -1.
        -11    1    1    2    0    0 -0.10106064005E+02 -0.13576329317E+01 -0.17846824378E+02  0.20554435957E+02  0.51100000000E-03 0. -1.
         11    1    1    2    0    0  0.10106064005E+02  0.13576329317E+01 -0.19096905246E+02  0.21648729457E+02  0.51100000000E-03 0.  1.
<mgrwt>
<rscale>  0 0.20402647E+02</rscale>
<asrwt>0</asrwt>
<pdfrwt beam="1">  1        4 0.40457201E-03 0.20402647E+02</pdfrwt>
<pdfrwt beam="2">  1       -4 0.60882223E-02 0.20402647E+02</pdfrwt>
<totfact> 0.11390420E+06</totfact>
</mgrwt>
</event>
<event>
 4    1  0.5401488E-001  0.6532979E+02  0.7818608E-02  0.1376735E+00
          4   -1    0    0  501    0  0.00000000000E+00  0.00000000000E+00  0.52939799939E+02  0.52958840788E+02  0.14200000000E+01 0.  1.
         -4   -1    0    0    0  501 -0.00000000000E+00 -0.00000000000E+00 -0.20107170874E+02  0.20157249826E+02  0.14200000000E+01 0. -1.
        -11    1    1    2    0    0 -0.22322073445E+02 -0.17948717012E+02 -0.11575166382E+01  0.28666552815E+02  0.51100000000E-03 0. -1.
         11    1    1    2    0    0  0.22322073445E+02  0.17948717012E+02  0.33990145704E+02  0.44449537799E+02  0.51100000000E-03 0.  1.
<mgrwt>
<rscale>  0 0.65329788E+02</rscale>
<asrwt>0</asrwt>
<pdfrwt beam="1">  1        4 0.81499014E-02 0.65329788E+02</pdfrwt>
<pdfrwt beam="2">  1       -4 0.30987278E-02 0.65329788E+02</pdfrwt>
<totfact> 0.68430175E+04</totfact>
</mgrwt>
</event>
<event>
 4    1  0.5401488E-001  0.3325124E+02  0.7818608E-02  0.1564702E+00
         -4   -1    0    0    0  501 -0.00000000000E+00  0.00000000000E+00  0.13660787383E+02  0.13734391575E+02  0.14200000000E+01 0.  1.
          4   -1    0    0  501    0  0.00000000000E+00 -0.00000000000E+00 -0.20080815481E+02  0.20130959997E+02  0.14200000000E+01 0. -1.
        -11    1    1    2    0    0 -0.14902282041E+02 -0.44583889306E+01 -0.91883538403E+01  0.18066020271E+02  0.51100000000E-03 0. -1.
         11    1    1    2    0    0  0.14902282041E+02  0.44583889306E+01  0.27683257423E+01  0.15799331301E+02  0.51100000000E-03 0.  1.
<mgrwt>
<rscale>  0 0.33251245E+02</rscale>
<asrwt>0</asrwt>
<pdfrwt beam="2">  1        4 0.30988754E-02 0.33251245E+02</pdfrwt>
<pdfrwt beam="1">  1       -4 0.21111787E-02 0.33251245E+02</pdfrwt>
<totfact> 0.40524152E+05</totfact>
</mgrwt>
</event>
<event>
 4    1  0.5401488E-001  0.4919635E+02  0.7818608E-02  0.1449725E+00
         -4   -1    0    0    0  501 -0.00000000000E+00  0.00000000000E+00  0.17878702285E+03  0.17879266187E+03  0.14200000000E+01 0. -1.
          4   -1    0    0  501    0  0.00000000000E+00 -0.00000000000E+00 -0.32294092424E+01  0.35278157626E+01  0.14200000000E+01 0.  1.
        -11    1    1    2    0    0 -0.13691011283E+02  0.19901050261E+02  0.70565107958E+02  0.74585052476E+02  0.51100000000E-03 0.  1.
         11    1    1    2    0    0  0.13691011283E+02 -0.19901050261E+02  0.10499250565E+03  0.10773542516E+03  0.51100000000E-03 0. -1.
<mgrwt>
<rscale>  0 0.49196350E+02</rscale>
<asrwt>0</asrwt>
<pdfrwt beam="2">  1        4 0.52022030E-03 0.49196350E+02</pdfrwt>
<pdfrwt beam="1">  1       -4 0.27529084E-01 0.49196350E+02</pdfrwt>
<totfact> 0.10741467E+05</totfact>
</mgrwt>
</event>
<event>
 4    1  0.5401488E-001  0.3202962E+02  0.7818608E-02  0.1576680E+00
         -4   -1    0    0    0  501 -0.00000000000E+00  0.00000000000E+00  0.52704897773E+02  0.52724023455E+02  0.14200000000E+01 0.  1.
          4   -1    0    0  501    0  0.00000000000E+00 -0.00000000000E+00 -0.47421839448E+01  0.49502230825E+01  0.14200000000E+01 0. -1.
        -11    1    1    2    0    0  0.10523354263E+02 -0.38494447856E+01  0.44584087288E+02  0.45970643346E+02  0.51100000000E-03 0.  1.
         11    1    1    2    0    0 -0.10523354263E+02  0.38494447856E+01  0.33786265404E+01  0.11703603191E+02  0.51100000000E-03 0. -1.
<mgrwt>
<rscale>  0 0.32029624E+02</rscale>
<asrwt>0</asrwt>
<pdfrwt beam="2">  1        4 0.74704101E-03 0.32029624E+02</pdfrwt>
<pdfrwt beam="1">  1       -4 0.81259197E-02 0.32029624E+02</pdfrwt>
<totfact> 0.40679612E+05</totfact>
</mgrwt>
</event>
<event>
 4    1  0.5401488E-001  0.3093855E+02  0.7818608E-02  0.1587940E+00
          4   -1    0    0  501    0  0.00000000000E+00  0.00000000000E+00  0.10752558166E+02  0.10845916610E+02  0.14200000000E+01 0.  1.
         -4   -1    0    0    0  501 -0.00000000000E+00 -0.00000000000E+00 -0.22042526668E+02  0.22088218169E+02  0.14200000000E+01 0. -1.
        -11    1    1    2    0    0  0.73625270103E+01 -0.74392558517E+01  0.64804844803E+01  0.12310402551E+02  0.51100000000E-03 0.  1.
         11    1    1    2    0    0 -0.73625270103E+01  0.74392558517E+01 -0.17770452982E+02  0.20623732229E+02  0.51100000000E-03 0. -1.
<mgrwt>
<rscale>  0 0.30938549E+02</rscale>
<asrwt>0</asrwt>
<pdfrwt beam="1">  1        4 0.16649359E-02 0.30938549E+02</pdfrwt>
<pdfrwt beam="2">  1       -4 0.34018541E-02 0.30938549E+02</pdfrwt>
<totfact> 0.47975049E+05</totfact>
</mgrwt>
</event>
<event>
 4    1  0.5401488E-001  0.2746846E+02  0.7818608E-02  0.1627885E+00
         -4   -1    0    0    0  501 -0.00000000000E+00  0.00000000000E+00  0.87321323769E+01  0.88468376185E+01  0.14200000000E+01 0. -1.
          4   -1    0    0  501    0  0.00000000000E+00 -0.00000000000E+00 -0.21322295910E+02  0.21369527437E+02  0.14200000000E+01 0.  1.
        -11    1    1    2    0    0 -0.39644844718E+01  0.13105942304E+02 -0.74728236797E+01  0.15598908770E+02  0.51100000000E-03 0.  1.
         11    1    1    2    0    0  0.39644844718E+01 -0.13105942304E+02 -0.51173398534E+01  0.14617456285E+02  0.51100000000E-03 0. -1.
<mgrwt>
<rscale>  0 0.27468464E+02</rscale>
<asrwt>0</asrwt>
<pdfrwt beam="2">  1        4 0.32928099E-02 0.27468464E+02</pdfrwt>
<pdfrwt beam="1">  1       -4 0.13558617E-02 0.27468464E+02</pdfrwt>
<totfact> 0.63323631E+05</totfact>
</mgrwt>
</event>
<event>
 4    1  0.5401488E-001  0.4324941E+02  0.7818608E-02  0.1485576E+00
         -4   -1    0    0    0  501 -0.00000000000E+00  0.00000000000E+00  0.18265800076E+03  0.18266352028E+03  0.14200000000E+01 0.  1.
          4   -1    0    0  501    0  0.00000000000E+00 -0.00000000000E+00 -0.23572342002E+01  0.27518999027E+01  0.14200000000E+01 0. -1.
        -11    1    1    2    0    0 -0.19927541039E+02  0.46308769488E+01  0.12018348493E+03  0.12191235361E+03  0.51100000000E-03 0.  1.
         11    1    1    2    0    0  0.19927541039E+02 -0.46308769488E+01  0.60117281629E+02  0.63503066571E+02  0.51100000000E-03 0. -1.
<mgrwt>
<rscale>  0 0.43249412E+02</rscale>
<asrwt>0</asrwt>
<pdfrwt beam="2">  1        4 0.39343485E-03 0.43249412E+02</pdfrwt>
<pdfrwt beam="1">  1       -4 0.28132018E-01 0.43249412E+02</pdfrwt>
<totfact> 0.14550066E+05</totfact>
</mgrwt>
</event>
<event>
 4    1  0.5401488E-001  0.2625178E+02  0.7818608E-02  0.1643647E+00
          4   -1    0    0  501    0  0.00000000000E+00  0.00000000000E+00  0.23047891936E+02  0.23091594200E+02  0.14200000000E+01 0.  1.
         -4   -1    0    0    0  501 -0.00000000000E+00 -0.00000000000E+00 -0.73565138202E+01  0.74923090958E+01  0.14200000000E+01 0. -1.
        -11    1    1    2    0    0 -0.12172085176E+02 -0.29475893589E+01  0.32677287359E+01  0.12943183222E+02  0.51100000000E-03 0. -1.
         11    1    1    2    0    0  0.12172085176E+02  0.29475893589E+01  0.12423649380E+02  0.17640720074E+02  0.51100000000E-03 0.  1.
<mgrwt>
<rscale>  0 0.26251777E+02</rscale>
<asrwt>0</asrwt>
<pdfrwt beam="1">  1        4 0.35596370E-02 0.26251777E+02</pdfrwt>
<pdfrwt beam="2">  1       -4 0.11455789E-02 0.26251777E+02</pdfrwt>
<totfact> 0.69871419E+05</totfact>
</mgrwt>
</event>
<event>
 4    1  0.5401488E-001  0.2469633E+02  0.7818608E-02  0.1665402E+00
         -4   -1    0    0    0  501 -0.00000000000E+00  0.00000000000E+00  0.52122396485E+02  0.52141735830E+02  0.14200000000E+01 0.  1.
          4   -1    0    0  501    0  0.00000000000E+00 -0.00000000000E+00 -0.27319520615E+01  0.30789547035E+01  0.14200000000E+01 0. -1.
        -11    1    1    2    0    0  0.66104954307E+01 -0.97106304622E+01  0.16186070310E+02  0.19999596650E+02  0.51100000000E-03 0.  1.
         11    1    1    2    0    0 -0.66104954307E+01  0.97106304622E+01  0.33204374113E+02  0.35221093883E+02  0.51100000000E-03 0. -1.
<mgrwt>
<rscale>  0 0.24696329E+02</rscale>
<asrwt>0</asrwt>
<pdfrwt beam="2">  1        4 0.44848043E-03 0.24696329E+02</pdfrwt>
<pdfrwt beam="1">  1       -4 0.80470111E-02 0.24696329E+02</pdfrwt>
<totfact> 0.72887517E+05</totfact>
</mgrwt>
</event>
<event>
 4    1  0.5401488E-001  0.3121062E+02  0.7818608E-02  0.1585080E+00
          4   -1    0    0  501    0  0.00000000000E+00  0.00000000000E+00  0.76869711059E+01  0.78170278740E+01  0.14200000000E+01 0.  1.
         -4   -1    0    0    0  501 -0.00000000000E+00 -0.00000000000E+00 -0.31268261140E+02  0.31300488091E+02  0.14200000000E+01 0. -1.
        -11    1    1    2    0    0  0.12688123863E+01 -0.11554582822E+02  0.12589911294E+01  0.11692019842E+02  0.51100000000E-03 0.  1.
         11    1    1    2    0    0 -0.12688123863E+01  0.11554582822E+02 -0.24840281164E+02  0.27425496123E+02  0.51100000000E-03 0. -1.
<mgrwt>
<rscale>  0 0.31210620E+02</rscale>
<asrwt>0</asrwt>
<pdfrwt beam="1">  1        4 0.11950943E-02 0.31210620E+02</pdfrwt>
<pdfrwt beam="2">  1       -4 0.48229850E-02 0.31210620E+02</pdfrwt>
<totfact> 0.45970266E+05</totfact>
</mgrwt>
</event>
<event>
 4    1  0.5401488E-001  0.2403666E+02  0.7818608E-02  0.1675237E+00
         -4   -1    0    0    0  501 -0.00000000000E+00  0.00000000000E+00  0.70490370351E+02  0.70504671563E+02  0.14200000000E+01 0. -1.
          4   -1    0    0  501    0  0.00000000000E+00 -0.00000000000E+00 -0.17867726051E+01  0.22823138133E+01  0.14200000000E+01 0.  1.
        -11    1    1    2    0    0  0.97707920513E+01 -0.50159399815E+01  0.19575034278E+02  0.22445712251E+02  0.51100000000E-03 0.  1.
         11    1    1    2    0    0 -0.97707920513E+01  0.50159399815E+01  0.49128563468E+02  0.50341273126E+02  0.51100000000E-03 0. -1.
<mgrwt>
<rscale>  0 0.24036657E+02</rscale>
<asrwt>0</asrwt>
<pdfrwt beam="2">  1        4 0.31410674E-03 0.24036657E+02</pdfrwt>
<pdfrwt beam="1">  1       -4 0.10883891E-01 0.24036657E+02</pdfrwt>
<totfact> 0.72885402E+05</totfact>
</mgrwt>
</event>
<event>
 4    1  0.5401488E-001  0.3230141E+02  0.7818608E-02  0.1573959E+00
          4   -1    0    0  501    0  0.00000000000E+00  0.00000000000E+00  0.79893969860E+02  0.79906588089E+02  0.14200000000E+01 0. -1.
         -4   -1    0    0    0  501 -0.00000000000E+00 -0.00000000000E+00 -0.30969933230E+01  0.34070174116E+01  0.14200000000E+01 0.  1.
        -11    1    1    2    0    0 -0.26394781091E+01 -0.15501581189E+02  0.47903124515E+02  0.50418004746E+02  0.51100000000E-03 0. -1.
         11    1    1    2    0    0  0.26394781091E+01  0.15501581189E+02  0.28893852022E+02  0.32895600754E+02  0.51100000000E-03 0.  1.
<mgrwt>
<rscale>  0 0.32301413E+02</rscale>
<asrwt>0</asrwt>
<pdfrwt beam="1">  1        4 0.12316198E-01 0.32301413E+02</pdfrwt>
<pdfrwt beam="2">  1       -4 0.50127919E-03 0.32301413E+02</pdfrwt>
<totfact> 0.36893629E+05</totfact>
</mgrwt>
</event>
<event>
 4    1  0.5401488E-001  0.2813871E+02  0.7818608E-02  0.1619624E+00
         -4   -1    0    0    0  501 -0.00000000000E+00  0.00000000000E+00  0.74444963995E+01  0.75787153689E+01  0.14200000000E+01 0. -1.
          4   -1    0    0  501    0  0.00000000000E+00 -0.00000000000E+00 -0.26198494635E+02  0.26236949539E+02  0.14200000000E+01 0.  1.
        -11    1    1    2    0    0 -0.53626576608E+00  0.12203893194E+02 -0.17765526202E+02  0.21560067522E+02  0.51100000000E-03 0.  1.
         11    1    1    2    0    0  0.53626576608E+00 -0.12203893194E+02 -0.98847203356E+00  0.12255597386E+02  0.51100000000E-03 0. -1.
<mgrwt>
<rscale>  0 0.28138705E+02</rscale>
<asrwt>0</asrwt>
<pdfrwt beam="2">  1        4 0.40438202E-02 0.28138705E+02</pdfrwt>
<pdfrwt beam="1">  1       -4 0.11585898E-02 0.28138705E+02</pdfrwt>
<totfact> 0.59196479E+05</totfact>
</mgrwt>
</event>
<event>
 4    1  0.5401488E-001  0.7231686E+02  0.7818608E-02  0.1352387E+00
          4   -1    0    0  501    0  0.00000000000E+00  0.00000000000E+00  0.31820796997E+02  0.31852464921E+02  0.14200000000E+01 0.  1.
         -4   -1    0    0    0  501 -0.00000000000E+00 -0.00000000000E+00 -0.41022951539E+02  0.41047520667E+02  0.14200000000E+01 0. -1.
        -11    1    1    2    0    0 -0.22481864644E+02 -0.33441535477E+01 -0.32949257326E+02  0.40028379425E+02  0.51100000000E-03 0. -1.
         11    1    1    2    0    0  0.22481864644E+02  0.33441535477E+01  0.23747102785E+02  0.32871606163E+02  0.51100000000E-03 0.  1.
<mgrwt>
<rscale>  0 0.72316860E+02</rscale>
<asrwt>0</asrwt>
<pdfrwt beam="1">  1        4 0.48998332E-02 0.72316860E+02</pdfrwt>
<pdfrwt beam="2">  1       -4 0.63155492E-02 0.72316860E+02</pdfrwt>
<totfact> 0.52527342E+04</totfact>
</mgrwt>
</event>
<event>
 4    1  0.5401488E-001  0.2912567E+02  0.7818608E-02  0.1607959E+00
         -4   -1    0    0    0  501 -0.00000000000E+00  0.00000000000E+00  0.23002131917E+02  0.23045920956E+02  0.14200000000E+01 0. -1.
          4   -1    0    0  501    0  0.00000000000E+00 -0.00000000000E+00 -0.91122492568E+01  0.92222278501E+01  0.14200000000E+01 0.  1.
        -11    1    1    2    0    0 -0.11076121623E+02 -0.37919775524E+01 -0.26507613085E+01  0.12003586953E+02  0.51100000000E-03 0.  1.
         11    1    1    2    0    0  0.11076121623E+02  0.37919775524E+01  0.16540643969E+02  0.20264561854E+02  0.51100000000E-03 0. -1.
<mgrwt>
<rscale>  0 0.29125669E+02</rscale>
<asrwt>0</asrwt>
<pdfrwt beam="2">  1        4 0.14137128E-02 0.29125669E+02</pdfrwt>
<pdfrwt beam="1">  1       -4 0.35506177E-02 0.29125669E+02</pdfrwt>
<totfact> 0.55138421E+05</totfact>
</mgrwt>
</event>
<event>
 4    1  0.5401488E-001  0.2269164E+02  0.7818608E-02  0.1696558E+00
          4   -1    0    0  501    0  0.00000000000E+00  0.00000000000E+00  0.50269652498E+02  0.50289704337E+02  0.14200000000E+01 0.  1.
         -4   -1    0    0    0  501 -0.00000000000E+00 -0.00000000000E+00 -0.23416869126E+01  0.27385940913E+01  0.14200000000E+01 0. -1.
        -11    1    1    2    0    0 -0.72480233651E+01 -0.77252991337E+01  0.33460448148E+02  0.35097231799E+02  0.51100000000E-03 0. -1.
         11    1    1    2    0    0  0.72480233651E+01  0.77252991337E+01  0.14467517438E+02  0.17931066630E+02  0.51100000000E-03 0.  1.
<mgrwt>
<rscale>  0 0.22691641E+02</rscale>
<asrwt>0</asrwt>
<pdfrwt beam="1">  1        4 0.77658662E-02 0.22691641E+02</pdfrwt>
<pdfrwt beam="2">  1       -4 0.39233331E-03 0.22691641E+02</pdfrwt>
<totfact> 0.87857007E+05</totfact>
</mgrwt>
</event>
<event>
 4    1  0.5401488E-001  0.2180170E+02  0.7818608E-02  0.1711704E+00
         -4   -1    0    0    0  501 -0.00000000000E+00  0.00000000000E+00  0.41501580193E+02  0.41525866138E+02  0.14200000000E+01 0. -1.
          4   -1    0    0  501    0  0.00000000000E+00 -0.00000000000E+00 -0.26604329596E+01  0.30156762977E+01  0.14200000000E+01 0.  1.
        -11    1    1    2    0    0  0.15859125009E+00 -0.10893799714E+02  0.18688075648E+02  0.21632017822E+02  0.51100000000E-03 0.  1.
         11    1    1    2    0    0 -0.15859125009E+00  0.10893799714E+02  0.20153071586E+02  0.22909524613E+02  0.51100000000E-03 0. -1.
<mgrwt>
<rscale>  0 0.21801704E+02</rscale>
<asrwt>0</asrwt>
<pdfrwt beam="2">  1        4 0.43849200E-03 0.21801704E+02</pdfrwt>
<pdfrwt beam="1">  1       -4 0.64140521E-02 0.21801704E+02</pdfrwt>
<totfact> 0.98478262E+05</totfact>
</mgrwt>
</event>
<event>
 4    1  0.5401488E-001  0.4783842E+02  0.7818608E-02  0.1457362E+00
          4   -1    0    0  501    0  0.00000000000E+00  0.00000000000E+00  0.12185234441E+03  0.12186061808E+03  0.14200000000E+01 0.  1.
         -4   -1    0    0    0  501 -0.00000000000E+00 -0.00000000000E+00 -0.45792685365E+01  0.47943821634E+01  0.14200000000E+01 0. -1.
        -11    1    1    2    0    0  0.50987024685E+01 -0.22835058723E+02  0.45480541155E+02  0.51146029149E+02  0.51100000000E-03 0.  1.
         11    1    1    2    0    0 -0.50987024685E+01  0.22835058723E+02  0.71792534717E+02  0.75508971090E+02  0.51100000000E-03 0. -1.
<mgrwt>
<rscale>  0 0.47838423E+02</rscale>
<asrwt>0</asrwt>
<pdfrwt beam="1">  1        4 0.18763697E-01 0.47838423E+02</pdfrwt>
<pdfrwt beam="2">  1       -4 0.72168654E-03 0.47838423E+02</pdfrwt>
<totfact> 0.13052261E+05</totfact>
</mgrwt>
</event>
<event>
 4    1  0.5401488E-001  0.2255987E+02  0.7818608E-02  0.1698745E+00
         -4   -1    0    0    0  501 -0.00000000000E+00  0.00000000000E+00  0.15533834774E+01  0.21046140330E+01  0.14200000000E+01 0.  1.
          4   -1    0    0  501    0  0.00000000000E+00 -0.00000000000E+00 -0.69006821921E+02  0.69021430525E+02  0.14200000000E+01 0. -1.
        -11    1    1    2    0    0 -0.93872696716E+01 -0.48234277673E+01 -0.21174632975E+02  0.23659065265E+02  0.51100000000E-03 0.  1.
         11    1    1    2    0    0  0.93872696716E+01  0.48234277673E+01 -0.46278805469E+02  0.47466979293E+02  0.51100000000E-03 0. -1.
<mgrwt>
<rscale>  0 0.22559873E+02</rscale>
<asrwt>0</asrwt>
<pdfrwt beam="2">  1        4 0.10659958E-01 0.22559873E+02</pdfrwt>
<pdfrwt beam="1">  1       -4 0.28250822E-03 0.22559873E+02</pdfrwt>
<totfact> 0.83696987E+05</totfact>
</mgrwt>
</event>
<event>
 4    1  0.5401488E-001  0.7910648E+02  0.7818608E-02  0.1331606E+00
          4   -1    0    0  501    0  0.00000000000E+00  0.00000000000E+00  0.97574076339E+02  0.97584408454E+02  0.14200000000E+01 0. -1.
         -4   -1    0    0    0  501 -0.00000000000E+00 -0.00000000000E+00 -0.15990905754E+02  0.16053830285E+02  0.14200000000E+01 0.  1.
        -11    1    1    2    0    0 -0.26053076324E+02  0.20715994937E+02  0.71485591691E+02  0.78854962126E+02  0.51100000000E-03 0. -1.
         11    1    1    2    0    0  0.26053076324E+02 -0.20715994937E+02  0.10097578894E+02  0.34783276613E+02  0.51100000000E-03 0.  1.
<mgrwt>
<rscale>  0 0.79106483E+02</rscale>
<asrwt>0</asrwt>
<pdfrwt beam="1">  1        4 0.15017032E-01 0.79106483E+02</pdfrwt>
<pdfrwt beam="2">  1       -4 0.24657744E-02 0.79106483E+02</pdfrwt>
<totfact> 0.37481758E+04</totfact>
</mgrwt>
</event>
<event>
 4    1  0.5401488E-001  0.2406530E+02  0.7818608E-02  0.1674802E+00
         -4   -1    0    0    0  501 -0.00000000000E+00  0.00000000000E+00  0.14890213647E+02  0.14957769301E+02  0.14200000000E+01 0. -1.
          4   -1    0    0  501    0  0.00000000000E+00 -0.00000000000E+00 -0.95814726932E+01  0.96861250751E+01  0.14200000000E+01 0.  1.
        -11    1    1    2    0    0 -0.80248262866E+01 -0.80632683027E+01 -0.13604206122E+01  0.11457088511E+02  0.51100000000E-03 0. -1.
         11    1    1    2    0    0  0.80248262866E+01  0.80632683027E+01  0.66691615658E+01  0.13186805864E+02  0.51100000000E-03 0.  1.
<mgrwt>
<rscale>  0 0.24065303E+02</rscale>
<asrwt>0</asrwt>
<pdfrwt beam="2">  1        4 0.14873195E-02 0.24065303E+02</pdfrwt>
<pdfrwt beam="1">  1       -4 0.23040489E-02 0.24065303E+02</pdfrwt>
<totfact> 0.86475848E+05</totfact>
</mgrwt>
</event>
<event>
 4    1  0.5401488E-001  0.9206713E+02  0.7818608E-02  0.1297922E+00
          4   -1    0    0  501    0  0.00000000000E+00  0.00000000000E+00  0.11811481727E+03  0.11812335273E+03  0.14200000000E+01 0. -1.
         -4   -1    0    0    0  501 -0.00000000000E+00 -0.00000000000E+00 -0.17903627941E+02  0.17959852267E+02  0.14200000000E+01 0.  1.
        -11    1    1    2    0    0  0.32403985643E+02 -0.11598253734E+02  0.95291344887E+02  0.10131622864E+03  0.51100000000E-03 0. -1.
         11    1    1    2    0    0 -0.32403985643E+02  0.11598253734E+02  0.49198444463E+01  0.34766976355E+02  0.51100000000E-03 0.  1.
<mgrwt>
<rscale>  0 0.92067129E+02</rscale>
<asrwt>0</asrwt>
<pdfrwt beam="1">  1        4 0.18176492E-01 0.92067129E+02</pdfrwt>
<pdfrwt beam="2">  1       -4 0.27593858E-02 0.92067129E+02</pdfrwt>
<totfact> 0.23759165E+04</totfact>
</mgrwt>
</event>
<event>
 4    1  0.5401488E-001  0.3428391E+02  0.7818608E-02  0.1555053E+00
          4   -1    0    0  501    0  0.00000000000E+00  0.00000000000E+00  0.23559465027E+02  0.23602220073E+02  0.14200000000E+01 0. -1.
         -4   -1    0    0    0  501 -0.00000000000E+00 -0.00000000000E+00 -0.12377856706E+02  0.12459042364E+02  0.14200000000E+01 0.  1.
        -11    1    1    2    0    0  0.53089586278E+01  0.15945431446E+02  0.20386369045E+01  0.16929201588E+02  0.51100000000E-03 0. -1.
         11    1    1    2    0    0 -0.53089586278E+01 -0.15945431446E+02  0.91429714170E+01  0.19132060849E+02  0.51100000000E-03 0.  1.
<mgrwt>
<rscale>  0 0.34283907E+02</rscale>
<asrwt>0</asrwt>
<pdfrwt beam="1">  1        4 0.36340669E-02 0.34283907E+02</pdfrwt>
<pdfrwt beam="2">  1       -4 0.19138196E-02 0.34283907E+02</pdfrwt>
<totfact> 0.37454497E+05</totfact>
</mgrwt>
</event>
<event>
 4    1  0.5401488E-001  0.2814099E+02  0.7818608E-02  0.1619596E+00
         -4   -1    0    0    0  501 -0.00000000000E+00  0.00000000000E+00  0.63893518838E+02  0.63909296268E+02  0.14200000000E+01 0.  1.
          4   -1    0    0  501    0  0.00000000000E+00 -0.00000000000E+00 -0.29188525745E+01  0.32459359747E+01  0.14200000000E+01 0. -1.
        -11    1    1    2    0    0 -0.50369104359E+01 -0.11391837058E+02  0.46105744482E+02  0.47758602291E+02  0.51100000000E-03 0.  1.
         11    1    1    2    0    0  0.50369104359E+01  0.11391837058E+02  0.14868921781E+02  0.19396629952E+02  0.51100000000E-03 0. -1.
<mgrwt>
<rscale>  0 0.28140990E+02</rscale>
<asrwt>0</asrwt>
<pdfrwt beam="2">  1        4 0.47542812E-03 0.28140990E+02</pdfrwt>
<pdfrwt beam="1">  1       -4 0.98561466E-02 0.28140990E+02</pdfrwt>
<totfact> 0.52753150E+05</totfact>
</mgrwt>
</event>
<event>
 4    1  0.5401488E-001  0.4832607E+02  0.7818608E-02  0.1454585E+00
         -4   -1    0    0    0  501 -0.00000000000E+00  0.00000000000E+00  0.74698654524E+01  0.76036366219E+01  0.14200000000E+01 0. -1.
          4   -1    0    0  501    0  0.00000000000E+00 -0.00000000000E+00 -0.77327031688E+02  0.77340068721E+02  0.14200000000E+01 0.  1.
        -11    1    1    2    0    0 -0.44958474483E+00 -0.23775921826E+02 -0.42459293356E+02  0.48665061160E+02  0.51100000000E-03 0.  1.
         11    1    1    2    0    0  0.44958474483E+00  0.23775921826E+02 -0.27397872880E+02  0.36278644182E+02  0.51100000000E-03 0. -1.
<mgrwt>
<rscale>  0 0.48326074E+02</rscale>
<asrwt>0</asrwt>
<pdfrwt beam="2">  1        4 0.11907759E-01 0.48326074E+02</pdfrwt>
<pdfrwt beam="1">  1       -4 0.11605031E-02 0.48326074E+02</pdfrwt>
<totfact> 0.14170886E+05</totfact>
</mgrwt>
</event>
<event>
 4    1  0.5401488E-001  0.3093247E+02  0.7818608E-02  0.1588004E+00
          4   -1    0    0  501    0  0.00000000000E+00  0.00000000000E+00  0.37632193000E+01  0.40222157451E+01  0.14200000000E+01 0.  1.
         -4   -1    0    0    0  501 -0.00000000000E+00 -0.00000000000E+00 -0.61181713454E+02  0.61198190015E+02  0.14200000000E+01 0. -1.
        -11    1    1    2    0    0 -0.10186462355E+02 -0.11577577552E+02 -0.31204161302E+02  0.34806666030E+02  0.51100000000E-03 0.  1.
         11    1    1    2    0    0  0.10186462355E+02  0.11577577552E+02 -0.26214332852E+02  0.30413739730E+02  0.51100000000E-03 0. -1.
<mgrwt>
<rscale>  0 0.30932473E+02</rscale>
<asrwt>0</asrwt>
<pdfrwt beam="1">  1        4 0.60014709E-03 0.30932473E+02</pdfrwt>
<pdfrwt beam="2">  1       -4 0.94337608E-02 0.30932473E+02</pdfrwt>
<totfact> 0.42978603E+05</totfact>
</mgrwt>
</event>
<event>
 4    1  0.5401488E-001  0.2435429E+02  0.7818608E-02  0.1670453E+00
         -4   -1    0    0    0  501 -0.00000000000E+00  0.00000000000E+00  0.15150758111E+02  0.15217157137E+02  0.14200000000E+01 0.  1.
          4   -1    0    0  501    0  0.00000000000E+00 -0.00000000000E+00 -0.96472751936E+01  0.97512213933E+01  0.14200000000E+01 0. -1.
        -11    1    1    2    0    0  0.80492458893E+01 -0.87477894785E+01  0.45345602402E-01  0.11887650593E+02  0.51100000000E-03 0.  1.
         11    1    1    2    0    0 -0.80492458893E+01  0.87477894785E+01  0.54581373146E+01  0.13080727937E+02  0.51100000000E-03 0. -1.
<mgrwt>
<rscale>  0 0.24354293E+02</rscale>
<asrwt>0</asrwt>
<pdfrwt beam="2">  1        4 0.14972997E-02 0.24354293E+02</pdfrwt>
<pdfrwt beam="1">  1       -4 0.23439894E-02 0.24354293E+02</pdfrwt>
<totfact> 0.84172662E+05</totfact>
</mgrwt>
</event>
<event>
 4    1  0.5401488E-001  0.2572781E+02  0.7818608E-02  0.1650763E+00
          4   -1    0    0  501    0  0.00000000000E+00  0.00000000000E+00  0.23201639865E+02  0.23245053074E+02  0.14200000000E+01 0.  1.
         -4   -1    0    0    0  501 -0.00000000000E+00 -0.00000000000E+00 -0.70109332014E+01  0.71532918544E+01  0.14200000000E+01 0. -1.
        -11    1    1    2    0    0  0.11206339719E+02 -0.14063567208E+01  0.15371181222E+02  0.19074409599E+02  0.51100000000E-03 0.  1.
         11    1    1    2    0    0 -0.11206339719E+02  0.14063567208E+01  0.81952544141E+00  0.11323935329E+02  0.51100000000E-03 0. -1.
<mgrwt>
<rscale>  0 0.25727814E+02</rscale>
<asrwt>0</asrwt>
<pdfrwt beam="1">  1        4 0.35837732E-02 0.25727814E+02</pdfrwt>
<pdfrwt beam="2">  1       -4 0.10928952E-02 0.25727814E+02</pdfrwt>
<totfact> 0.73077200E+05</totfact>
</mgrwt>
</event>
<event>
 4    1  0.5401488E-001  0.3423064E+02  0.7818608E-02  0.1555541E+00
          4   -1    0    0  501    0  0.00000000000E+00  0.00000000000E+00  0.20190818859E+02  0.20240690853E+02  0.14200000000E+01 0.  1.
         -4   -1    0    0    0  501 -0.00000000000E+00 -0.00000000000E+00 -0.14405567692E+02  0.14475385332E+02  0.14200000000E+01 0. -1.
        -11    1    1    2    0    0  0.10945966328E+02  0.58524282753E+01 -0.90587643952E+01  0.15366401928E+02  0.51100000000E-03 0.  1.
         11    1    1    2    0    0 -0.10945966328E+02 -0.58524282753E+01  0.14844015563E+02  0.19349674257E+02  0.51100000000E-03 0. -1.
<mgrwt>
<rscale>  0 0.34230641E+02</rscale>
<asrwt>0</asrwt>
<pdfrwt beam="1">  1        4 0.31154867E-02 0.34230641E+02</pdfrwt>
<pdfrwt beam="2">  1       -4 0.22254481E-02 0.34230641E+02</pdfrwt>
<totfact> 0.37773467E+05</totfact>
</mgrwt>
</event>
<event>
 4    1  0.5401488E-001  0.2423634E+02  0.7818608E-02  0.1672219E+00
          4   -1    0    0  501    0  0.00000000000E+00  0.00000000000E+00  0.15439339604E+02  0.15504502811E+02  0.14200000000E+01 0. -1.
         -4   -1    0    0    0  501 -0.00000000000E+00 -0.00000000000E+00 -0.93726383856E+01  0.94795965266E+01  0.14200000000E+01 0.  1.
        -11    1    1    2    0    0  0.63992125646E+01  0.10285017771E+02  0.33883244713E+01  0.12578245306E+02  0.51100000000E-03 0. -1.
         11    1    1    2    0    0 -0.63992125646E+01 -0.10285017771E+02  0.26783767470E+01  0.12405854031E+02  0.51100000000E-03 0.  1.
<mgrwt>
<rscale>  0 0.24236344E+02</rscale>
<asrwt>0</asrwt>
<pdfrwt beam="1">  1        4 0.23885231E-02 0.24236344E+02</pdfrwt>
<pdfrwt beam="2">  1       -4 0.14551845E-02 0.24236344E+02</pdfrwt>
<totfact> 0.85049720E+05</totfact>
</mgrwt>
</event>
<event>
 4    1  0.5401488E-001  0.2383287E+02  0.7818608E-02  0.1678355E+00
          4   -1    0    0  501    0  0.00000000000E+00  0.00000000000E+00  0.71237256472E+01  0.72638741107E+01  0.14200000000E+01 0. -1.
         -4   -1    0    0    0  501 -0.00000000000E+00 -0.00000000000E+00 -0.19573302109E+02  0.19624743449E+02  0.14200000000E+01 0.  1.
        -11    1    1    2    0    0 -0.87447075721E+01 -0.53137926423E+01  0.66519636072E+00  0.10254208367E+02  0.51100000000E-03 0. -1.
         11    1    1    2    0    0  0.87447075721E+01  0.53137926423E+01 -0.13114772823E+02  0.16634409193E+02  0.51100000000E-03 0.  1.
<mgrwt>
<rscale>  0 0.23832872E+02</rscale>
<asrwt>0</asrwt>
<pdfrwt beam="1">  1        4 0.11106955E-02 0.23832872E+02</pdfrwt>
<pdfrwt beam="2">  1       -4 0.30260149E-02 0.23832872E+02</pdfrwt>
<totfact> 0.87466367E+05</totfact>
</mgrwt>
</event>
<event>
 4    1  0.5401488E-001  0.6235787E+02  0.7818608E-02  0.1388195E+00
          4   -1    0    0  501    0  0.00000000000E+00  0.00000000000E+00  0.65486101723E+02  0.65501495547E+02  0.14200000000E+01 0. -1.
         -4   -1    0    0    0  501 -0.00000000000E+00 -0.00000000000E+00 -0.14793627269E+02  0.14861621977E+02  0.14200000000E+01 0.  1.
        -11    1    1    2    0    0  0.25996923294E+02 -0.15224299971E+02  0.35696885913E+02  0.46710673239E+02  0.51100000000E-03 0. -1.
         11    1    1    2    0    0 -0.25996923294E+02  0.15224299971E+02  0.14995588541E+02  0.33652444284E+02  0.51100000000E-03 0.  1.
<mgrwt>
<rscale>  0 0.62357868E+02</rscale>
<asrwt>0</asrwt>
<pdfrwt beam="1">  1        4 0.10081199E-01 0.62357868E+02</pdfrwt>
<pdfrwt beam="2">  1       -4 0.22823571E-02 0.62357868E+02</pdfrwt>
<totfact> 0.75685194E+04</totfact>
</mgrwt>
</event>
<event>
 4    1  0.5401488E-001  0.2083394E+02  0.7818608E-02  0.1729235E+00
          4   -1    0    0  501    0  0.00000000000E+00  0.00000000000E+00  0.50215932334E+02  0.50236005615E+02  0.14200000000E+01 0.  1.
         -4   -1    0    0    0  501 -0.00000000000E+00 -0.00000000000E+00 -0.19048619363E+01  0.23758996183E+01  0.14200000000E+01 0. -1.
        -11    1    1    2    0    0  0.50473710319E+01  0.86563813946E+01  0.31344597110E+02  0.32907334462E+02  0.51100000000E-03 0.  1.
         11    1    1    2    0    0 -0.50473710319E+01 -0.86563813946E+01  0.16966473288E+02  0.19704570771E+02  0.51100000000E-03 0. -1.
<mgrwt>
<rscale>  0 0.20833940E+02</rscale>
<asrwt>0</asrwt>
<pdfrwt beam="1">  1        4 0.77633060E-02 0.20833940E+02</pdfrwt>
<pdfrwt beam="2">  1       -4 0.33083344E-03 0.20833940E+02</pdfrwt>
<totfact> 0.10501771E+06</totfact>
</mgrwt>
</event>
<event>
 4    1  0.5401488E-001  0.2684229E+02  0.7818608E-02  0.1635868E+00
          4   -1    0    0  501    0  0.00000000000E+00  0.00000000000E+00  0.24065552284E+01  0.27942634213E+01  0.14200000000E+01 0.  1.
         -4   -1    0    0    0  501 -0.00000000000E+00 -0.00000000000E+00 -0.68873198230E+02  0.68887835171E+02  0.14200000000E+01 0. -1.
        -11    1    1    2    0    0  0.48481548152E+01  0.11433849704E+02 -0.46821275231E+02  0.48440368895E+02  0.51100000000E-03 0. -1.
         11    1    1    2    0    0 -0.48481548152E+01 -0.11433849704E+02 -0.19645367771E+02  0.23241729696E+02  0.51100000000E-03 0.  1.
<mgrwt>
<rscale>  0 0.26842292E+02</rscale>
<asrwt>0</asrwt>
<pdfrwt beam="1">  1        4 0.40118894E-03 0.26842292E+02</pdfrwt>
<pdfrwt beam="2">  1       -4 0.10626825E-01 0.26842292E+02</pdfrwt>
<totfact> 0.57681399E+05</totfact>
</mgrwt>
</event>
<event>
 4    1  0.5401488E-001  0.5662026E+02  0.7818608E-02  0.1412588E+00
          4   -1    0    0  501    0  0.00000000000E+00  0.00000000000E+00  0.65569129768E+01  0.67089125636E+01  0.14200000000E+01 0. -1.
         -4   -1    0    0    0  501 -0.00000000000E+00 -0.00000000000E+00 -0.12067508405E+03  0.12068343842E+03  0.14200000000E+01 0.  1.
        -11    1    1    2    0    0 -0.24452846106E+02  0.14213456834E+02 -0.54303946050E+02  0.61228119314E+02  0.51100000000E-03 0. -1.
         11    1    1    2    0    0  0.24452846106E+02 -0.14213456834E+02 -0.59814225018E+02  0.66164231671E+02  0.51100000000E-03 0.  1.
<mgrwt>
<rscale>  0 0.56620262E+02</rscale>
<asrwt>0</asrwt>
<pdfrwt beam="1">  1        4 0.10210909E-02 0.56620262E+02</pdfrwt>
<pdfrwt beam="2">  1       -4 0.18577731E-01 0.56620262E+02</pdfrwt>
<totfact> 0.85908582E+04</totfact>
</mgrwt>
</event>
<event>
 4    1  0.5401488E-001  0.3166183E+02  0.7818608E-02  0.1580414E+00
         -4   -1    0    0    0  501 -0.00000000000E+00  0.00000000000E+00  0.88159013436E+01  0.89295305868E+01  0.14200000000E+01 0.  1.
          4   -1    0    0  501    0  0.00000000000E+00 -0.00000000000E+00 -0.28114236063E+02  0.28150074057E+02  0.14200000000E+01 0.  1.
        -11    1    1    2    0    0  0.44973114877E+01 -0.15122281110E+02 -0.81183452793E+01  0.17743075464E+02  0.51100000000E-03 0. -1.
         11    1    1    2    0    0 -0.44973114877E+01  0.15122281110E+02 -0.11179989440E+02  0.19336529180E+02  0.51100000000E-03 0.  1.
<mgrwt>
<rscale>  0 0.31661828E+02</rscale>
<asrwt>0</asrwt>
<pdfrwt beam="2">  1        4 0.43367645E-02 0.31661828E+02</pdfrwt>
<pdfrwt beam="1">  1       -4 0.13677900E-02 0.31661828E+02</pdfrwt>
<totfact> 0.44819429E+05</totfact>
</mgrwt>
</event>
<event>
 4    1  0.5401488E-001  0.3537534E+02  0.7818608E-02  0.1545292E+00
          4   -1    0    0  501    0  0.00000000000E+00  0.00000000000E+00  0.64256620611E+01  0.65806939546E+01  0.14200000000E+01 0.  1.
         -4   -1    0    0    0  501 -0.00000000000E+00 -0.00000000000E+00 -0.47942147805E+02  0.47963172708E+02  0.14200000000E+01 0. -1.
        -11    1    1    2    0    0  0.91721604068E+01 -0.14850942286E+02 -0.25166641335E+02  0.30627419899E+02  0.51100000000E-03 0. -1.
         11    1    1    2    0    0 -0.91721604068E+01  0.14850942286E+02 -0.16349844409E+02  0.23916446763E+02  0.51100000000E-03 0.  1.
<mgrwt>
<rscale>  0 0.35375342E+02</rscale>
<asrwt>0</asrwt>
<pdfrwt beam="1">  1        4 0.10021063E-02 0.35375342E+02</pdfrwt>
<pdfrwt beam="2">  1       -4 0.73892577E-02 0.35375342E+02</pdfrwt>
<totfact> 0.32701105E+05</totfact>
</mgrwt>
</event>
<event>
 4    1  0.5401488E-001  0.2672251E+02  0.7818608E-02  0.1637426E+00
          4   -1    0    0  501    0  0.00000000000E+00  0.00000000000E+00  0.10355942417E+03  0.10356915919E+03  0.14200000000E+01 0.  1.
         -4   -1    0    0    0  501 -0.00000000000E+00 -0.00000000000E+00 -0.14199416114E+01  0.20081419720E+01  0.14200000000E+01 0. -1.
        -11    1    1    2    0    0 -0.25171344365E+01 -0.12052557802E+02  0.71569810679E+02  0.72621194676E+02  0.51100000000E-03 0. -1.
         11    1    1    2    0    0  0.25171344365E+01  0.12052557802E+02  0.30569671883E+02  0.32956106484E+02  0.51100000000E-03 0.  1.
<mgrwt>
<rscale>  0 0.26722512E+02</rscale>
<asrwt>0</asrwt>
<pdfrwt beam="1">  1        4 0.15978218E-01 0.26722512E+02</pdfrwt>
<pdfrwt beam="2">  1       -4 0.26444752E-03 0.26722512E+02</pdfrwt>
<totfact> 0.52746770E+05</totfact>
</mgrwt>
</event>
<event>
 4    1  0.5401488E-001  0.3125902E+02  0.7818608E-02  0.1584575E+00
          4   -1    0    0  501    0  0.00000000000E+00  0.00000000000E+00  0.52921542409E+02  0.52940589824E+02  0.14200000000E+01 0.  1.
         -4   -1    0    0    0  501 -0.00000000000E+00 -0.00000000000E+00 -0.44863390808E+01  0.47057027475E+01  0.14200000000E+01 0. -1.
        -11    1    1    2    0    0  0.11093114401E+02 -0.99448899656E+01  0.32930793718E+02  0.36144089402E+02  0.51100000000E-03 0.  1.
         11    1    1    2    0    0 -0.11093114401E+02  0.99448899656E+01  0.15504409610E+02  0.21502203170E+02  0.51100000000E-03 0. -1.
<mgrwt>
<rscale>  0 0.31259017E+02</rscale>
<asrwt>0</asrwt>
<pdfrwt beam="1">  1        4 0.81601141E-02 0.31259017E+02</pdfrwt>
<pdfrwt beam="2">  1       -4 0.70854541E-03 0.31259017E+02</pdfrwt>
<totfact> 0.42998175E+05</totfact>
</mgrwt>
</event>
<event>
 4    1  0.5401488E-001  0.4428837E+02  0.7818608E-02  0.1478834E+00
         -4   -1    0    0    0  501 -0.00000000000E+00  0.00000000000E+00  0.23558007937E+02  0.23600765623E+02  0.14200000000E+01 0.  1.
          4   -1    0    0  501    0  0.00000000000E+00 -0.00000000000E+00 -0.20729274446E+02  0.20777854053E+02  0.14200000000E+01 0. -1.
        -11    1    1    2    0    0  0.13937913541E+01  0.19435839967E+02 -0.91270746103E+01  0.21517388800E+02  0.51100000000E-03 0. -1.
         11    1    1    2    0    0 -0.13937913541E+01 -0.19435839967E+02  0.11955808101E+02  0.22861230876E+02  0.51100000000E-03 0.  1.
<mgrwt>
<rscale>  0 0.44288375E+02</rscale>
<asrwt>0</asrwt>
<pdfrwt beam="2">  1        4 0.31961451E-02 0.44288375E+02</pdfrwt>
<pdfrwt beam="1">  1       -4 0.36313349E-02 0.44288375E+02</pdfrwt>
<totfact> 0.19786501E+05</totfact>
</mgrwt>
</event>
<event>
 4    1  0.5401488E-001  0.2049748E+02  0.7818608E-02  0.1735612E+00
          4   -1    0    0  501    0  0.00000000000E+00  0.00000000000E+00  0.36180452699E+01  0.38867276178E+01  0.14200000000E+01 0.  1.
         -4   -1    0    0    0  501 -0.00000000000E+00 -0.00000000000E+00 -0.27704449652E+02  0.27740817048E+02  0.14200000000E+01 0. -1.
        -11    1    1    2    0    0 -0.10232765437E+02 -0.43884327541E+00 -0.12609303726E+02  0.16244894971E+02  0.51100000000E-03 0. -1.
         11    1    1    2    0    0  0.10232765437E+02  0.43884327541E+00 -0.11477100656E+02  0.15382649695E+02  0.51100000000E-03 0.  1.
<mgrwt>
<rscale>  0 0.20497480E+02</rscale>
<asrwt>0</asrwt>
<pdfrwt beam="1">  1        4 0.58008773E-03 0.20497480E+02</pdfrwt>
<pdfrwt beam="2">  1       -4 0.42856883E-02 0.20497480E+02</pdfrwt>
<totfact> 0.11765925E+06</totfact>
</mgrwt>
</event>
<event>
 4    1  0.5401488E-001  0.2905425E+02  0.7818608E-02  0.1608784E+00
          4   -1    0    0  501    0  0.00000000000E+00  0.00000000000E+00  0.60434936236E+02  0.60451616338E+02  0.14200000000E+01 0.  1.
         -4   -1    0    0    0  501 -0.00000000000E+00 -0.00000000000E+00 -0.33297218278E+01  0.36198684300E+01  0.14200000000E+01 0. -1.
        -11    1    1    2    0    0  0.48586247233E+01 -0.12337150401E+02  0.15464221050E+02  0.20370411070E+02  0.51100000000E-03 0. -1.
         11    1    1    2    0    0 -0.48586247233E+01  0.12337150401E+02  0.41640993358E+02  0.43701073697E+02  0.51100000000E-03 0.  1.
<mgrwt>
<rscale>  0 0.29054254E+02</rscale>
<asrwt>0</asrwt>
<pdfrwt beam="1">  1        4 0.93212839E-02 0.29054254E+02</pdfrwt>
<pdfrwt beam="2">  1       -4 0.53586699E-03 0.29054254E+02</pdfrwt>
<totfact> 0.49640209E+05</totfact>
</mgrwt>
</event>
<event>
 4    1  0.5401488E-001  0.2755344E+02  0.7818608E-02  0.1626821E+00
         -4   -1    0    0    0  501 -0.00000000000E+00  0.00000000000E+00  0.41310092372E+02  0.41334490825E+02  0.14200000000E+01 0.  1.
          4   -1    0    0  501    0  0.00000000000E+00 -0.00000000000E+00 -0.44583437736E+01  0.46790201115E+01  0.14200000000E+01 0. -1.
        -11    1    1    2    0    0  0.74959881905E+01  0.10618223941E+02  0.10798383378E+02  0.16897976283E+02  0.51100000000E-03 0. -1.
         11    1    1    2    0    0 -0.74959881905E+01 -0.10618223941E+02  0.26053365221E+02  0.29115534654E+02  0.51100000000E-03 0.  1.
<mgrwt>
<rscale>  0 0.27553436E+02</rscale>
<asrwt>0</asrwt>
<pdfrwt beam="2">  1        4 0.70475095E-03 0.27553436E+02</pdfrwt>
<pdfrwt beam="1">  1       -4 0.63742507E-02 0.27553436E+02</pdfrwt>
<totfact> 0.59304839E+05</totfact>
</mgrwt>
</event>
<event>
 4    1  0.5401488E-001  0.3441696E+02  0.7818608E-02  0.1553840E+00
          4   -1    0    0  501    0  0.00000000000E+00  0.00000000000E+00  0.49997248359E+01  0.51974655780E+01  0.14200000000E+01 0. -1.
         -4   -1    0    0    0  501 -0.00000000000E+00 -0.00000000000E+00 -0.57874421479E+02  0.57891839334E+02  0.14200000000E+01 0.  1.
        -11    1    1    2    0    0  0.10364552526E+02 -0.51105423952E+01 -0.49811204261E+02  0.51134114472E+02  0.51100000000E-03 0.  1.
         11    1    1    2    0    0 -0.10364552526E+02  0.51105423952E+01 -0.30634923818E+01  0.11955190440E+02  0.51100000000E-03 0. -1.
<mgrwt>
<rscale>  0 0.34416956E+02</rscale>
<asrwt>0</asrwt>
<pdfrwt beam="1">  1        4 0.78573914E-03 0.34416956E+02</pdfrwt>
<pdfrwt beam="2">  1       -4 0.89203074E-02 0.34416956E+02</pdfrwt>
<totfact> 0.33912736E+05</totfact>
</mgrwt>
</event>
<event>
 4    1  0.5401488E-001  0.2157822E+02  0.7818608E-02  0.1715650E+00
         -4   -1    0    0    0  501 -0.00000000000E+00  0.00000000000E+00  0.80435163468E+02  0.80447696810E+02  0.14200000000E+01 0.  1.
          4   -1    0    0  501    0  0.00000000000E+00 -0.00000000000E+00 -0.10831084199E+01  0.17859238084E+01  0.14200000000E+01 0. -1.
        -11    1    1    2    0    0  0.91975012447E+01  0.52319578040E+01  0.31648093466E+02  0.33370184775E+02  0.51100000000E-03 0. -1.
         11    1    1    2    0    0 -0.91975012447E+01 -0.52319578040E+01  0.47703961582E+02  0.48863435844E+02  0.51100000000E-03 0.  1.
<mgrwt>
<rscale>  0 0.21578223E+02</rscale>
<asrwt>0</asrwt>
<pdfrwt beam="2">  1        4 0.22165889E-03 0.21578223E+02</pdfrwt>
<pdfrwt beam="1">  1       -4 0.12429667E-01 0.21578223E+02</pdfrwt>
<totfact> 0.88614247E+05</totfact>
</mgrwt>
</event>
<event>
 4    1  0.5401488E-001  0.2137564E+02  0.7818608E-02  0.1719279E+00
          4   -1    0    0  501    0  0.00000000000E+00  0.00000000000E+00  0.17829177451E+02  0.17885635817E+02  0.14200000000E+01 0.  1.
         -4   -1    0    0    0  501 -0.00000000000E+00 -0.00000000000E+00 -0.62606632932E+01  0.64196810568E+01  0.14200000000E+01 0. -1.
        -11    1    1    2    0    0 -0.10206196133E+02  0.26398768753E+01  0.77843422466E+01  0.13104631773E+02  0.51100000000E-03 0. -1.
         11    1    1    2    0    0  0.10206196133E+02 -0.26398768753E+01  0.37841719115E+01  0.11200685101E+02  0.51100000000E-03 0.  1.
<mgrwt>
<rscale>  0 0.21375638E+02</rscale>
<asrwt>0</asrwt>
<pdfrwt beam="1">  1        4 0.27595254E-02 0.21375638E+02</pdfrwt>
<pdfrwt beam="2">  1       -4 0.97975407E-03 0.21375638E+02</pdfrwt>
<totfact> 0.11126807E+06</totfact>
</mgrwt>
</event>
<event>
 4    1  0.5401488E-001  0.2246928E+02  0.7818608E-02  0.1700260E+00
         -4   -1    0    0    0  501 -0.00000000000E+00  0.00000000000E+00  0.20804097354E+01  0.25188300195E+01  0.14200000000E+01 0.  1.
          4   -1    0    0  501    0  0.00000000000E+00 -0.00000000000E+00 -0.54437547089E+02  0.54456064245E+02  0.14200000000E+01 0. -1.
        -11    1    1    2    0    0  0.11162294640E+02 -0.84085079964E+00 -0.28601879603E+02  0.30714351187E+02  0.51100000000E-03 0. -1.
         11    1    1    2    0    0 -0.11162294640E+02  0.84085079964E+00 -0.23755257750E+02  0.26260543078E+02  0.51100000000E-03 0.  1.
<mgrwt>
<rscale>  0 0.22469284E+02</rscale>
<asrwt>0</asrwt>
<pdfrwt beam="2">  1        4 0.84101553E-02 0.22469284E+02</pdfrwt>
<pdfrwt beam="1">  1       -4 0.35521211E-03 0.22469284E+02</pdfrwt>
<totfact> 0.88463188E+05</totfact>
</mgrwt>
</event>
<event>
 4    1  0.5401488E-001  0.6103411E+02  0.7818608E-02  0.1393543E+00
         -4   -1    0    0    0  501 -0.00000000000E+00  0.00000000000E+00  0.96346766425E+02  0.96357230142E+02  0.14200000000E+01 0.  1.
          4   -1    0    0  501    0  0.00000000000E+00 -0.00000000000E+00 -0.96028271246E+01  0.97072492903E+01  0.14200000000E+01 0. -1.
        -11    1    1    2    0    0 -0.15178012131E+02 -0.20144366073E+02  0.13518213339E+02  0.28616597088E+02  0.51100000000E-03 0. -1.
         11    1    1    2    0    0  0.15178012131E+02  0.20144366073E+02  0.73225725961E+02  0.77447882344E+02  0.51100000000E-03 0.  1.
<mgrwt>
<rscale>  0 0.61034112E+02</rscale>
<asrwt>0</asrwt>
<pdfrwt beam="2">  1        4 0.14861954E-02 0.61034112E+02</pdfrwt>
<pdfrwt beam="1">  1       -4 0.14831416E-01 0.61034112E+02</pdfrwt>
<totfact> 0.74850729E+04</totfact>
</mgrwt>
</event>
<event>
 4    1  0.5401488E-001  0.3536358E+02  0.7818608E-02  0.1545395E+00
         -4   -1    0    0    0  501 -0.00000000000E+00  0.00000000000E+00  0.16384507681E+02  0.16445926303E+02  0.14200000000E+01 0. -1.
          4   -1    0    0  501    0  0.00000000000E+00 -0.00000000000E+00 -0.18958064719E+02  0.19011170871E+02  0.14200000000E+01 0.  1.
        -11    1    1    2    0    0 -0.14428613861E+02 -0.10161710756E+02 -0.23852909759E+01  0.17808281128E+02  0.51100000000E-03 0.  1.
         11    1    1    2    0    0  0.14428613861E+02  0.10161710756E+02 -0.18826606213E+00  0.17648816046E+02  0.51100000000E-03 0. -1.
<mgrwt>
<rscale>  0 0.35363577E+02</rscale>
<asrwt>0</asrwt>
<pdfrwt beam="2">  1        4 0.29254350E-02 0.35363577E+02</pdfrwt>
<pdfrwt beam="1">  1       -4 0.25295031E-02 0.35363577E+02</pdfrwt>
<totfact> 0.34924479E+05</totfact>
</mgrwt>
</event>
<event>
 4    1  0.5401488E-001  0.2813013E+02  0.7818608E-02  0.1619728E+00
          4   -1    0    0  501    0  0.00000000000E+00  0.00000000000E+00  0.13889317315E+01  0.19863361636E+01  0.14200000000E+01 0. -1.
         -4   -1    0    0    0  501 -0.00000000000E+00 -0.00000000000E+00 -0.11661843529E+03  0.11662708026E+03  0.14200000000E+01 0.  1.
        -11    1    1    2    0    0 -0.70598520402E+01 -0.12162692668E+02 -0.58589252693E+02  0.60253407664E+02  0.51100000000E-03 0. -1.
         11    1    1    2    0    0  0.70598520402E+01  0.12162692668E+02 -0.56640250868E+02  0.58360008760E+02  0.51100000000E-03 0.  1.
<mgrwt>
<rscale>  0 0.28130127E+02</rscale>
<asrwt>0</asrwt>
<pdfrwt beam="1">  1        4 0.26030108E-03 0.28130127E+02</pdfrwt>
<pdfrwt beam="2">  1       -4 0.17987911E-01 0.28130127E+02</pdfrwt>
<totfact> 0.45549777E+05</totfact>
</mgrwt>
</event>
<event>
 4    1  0.5401488E-001  0.2253041E+02  0.7818608E-02  0.1699237E+00
         -4   -1    0    0    0  501 -0.00000000000E+00  0.00000000000E+00  0.12687493435E+02  0.12766710213E+02  0.14200000000E+01 0.  1.
          4   -1    0    0  501    0  0.00000000000E+00 -0.00000000000E+00 -0.98408908733E+01  0.99428131422E+01  0.14200000000E+01 0. -1.
        -11    1    1    2    0    0 -0.45078638797E+01  0.98834566798E+01  0.44305200321E+01  0.11731711756E+02  0.51100000000E-03 0.  1.
         11    1    1    2    0    0  0.45078638797E+01 -0.98834566798E+01 -0.15839174706E+01  0.10977811600E+02  0.51100000000E-03 0. -1.
<mgrwt>
<rscale>  0 0.22530408E+02</rscale>
<asrwt>0</asrwt>
<pdfrwt beam="2">  1        4 0.15279170E-02 0.22530408E+02</pdfrwt>
<pdfrwt beam="1">  1       -4 0.19658559E-02 0.22530408E+02</pdfrwt>
<totfact> 0.10032940E+06</totfact>
</mgrwt>
</event>
<event>
 4    1  0.5401488E-001  0.2732052E+02  0.7818608E-02  0.1629747E+00
          4   -1    0    0  501    0  0.00000000000E+00  0.00000000000E+00  0.51641119123E+01  0.53557867623E+01  0.14200000000E+01 0. -1.
         -4   -1    0    0    0  501 -0.00000000000E+00 -0.00000000000E+00 -0.35269908830E+02  0.35298482529E+02  0.14200000000E+01 0.  1.
        -11    1    1    2    0    0  0.12479877221E+02 -0.13704293128E+00 -0.67896646506E+01  0.14207943642E+02  0.51100000000E-03 0. -1.
         11    1    1    2    0    0 -0.12479877221E+02  0.13704293128E+00 -0.23316132267E+02  0.26446325649E+02  0.51100000000E-03 0.  1.
<mgrwt>
<rscale>  0 0.27320516E+02</rscale>
<asrwt>0</asrwt>
<pdfrwt beam="1">  1        4 0.81142097E-03 0.27320516E+02</pdfrwt>
<pdfrwt beam="2">  1       -4 0.54430819E-02 0.27320516E+02</pdfrwt>
<totfact> 0.61600301E+05</totfact>
</mgrwt>
</event>
<event>
 4    1  0.5401488E-001  0.4852965E+02  0.7818608E-02  0.1453437E+00
         -4   -1    0    0    0  501 -0.00000000000E+00  0.00000000000E+00  0.27575475108E+02  0.27612012376E+02  0.14200000000E+01 0.  1.
          4   -1    0    0  501    0  0.00000000000E+00 -0.00000000000E+00 -0.21277287247E+02  0.21324618463E+02  0.14200000000E+01 0. -1.
        -11    1    1    2    0    0  0.79831177017E+01  0.17782488580E+02 -0.11423207850E+02  0.22592847235E+02  0.51100000000E-03 0. -1.
         11    1    1    2    0    0 -0.79831177017E+01 -0.17782488580E+02  0.17721395712E+02  0.26343783604E+02  0.51100000000E-03 0.  1.
<mgrwt>
<rscale>  0 0.48529647E+02</rscale>
<asrwt>0</asrwt>
<pdfrwt beam="2">  1        4 0.32798802E-02 0.48529647E+02</pdfrwt>
<pdfrwt beam="1">  1       -4 0.42488322E-02 0.48529647E+02</pdfrwt>
<totfact> 0.15575987E+05</totfact>
</mgrwt>
</event>
<event>
 4    1  0.5401488E-001  0.2391072E+02  0.7818608E-02  0.1677159E+00
          4   -1    0    0  501    0  0.00000000000E+00  0.00000000000E+00  0.80475625662E+01  0.81718824794E+01  0.14200000000E+01 0. -1.
         -4   -1    0    0    0  501 -0.00000000000E+00 -0.00000000000E+00 -0.17471252114E+02  0.17528863352E+02  0.14200000000E+01 0.  1.
        -11    1    1    2    0    0 -0.10166427161E+02  0.18940904241E+01 -0.11159838853E+02  0.15214658170E+02  0.51100000000E-03 0.  1.
         11    1    1    2    0    0  0.10166427161E+02 -0.18940904241E+01  0.17361493054E+01  0.10486087661E+02  0.51100000000E-03 0. -1.
<mgrwt>
<rscale>  0 0.23910718E+02</rscale>
<asrwt>0</asrwt>
<pdfrwt beam="1">  1        4 0.12520813E-02 0.23910718E+02</pdfrwt>
<pdfrwt beam="2">  1       -4 0.27018796E-02 0.23910718E+02</pdfrwt>
<totfact> 0.87289456E+05</totfact>
</mgrwt>
</event>
<event>
 4    1  0.5401488E-001  0.5536700E+02  0.7818608E-02  0.1418371E+00
          4   -1    0    0  501    0  0.00000000000E+00  0.00000000000E+00  0.82358733187E+02  0.82370973845E+02  0.14200000000E+01 0. -1.
         -4   -1    0    0    0  501 -0.00000000000E+00 -0.00000000000E+00 -0.92381585864E+01  0.93466557692E+01  0.14200000000E+01 0.  1.
        -11    1    1    2    0    0 -0.19471522591E+02 -0.62778724442E+01  0.67454834012E+02  0.70489052386E+02  0.51100000000E-03 0. -1.
         11    1    1    2    0    0  0.19471522591E+02  0.62778724442E+01  0.56657405884E+01  0.21228577228E+02  0.51100000000E-03 0.  1.
<mgrwt>
<rscale>  0 0.55367004E+02</rscale>
<asrwt>0</asrwt>
<pdfrwt beam="1">  1        4 0.12679862E-01 0.55367004E+02</pdfrwt>
<pdfrwt beam="2">  1       -4 0.14305426E-02 0.55367004E+02</pdfrwt>
<totfact> 0.99297933E+04</totfact>
</mgrwt>
</event>
<event>
 4    1  0.5401488E-001  0.2178763E+02  0.7818608E-02  0.1711951E+00
         -4   -1    0    0    0  501 -0.00000000000E+00  0.00000000000E+00  0.13737817297E+01  0.19757723150E+01  0.14200000000E+01 0. -1.
          4   -1    0    0  501    0  0.00000000000E+00 -0.00000000000E+00 -0.70249865872E+02  0.70264216035E+02  0.14200000000E+01 0.  1.
        -11    1    1    2    0    0  0.63496666623E+01 -0.84488873610E+01 -0.25682441369E+02  0.27772103976E+02  0.51100000000E-03 0. -1.
         11    1    1    2    0    0 -0.63496666623E+01  0.84488873610E+01 -0.43193642774E+02  0.44467884374E+02  0.51100000000E-03 0.  1.
<mgrwt>
<rscale>  0 0.21787633E+02</rscale>
<asrwt>0</asrwt>
<pdfrwt beam="2">  1        4 0.10855080E-01 0.21787633E+02</pdfrwt>
<pdfrwt beam="1">  1       -4 0.25876192E-03 0.21787633E+02</pdfrwt>
<totfact> 0.89640647E+05</totfact>
</mgrwt>
</event>
<event>
 4    1  0.5401488E-001  0.3698060E+02  0.7818608E-02  0.1531684E+00
          4   -1    0    0  501    0  0.00000000000E+00  0.00000000000E+00  0.15843351996E+02  0.15906860233E+02  0.14200000000E+01 0.  1.
         -4   -1    0    0    0  501 -0.00000000000E+00 -0.00000000000E+00 -0.21449281926E+02  0.21496234441E+02  0.14200000000E+01 0. -1.
        -11    1    1    2    0    0 -0.64747620871E+01 -0.99072197667E+01  0.11565521690E+02  0.16548016190E+02  0.51100000000E-03 0.  1.
         11    1    1    2    0    0  0.64747620871E+01  0.99072197667E+01 -0.17171451620E+02  0.20855078484E+02  0.51100000000E-03 0. -1.
<mgrwt>
<rscale>  0 0.36980604E+02</rscale>
<asrwt>0</asrwt>
<pdfrwt beam="1">  1        4 0.24459357E-02 0.36980604E+02</pdfrwt>
<pdfrwt beam="2">  1       -4 0.33083865E-02 0.36980604E+02</pdfrwt>
<totfact> 0.31220224E+05</totfact>
</mgrwt>
</event>
<event>
 4    1  0.5401488E-001  0.2854893E+02  0.7818608E-02  0.1614705E+00
         -4   -1    0    0    0  501 -0.00000000000E+00  0.00000000000E+00  0.51414053926E+02  0.51433659613E+02  0.14200000000E+01 0.  1.
          4   -1    0    0  501    0  0.00000000000E+00 -0.00000000000E+00 -0.38148840993E+01  0.40705946361E+01  0.14200000000E+01 0. -1.
        -11    1    1    2    0    0  0.10305723049E+02  0.98765228958E+01  0.23640618834E+02  0.27615801477E+02  0.51100000000E-03 0.  1.
         11    1    1    2    0    0 -0.10305723049E+02 -0.98765228958E+01  0.23958550993E+02  0.27888452772E+02  0.51100000000E-03 0. -1.
<mgrwt>
<rscale>  0 0.28548928E+02</rscale>
<asrwt>0</asrwt>
<pdfrwt beam="2">  1        4 0.60808347E-03 0.28548928E+02</pdfrwt>
<pdfrwt beam="1">  1       -4 0.79310320E-02 0.28548928E+02</pdfrwt>
<totfact> 0.53072268E+05</totfact>
</mgrwt>
</event>
<event>
 4    1  0.5401488E-001  0.2223950E+02  0.7818608E-02  0.1704143E+00
          4   -1    0    0  501    0  0.00000000000E+00  0.00000000000E+00  0.18087160459E+02  0.18142816029E+02  0.14200000000E+01 0.  1.
         -4   -1    0    0    0  501 -0.00000000000E+00 -0.00000000000E+00 -0.66955418692E+01  0.68444635234E+01  0.14200000000E+01 0. -1.
        -11    1    1    2    0    0  0.59088926530E+01  0.94073441481E+01  0.51503879165E+01  0.12244983963E+02  0.51100000000E-03 0. -1.
         11    1    1    2    0    0 -0.59088926530E+01 -0.94073441481E+01  0.62412306728E+01  0.12742295589E+02  0.51100000000E-03 0.  1.
<mgrwt>
<rscale>  0 0.22239496E+02</rscale>
<asrwt>0</asrwt>
<pdfrwt beam="1">  1        4 0.27983767E-02 0.22239496E+02</pdfrwt>
<pdfrwt beam="2">  1       -4 0.10458201E-02 0.22239496E+02</pdfrwt>
<totfact> 0.10210808E+06</totfact>
</mgrwt>
</event>
<event>
 4    1  0.5401488E-001  0.3000594E+02  0.7818608E-02  0.1598023E+00
         -4   -1    0    0    0  501 -0.00000000000E+00  0.00000000000E+00  0.30269102220E+02  0.30302391807E+02  0.14200000000E+01 0. -1.
          4   -1    0    0  501    0  0.00000000000E+00 -0.00000000000E+00 -0.73307185427E+01  0.74669829485E+01  0.14200000000E+01 0. -1.
        -11    1    1    2    0    0 -0.10750187609E+02 -0.49759166474E+01  0.23057904494E+02  0.25922832407E+02  0.51100000000E-03 0. -1.
         11    1    1    2    0    0  0.10750187609E+02  0.49759166474E+01 -0.11952081638E+00  0.11846542348E+02  0.51100000000E-03 0.  1.
<mgrwt>
<rscale>  0 0.30005936E+02</rscale>
<asrwt>0</asrwt>
<pdfrwt beam="2">  1        4 0.11408454E-02 0.30005936E+02</pdfrwt>
<pdfrwt beam="1">  1       -4 0.46698277E-02 0.30005936E+02</pdfrwt>
<totfact> 0.50512801E+05</totfact>
</mgrwt>
</event>
<event>
 4    1  0.5401488E-001  0.2373554E+02  0.7818608E-02  0.1679857E+00
          4   -1    0    0  501    0  0.00000000000E+00  0.00000000000E+00  0.34643996012E+02  0.34673085523E+02  0.14200000000E+01 0. -1.
         -4   -1    0    0    0  501 -0.00000000000E+00 -0.00000000000E+00 -0.39096720981E+01  0.41595595818E+01  0.14200000000E+01 0.  1.
        -11    1    1    2    0    0  0.17213123230E+01 -0.11048462332E+02  0.21872920026E+02  0.24565342797E+02  0.51100000000E-03 0.  1.
         11    1    1    2    0    0 -0.17213123230E+01  0.11048462332E+02  0.88614038881E+01  0.14267302308E+02  0.51100000000E-03 0. -1.
<mgrwt>
<rscale>  0 0.23735536E+02</rscale>
<asrwt>0</asrwt>
<pdfrwt beam="1">  1        4 0.53513055E-02 0.23735536E+02</pdfrwt>
<pdfrwt beam="2">  1       -4 0.62294776E-03 0.23735536E+02</pdfrwt>
<totfact> 0.84149647E+05</totfact>
</mgrwt>
</event>
<event>
 4    1  0.5401488E-001  0.2514512E+02  0.7818608E-02  0.1658926E+00
         -4   -1    0    0    0  501 -0.00000000000E+00  0.00000000000E+00  0.10252005721E+02  0.10349880256E+02  0.14200000000E+01 0.  1.
          4   -1    0    0  501    0  0.00000000000E+00 -0.00000000000E+00 -0.15214037382E+02  0.15280161434E+02  0.14200000000E+01 0. -1.
        -11    1    1    2    0    0 -0.11716050186E+02  0.44819029387E+01 -0.16185096729E+01  0.12648037782E+02  0.51100000000E-03 0.  1.
         11    1    1    2    0    0  0.11716050186E+02 -0.44819029387E+01 -0.33435219882E+01  0.12982003908E+02  0.51100000000E-03 0. -1.
<mgrwt>
<rscale>  0 0.25145124E+02</rscale>
<asrwt>0</asrwt>
<pdfrwt beam="2">  1        4 0.23532364E-02 0.25145124E+02</pdfrwt>
<pdfrwt beam="1">  1       -4 0.15898469E-02 0.25145124E+02</pdfrwt>
<totfact> 0.78320724E+05</totfact>
</mgrwt>
</event>
<event>
 4    1  0.5401488E-001  0.2829026E+02  0.7818608E-02  0.1617795E+00
         -4   -1    0    0    0  501 -0.00000000000E+00  0.00000000000E+00  0.89278090910E+02  0.89289383000E+02  0.14200000000E+01 0.  1.
          4   -1    0    0  501    0  0.00000000000E+00 -0.00000000000E+00 -0.20036071808E+01  0.24557772161E+01  0.14200000000E+01 0. -1.
        -11    1    1    2    0    0 -0.86515834864E+01  0.10400924783E+02  0.57030296233E+02  0.58613000451E+02  0.51100000000E-03 0.  1.
         11    1    1    2    0    0  0.86515834864E+01 -0.10400924783E+02  0.30244187496E+02  0.33132159765E+02  0.51100000000E-03 0. -1.
<mgrwt>
<rscale>  0 0.28290262E+02</rscale>
<asrwt>0</asrwt>
<pdfrwt beam="2">  1        4 0.34389818E-03 0.28290262E+02</pdfrwt>
<pdfrwt beam="1">  1       -4 0.13770742E-01 0.28290262E+02</pdfrwt>
<totfact> 0.48427650E+05</totfact>
</mgrwt>
</event>
<event>
 4    1  0.5401488E-001  0.2394372E+02  0.7818608E-02  0.1676654E+00
         -4   -1    0    0    0  501 -0.00000000000E+00  0.00000000000E+00  0.15925949026E+02  0.15989129194E+02  0.14200000000E+01 0.  1.
          4   -1    0    0  501    0  0.00000000000E+00 -0.00000000000E+00 -0.88618624247E+01  0.89749097842E+01  0.14200000000E+01 0. -1.
        -11    1    1    2    0    0 -0.11572687089E+02 -0.77560725683E+00  0.43971079131E+00  0.11606980611E+02  0.51100000000E-03 0. -1.
         11    1    1    2    0    0  0.11572687089E+02  0.77560725683E+00  0.66243758097E+01  0.13357058366E+02  0.51100000000E-03 0.  1.
<mgrwt>
<rscale>  0 0.23943724E+02</rscale>
<asrwt>0</asrwt>
<pdfrwt beam="2">  1        4 0.13769194E-02 0.23943724E+02</pdfrwt>
<pdfrwt beam="1">  1       -4 0.24637020E-02 0.23943724E+02</pdfrwt>
<totfact> 0.87301797E+05</totfact>
</mgrwt>
</event>
<event>
 4    1  0.5401488E-001  0.3238851E+02  0.7818608E-02  0.1573094E+00
          4   -1    0    0  501    0  0.00000000000E+00  0.00000000000E+00  0.38844850876E+02  0.38870796745E+02  0.14200000000E+01 0. -1.
         -4   -1    0    0    0  501 -0.00000000000E+00 -0.00000000000E+00 -0.66481119366E+01  0.67980726917E+01  0.14200000000E+01 0.  1.
        -11    1    1    2    0    0  0.87184181477E+01 -0.78070704785E+01  0.31881467023E+02  0.33961582770E+02  0.51100000000E-03 0. -1.
         11    1    1    2    0    0 -0.87184181477E+01  0.78070704785E+01  0.31527191662E+00  0.11707286667E+02  0.51100000000E-03 0.  1.
<mgrwt>
<rscale>  0 0.32388511E+02</rscale>
<asrwt>0</asrwt>
<pdfrwt beam="1">  1        4 0.59896623E-02 0.32388511E+02</pdfrwt>
<pdfrwt beam="2">  1       -4 0.10363177E-02 0.32388511E+02</pdfrwt>
<totfact> 0.41279036E+05</totfact>
</mgrwt>
</event>
<event>
 4    1  0.5401488E-001  0.3396306E+02  0.7818608E-02  0.1558006E+00
          4   -1    0    0  501    0  0.00000000000E+00  0.00000000000E+00  0.15619324134E+02  0.15683739554E+02  0.14200000000E+01 0.  1.
         -4   -1    0    0    0  501 -0.00000000000E+00 -0.00000000000E+00 -0.18332618682E+02  0.18387531312E+02  0.14200000000E+01 0. -1.
        -11    1    1    2    0    0 -0.15931325926E+02 -0.56516608428E+01 -0.29816745144E+01  0.17165045855E+02  0.51100000000E-03 0. -1.
         11    1    1    2    0    0  0.15931325926E+02  0.56516608428E+01  0.26837996570E+00  0.16906225010E+02  0.51100000000E-03 0.  1.
<mgrwt>
<rscale>  0 0.33963061E+02</rscale>
<asrwt>0</asrwt>
<pdfrwt beam="1">  1        4 0.24121520E-02 0.33963061E+02</pdfrwt>
<pdfrwt beam="2">  1       -4 0.28295820E-02 0.33963061E+02</pdfrwt>
<totfact> 0.38557640E+05</totfact>
</mgrwt>
</event>
<event>
 4    1  0.5401488E-001  0.2102340E+02  0.7818608E-02  0.1725710E+00
          4   -1    0    0  501    0  0.00000000000E+00  0.00000000000E+00  0.73665292593E+01  0.75021432490E+01  0.14200000000E+01 0. -1.
         -4   -1    0    0    0  501 -0.00000000000E+00 -0.00000000000E+00 -0.14692750412E+02  0.14761209797E+02  0.14200000000E+01 0.  1.
        -11    1    1    2    0    0 -0.59863034672E+01  0.80808925238E+01 -0.69028250194E+01  0.12197772202E+02  0.51100000000E-03 0.  1.
         11    1    1    2    0    0  0.59863034672E+01 -0.80808925238E+01 -0.42339613355E+00  0.10065580844E+02  0.51100000000E-03 0. -1.
<mgrwt>
<rscale>  0 0.21023401E+02</rscale>
<asrwt>0</asrwt>
<pdfrwt beam="1">  1        4 0.11490101E-02 0.21023401E+02</pdfrwt>
<pdfrwt beam="2">  1       -4 0.22761211E-02 0.21023401E+02</pdfrwt>
<totfact> 0.11621889E+06</totfact>
</mgrwt>
</event>
<event>
 4    1  0.5401488E-001  0.2590171E+02  0.7818608E-02  0.1648378E+00
         -4   -1    0    0    0  501 -0.00000000000E+00  0.00000000000E+00  0.28417383639E+02  0.28452839804E+02  0.14200000000E+01 0. -1.
          4   -1    0    0  501    0  0.00000000000E+00 -0.00000000000E+00 -0.57770166637E+01  0.59489765114E+01  0.14200000000E+01 0.  1.
        -11    1    1    2    0    0 -0.62798916434E+01 -0.10376831509E+02  0.52906806016E+01  0.13232799126E+02  0.51100000000E-03 0.  1.
         11    1    1    2    0    0  0.62798916434E+01  0.10376831509E+02  0.17349686374E+02  0.21169017189E+02  0.51100000000E-03 0. -1.
<mgrwt>
<rscale>  0 0.25901713E+02</rscale>
<asrwt>0</asrwt>
<pdfrwt beam="2">  1        4 0.90472687E-03 0.25901713E+02</pdfrwt>
<pdfrwt beam="1">  1       -4 0.43878603E-02 0.25901713E+02</pdfrwt>
<totfact> 0.70891830E+05</totfact>
</mgrwt>
</event>
<event>
 4    1  0.5401488E-001  0.4568260E+02  0.7818608E-02  0.1470125E+00
          4   -1    0    0  501    0  0.00000000000E+00  0.00000000000E+00  0.10973280439E+02  0.11064776708E+02  0.14200000000E+01 0. -1.
         -4   -1    0    0    0  501 -0.00000000000E+00 -0.00000000000E+00 -0.47245440739E+02  0.47266775547E+02  0.14200000000E+01 0.  1.
        -11    1    1    2    0    0 -0.11403747259E+02 -0.14394873720E+02 -0.79355572465E+00  0.18381718416E+02  0.51100000000E-03 0. -1.
         11    1    1    2    0    0  0.11403747259E+02  0.14394873720E+02 -0.35478604575E+02  0.39949833839E+02  0.51100000000E-03 0.  1.
<mgrwt>
<rscale>  0 0.45682605E+02</rscale>
<asrwt>0</asrwt>
<pdfrwt beam="1">  1        4 0.16968763E-02 0.45682605E+02</pdfrwt>
<pdfrwt beam="2">  1       -4 0.72772085E-02 0.45682605E+02</pdfrwt>
<totfact> 0.17555495E+05</totfact>
</mgrwt>
</event>
<event>
 4    1  0.5401488E-001  0.4181955E+02  0.7818608E-02  0.1495233E+00
         -4   -1    0    0    0  501 -0.00000000000E+00  0.00000000000E+00  0.72079068552E+01  0.73464495665E+01  0.14200000000E+01 0. -1.
          4   -1    0    0  501    0  0.00000000000E+00 -0.00000000000E+00 -0.59933767039E+02  0.59950586582E+02  0.14200000000E+01 0.  1.
        -11    1    1    2    0    0 -0.18146788862E+02 -0.77318559575E+01 -0.37527183135E+02  0.42395483449E+02  0.51100000000E-03 0.  1.
         11    1    1    2    0    0  0.18146788862E+02  0.77318559575E+01 -0.15198677049E+02  0.24901552700E+02  0.51100000000E-03 0. -1.
<mgrwt>
<rscale>  0 0.41819550E+02</rscale>
<asrwt>0</asrwt>
<pdfrwt beam="2">  1        4 0.92325302E-02 0.41819550E+02</pdfrwt>
<pdfrwt beam="1">  1       -4 0.11208597E-02 0.41819550E+02</pdfrwt>
<totfact> 0.21165703E+05</totfact>
</mgrwt>
</event>
<event>
 4    1  0.5401488E-001  0.4184319E+02  0.7818608E-02  0.1495070E+00
          4   -1    0    0  501    0  0.00000000000E+00  0.00000000000E+00  0.14671647491E+02  0.14740204887E+02  0.14200000000E+01 0. -1.
         -4   -1    0    0    0  501 -0.00000000000E+00 -0.00000000000E+00 -0.29678828136E+02  0.29712779061E+02  0.14200000000E+01 0.  1.
        -11    1    1    2    0    0  0.47179876597E+00  0.17746848672E+02 -0.19263793534E+02  0.26196697758E+02  0.51100000000E-03 0. -1.
         11    1    1    2    0    0 -0.47179876597E+00 -0.17746848672E+02  0.42566128890E+01  0.18256286189E+02  0.51100000000E-03 0.  1.
<mgrwt>
<rscale>  0 0.41843187E+02</rscale>
<asrwt>0</asrwt>
<pdfrwt beam="1">  1        4 0.22650618E-02 0.41843187E+02</pdfrwt>
<pdfrwt beam="2">  1       -4 0.45738588E-02 0.41843187E+02</pdfrwt>
<totfact> 0.22702129E+05</totfact>
</mgrwt>
</event>
<event>
 4    1  0.5401488E-001  0.3579019E+02  0.7818608E-02  0.1541693E+00
          4   -1    0    0  501    0  0.00000000000E+00  0.00000000000E+00  0.38670989895E+02  0.38697052335E+02  0.14200000000E+01 0.  1.
         -4   -1    0    0    0  501 -0.00000000000E+00 -0.00000000000E+00 -0.81910378790E+01  0.83132124678E+01  0.14200000000E+01 0. -1.
        -11    1    1    2    0    0  0.15049900295E+02 -0.16656302850E+01  0.27127394195E+01  0.15382872897E+02  0.51100000000E-03 0. -1.
         11    1    1    2    0    0 -0.15049900295E+02  0.16656302850E+01  0.27767212596E+02  0.31627391906E+02  0.51100000000E-03 0.  1.
<mgrwt>
<rscale>  0 0.35790188E+02</rscale>
<asrwt>0</asrwt>
<pdfrwt beam="1">  1        4 0.59607858E-02 0.35790188E+02</pdfrwt>
<pdfrwt beam="2">  1       -4 0.12715626E-02 0.35790188E+02</pdfrwt>
<totfact> 0.32623929E+05</totfact>
</mgrwt>
</event>
<event>
 4    1  0.5401488E-001  0.2376347E+02  0.7818608E-02  0.1679425E+00
          4   -1    0    0  501    0  0.00000000000E+00  0.00000000000E+00  0.11152826210E+02  0.11242861400E+02  0.14200000000E+01 0.  1.
         -4   -1    0    0    0  501 -0.00000000000E+00 -0.00000000000E+00 -0.12476920581E+02  0.12557465795E+02  0.14200000000E+01 0. -1.
        -11    1    1    2    0    0  0.49097874478E+01 -0.10094826118E+02 -0.45621932701E+01  0.12117142189E+02  0.51100000000E-03 0. -1.
         11    1    1    2    0    0 -0.49097874478E+01  0.10094826118E+02  0.32380988984E+01  0.11683185006E+02  0.51100000000E-03 0.  1.
<mgrwt>
<rscale>  0 0.23763467E+02</rscale>
<asrwt>0</asrwt>
<pdfrwt beam="1">  1        4 0.17289410E-02 0.23763467E+02</pdfrwt>
<pdfrwt beam="2">  1       -4 0.19326478E-02 0.23763467E+02</pdfrwt>
<totfact> 0.89163798E+05</totfact>
</mgrwt>
</event>
<event>
 4    1  0.5401488E-001  0.6288597E+02  0.7818608E-02  0.1386105E+00
          4   -1    0    0  501    0  0.00000000000E+00  0.00000000000E+00  0.60261351319E+02  0.60278079455E+02  0.14200000000E+01 0.  1.
         -4   -1    0    0    0  501 -0.00000000000E+00 -0.00000000000E+00 -0.16356455910E+02  0.16417979471E+02  0.14200000000E+01 0. -1.
        -11    1    1    2    0    0  0.19601825403E+02  0.16909650875E+02  0.43717994607E+02  0.50807783897E+02  0.51100000000E-03 0.  1.
         11    1    1    2    0    0 -0.19601825403E+02 -0.16909650875E+02  0.18690080231E+00  0.25888275029E+02  0.51100000000E-03 0. -1.
<mgrwt>
<rscale>  0 0.62885973E+02</rscale>
<asrwt>0</asrwt>
<pdfrwt beam="1">  1        4 0.92769967E-02 0.62885973E+02</pdfrwt>
<pdfrwt beam="2">  1       -4 0.25223971E-02 0.62885973E+02</pdfrwt>
<totfact> 0.74790650E+04</totfact>
</mgrwt>
</event>
<event>
 4    1  0.5401488E-001  0.3210657E+02  0.7818608E-02  0.1575906E+00
         -4   -1    0    0    0  501 -0.00000000000E+00  0.00000000000E+00  0.35437034247E+01  0.38176215059E+01  0.14200000000E+01 0. -1.
          4   -1    0    0  501    0  0.00000000000E+00 -0.00000000000E+00 -0.69735320178E+02  0.69749776203E+02  0.14200000000E+01 0.  1.
        -11    1    1    2    0    0 -0.57559065319E+01  0.10698173752E+02 -0.57141516148E+02  0.58418612185E+02  0.51100000000E-03 0.  1.
         11    1    1    2    0    0  0.57559065319E+01 -0.10698173752E+02 -0.90501006060E+01  0.15148785525E+02  0.51100000000E-03 0. -1.
<mgrwt>
<rscale>  0 0.32106571E+02</rscale>
<asrwt>0</asrwt>
<pdfrwt beam="2">  1        4 0.10750692E-01 0.32106571E+02</pdfrwt>
<pdfrwt beam="1">  1       -4 0.56736782E-03 0.32106571E+02</pdfrwt>
<totfact> 0.38498129E+05</totfact>
</mgrwt>
</event>
<event>
 4    1  0.5401488E-001  0.2583548E+02  0.7818608E-02  0.1649284E+00
          4   -1    0    0  501    0  0.00000000000E+00  0.00000000000E+00  0.14670316089E+01  0.20417104940E+01  0.14200000000E+01 0. -1.
         -4   -1    0    0    0  501 -0.00000000000E+00 -0.00000000000E+00 -0.94534679518E+02  0.94545343786E+02  0.14200000000E+01 0.  1.
        -11    1    1    2    0    0  0.66274096910E+01  0.11084047879E+02 -0.45416537825E+02  0.47216952304E+02  0.51100000000E-03 0. -1.
         11    1    1    2    0    0 -0.66274096910E+01 -0.11084047879E+02 -0.47651110084E+02  0.49370101976E+02  0.51100000000E-03 0.  1.
<mgrwt>
<rscale>  0 0.25835479E+02</rscale>
<asrwt>0</asrwt>
<pdfrwt beam="1">  1        4 0.27072364E-03 0.25835479E+02</pdfrwt>
<pdfrwt beam="2">  1       -4 0.14588819E-01 0.25835479E+02</pdfrwt>
<totfact> 0.58178791E+05</totfact>
</mgrwt>
</event>
<event>
 4    1  0.5401488E-001  0.2456595E+02  0.7818608E-02  0.1667316E+00
          4   -1    0    0  501    0  0.00000000000E+00  0.00000000000E+00  0.74978698467E+01  0.76311501255E+01  0.14200000000E+01 0.  1.
         -4   -1    0    0    0  501 -0.00000000000E+00 -0.00000000000E+00 -0.19785694033E+02  0.19836584594E+02  0.14200000000E+01 0. -1.
        -11    1    1    2    0    0  0.45924642663E+00 -0.12218106339E+02 -0.48311647143E+01  0.13146603461E+02  0.51100000000E-03 0.  1.
         11    1    1    2    0    0 -0.45924642663E+00  0.12218106339E+02 -0.74566594720E+01  0.14321131259E+02  0.51100000000E-03 0. -1.
<mgrwt>
<rscale>  0 0.24565949E+02</rscale>
<asrwt>0</asrwt>
<pdfrwt beam="1">  1        4 0.11676854E-02 0.24565949E+02</pdfrwt>
<pdfrwt beam="2">  1       -4 0.30581199E-02 0.24565949E+02</pdfrwt>
<totfact> 0.81762421E+05</totfact>
</mgrwt>
</event>
<event>
 4    1  0.5401488E-001  0.3018636E+02  0.7818608E-02  0.1596038E+00
          4   -1    0    0  501    0  0.00000000000E+00  0.00000000000E+00  0.60756804246E+02  0.60773396007E+02  0.14200000000E+01 0. -1.
         -4   -1    0    0    0  501 -0.00000000000E+00 -0.00000000000E+00 -0.35972556441E+01  0.38673825993E+01  0.14200000000E+01 0.  1.
        -11    1    1    2    0    0  0.11656498827E+02  0.75116957036E+01  0.15820154899E+02  0.21037510274E+02  0.51100000000E-03 0. -1.
         11    1    1    2    0    0 -0.11656498827E+02 -0.75116957036E+01  0.41339393703E+02  0.43603268332E+02  0.51100000000E-03 0.  1.
<mgrwt>
<rscale>  0 0.30186359E+02</rscale>
<asrwt>0</asrwt>
<pdfrwt beam="1">  1        4 0.93692549E-02 0.30186359E+02</pdfrwt>
<pdfrwt beam="2">  1       -4 0.57547930E-03 0.30186359E+02</pdfrwt>
<totfact> 0.45492614E+05</totfact>
</mgrwt>
</event>
<event>
 4    1  0.5401488E-001  0.2519089E+02  0.7818608E-02  0.1658275E+00
          4   -1    0    0  501    0  0.00000000000E+00  0.00000000000E+00  0.15483904670E+02  0.15548881111E+02  0.14200000000E+01 0. -1.
         -4   -1    0    0    0  501 -0.00000000000E+00 -0.00000000000E+00 -0.10109661279E+02  0.10208900586E+02  0.14200000000E+01 0.  1.
        -11    1    1    2    0    0 -0.22369693583E+01 -0.10138408198E+02  0.99787902468E+01  0.14400264156E+02  0.51100000000E-03 0. -1.
         11    1    1    2    0    0  0.22369693583E+01  0.10138408198E+02 -0.46045468567E+01  0.11357517542E+02  0.51100000000E-03 0.  1.
<mgrwt>
<rscale>  0 0.25190888E+02</rscale>
<asrwt>0</asrwt>
<pdfrwt beam="1">  1        4 0.23947711E-02 0.25190888E+02</pdfrwt>
<pdfrwt beam="2">  1       -4 0.15679645E-02 0.25190888E+02</pdfrwt>
<totfact> 0.77969995E+05</totfact>
</mgrwt>
</event>
<event>
 4    1  0.5401488E-001  0.2591032E+02  0.7818608E-02  0.1648261E+00
         -4   -1    0    0    0  501 -0.00000000000E+00  0.00000000000E+00  0.51942380804E+02  0.51961787148E+02  0.14200000000E+01 0.  1.
          4   -1    0    0  501    0  0.00000000000E+00 -0.00000000000E+00 -0.30541762158E+01  0.33681437554E+01  0.14200000000E+01 0. -1.
        -11    1    1    2    0    0 -0.27879755361E+01 -0.10946042697E+02  0.10896672950E+02  0.15694780660E+02  0.51100000000E-03 0. -1.
         11    1    1    2    0    0  0.27879755361E+01  0.10946042697E+02  0.37991531638E+02  0.39635150243E+02  0.51100000000E-03 0.  1.
<mgrwt>
<rscale>  0 0.25910320E+02</rscale>
<asrwt>0</asrwt>
<pdfrwt beam="2">  1        4 0.49551741E-03 0.25910320E+02</pdfrwt>
<pdfrwt beam="1">  1       -4 0.80167796E-02 0.25910320E+02</pdfrwt>
<totfact> 0.65690203E+05</totfact>
</mgrwt>
</event>
<event>
 4    1  0.5401488E-001  0.3055042E+02  0.7818608E-02  0.1592083E+00
          4   -1    0    0  501    0  0.00000000000E+00  0.00000000000E+00  0.37025305513E+02  0.37052525532E+02  0.14200000000E+01 0.  1.
         -4   -1    0    0    0  501 -0.00000000000E+00 -0.00000000000E+00 -0.61920265336E+01  0.63527625953E+01  0.14200000000E+01 0. -1.
        -11    1    1    2    0    0  0.41529758266E+01  0.13261222815E+02  0.64056564876E+01  0.15301623249E+02  0.51100000000E-03 0. -1.
         11    1    1    2    0    0 -0.41529758266E+01 -0.13261222815E+02  0.24427622492E+02  0.28103664879E+02  0.51100000000E-03 0.  1.
<mgrwt>
<rscale>  0 0.30550416E+02</rscale>
<asrwt>0</asrwt>
<pdfrwt beam="1">  1        4 0.57106590E-02 0.30550416E+02</pdfrwt>
<pdfrwt beam="2">  1       -4 0.96707763E-03 0.30550416E+02</pdfrwt>
<totfact> 0.47526647E+05</totfact>
</mgrwt>
</event>
<event>
 4    1  0.5401488E-001  0.3986354E+02  0.7818608E-02  0.1509218E+00
         -4   -1    0    0    0  501 -0.00000000000E+00  0.00000000000E+00  0.54299147071E+01  0.56125193742E+01  0.14200000000E+01 0. -1.
          4   -1    0    0  501    0  0.00000000000E+00 -0.00000000000E+00 -0.71764577224E+02  0.71778624563E+02  0.14200000000E+01 0.  1.
        -11    1    1    2    0    0 -0.68358776970E+01  0.15755054812E+02 -0.13528975187E+02  0.21862848531E+02  0.51100000000E-03 0. -1.
         11    1    1    2    0    0  0.68358776970E+01 -0.15755054812E+02 -0.52805687330E+02  0.55528295406E+02  0.51100000000E-03 0.  1.
<mgrwt>
<rscale>  0 0.39863539E+02</rscale>
<asrwt>0</asrwt>
<pdfrwt beam="2">  1        4 0.11055831E-01 0.39863539E+02</pdfrwt>
<pdfrwt beam="1">  1       -4 0.85049862E-03 0.39863539E+02</pdfrwt>
<totfact> 0.23032985E+05</totfact>
</mgrwt>
</event>
<event>
 4    1  0.5401488E-001  0.2707507E+02  0.7818608E-02  0.1632869E+00
          4   -1    0    0  501    0  0.00000000000E+00  0.00000000000E+00  0.28442430709E+01  0.31790122124E+01  0.14200000000E+01 0. -1.
         -4   -1    0    0    0  501 -0.00000000000E+00 -0.00000000000E+00 -0.60508874727E+02  0.60525534453E+02  0.14200000000E+01 0.  1.
        -11    1    1    2    0    0  0.11595414704E+02 -0.65311800655E+01 -0.34669618215E+02  0.37136133113E+02  0.51100000000E-03 0.  1.
         11    1    1    2    0    0 -0.11595414704E+02  0.65311800655E+01 -0.22995013442E+02  0.26568413552E+02  0.51100000000E-03 0. -1.
<mgrwt>
<rscale>  0 0.27075072E+02</rscale>
<asrwt>0</asrwt>
<pdfrwt beam="1">  1        4 0.46460889E-03 0.27075072E+02</pdfrwt>
<pdfrwt beam="2">  1       -4 0.93360897E-02 0.27075072E+02</pdfrwt>
<totfact> 0.58057190E+05</totfact>
</mgrwt>
</event>
<event>
 4    1  0.5401488E-001  0.6149528E+02  0.7818608E-02  0.1391662E+00
          4   -1    0    0  501    0  0.00000000000E+00  0.00000000000E+00  0.17101618580E+03  0.17102208104E+03  0.14200000000E+01 0. -1.
         -4   -1    0    0    0  501 -0.00000000000E+00 -0.00000000000E+00 -0.54309553003E+01  0.56135261177E+01  0.14200000000E+01 0.  1.
        -11    1    1    2    0    0  0.20362473399E+02  0.11488314674E+02  0.14015366749E+03  0.14209033116E+03  0.51100000000E-03 0. -1.
         11    1    1    2    0    0 -0.20362473399E+02 -0.11488314674E+02  0.25431563003E+02  0.34545276001E+02  0.51100000000E-03 0.  1.
<mgrwt>
<rscale>  0 0.61495278E+02</rscale>
<asrwt>0</asrwt>
<pdfrwt beam="1">  1        4 0.26324674E-01 0.61495278E+02</pdfrwt>
<pdfrwt beam="2">  1       -4 0.85002916E-03 0.61495278E+02</pdfrwt>
<totfact> 0.62509386E+04</totfact>
</mgrwt>
</event>
<event>
 4    1  0.5401488E-001  0.3956431E+02  0.7818608E-02  0.1511442E+00
          4   -1    0    0  501    0  0.00000000000E+00  0.00000000000E+00  0.19439365372E+02  0.19491160203E+02  0.14200000000E+01 0. -1.
         -4   -1    0    0    0  501 -0.00000000000E+00 -0.00000000000E+00 -0.20027243766E+02  0.20077522080E+02  0.14200000000E+01 0.  1.
        -11    1    1    2    0    0 -0.16357400643E+02  0.76106136357E+00 -0.11394262709E+02  0.19949260466E+02  0.51100000000E-03 0.  1.
         11    1    1    2    0    0  0.16357400643E+02 -0.76106136357E+00  0.10806384315E+02  0.19619421817E+02  0.51100000000E-03 0. -1.
<mgrwt>
<rscale>  0 0.39564315E+02</rscale>
<asrwt>0</asrwt>
<pdfrwt beam="1">  1        4 0.29985234E-02 0.39564315E+02</pdfrwt>
<pdfrwt beam="2">  1       -4 0.30889662E-02 0.39564315E+02</pdfrwt>
<totfact> 0.26394140E+05</totfact>
</mgrwt>
</event>
<event>
 4    1  0.5401488E-001  0.3091749E+02  0.7818608E-02  0.1588163E+00
         -4   -1    0    0    0  501 -0.00000000000E+00  0.00000000000E+00  0.19335434748E+02  0.19387507238E+02  0.14200000000E+01 0.  1.
          4   -1    0    0  501    0  0.00000000000E+00 -0.00000000000E+00 -0.12249558358E+02  0.12331588704E+02  0.14200000000E+01 0. -1.
        -11    1    1    2    0    0  0.12654834792E+02 -0.88731173117E+01  0.38604723106E+01  0.15930483394E+02  0.51100000000E-03 0. -1.
         11    1    1    2    0    0 -0.12654834792E+02  0.88731173117E+01  0.32254040800E+01  0.15788612548E+02  0.51100000000E-03 0.  1.
<mgrwt>
<rscale>  0 0.30917493E+02</rscale>
<asrwt>0</asrwt>
<pdfrwt beam="2">  1        4 0.18948630E-02 0.30917493E+02</pdfrwt>
<pdfrwt beam="1">  1       -4 0.29849979E-02 0.30917493E+02</pdfrwt>
<totfact> 0.48270999E+05</totfact>
</mgrwt>
</event>
<event>
 4    1  0.5401488E-001  0.2232486E+02  0.7818608E-02  0.1702693E+00
          4   -1    0    0  501    0  0.00000000000E+00  0.00000000000E+00  0.42182109810E+01  0.44508093511E+01  0.14200000000E+01 0.  1.
         -4   -1    0    0    0  501 -0.00000000000E+00 -0.00000000000E+00 -0.28495258666E+02  0.28530618052E+02  0.14200000000E+01 0. -1.
        -11    1    1    2    0    0 -0.10510811571E+02  0.26561252539E+01 -0.16066059928E+02  0.19381703824E+02  0.51100000000E-03 0. -1.
         11    1    1    2    0    0  0.10510811571E+02 -0.26561252539E+01 -0.82109877569E+01  0.13599723580E+02  0.51100000000E-03 0.  1.
<mgrwt>
<rscale>  0 0.22324863E+02</rscale>
<asrwt>0</asrwt>
<pdfrwt beam="1">  1        4 0.66956769E-03 0.22324863E+02</pdfrwt>
<pdfrwt beam="2">  1       -4 0.44044980E-02 0.22324863E+02</pdfrwt>
<totfact> 0.97992632E+05</totfact>
</mgrwt>
</event>
<event>
 4    1  0.5401488E-001  0.5652898E+02  0.7818608E-02  0.1413004E+00
         -4   -1    0    0    0  501 -0.00000000000E+00  0.00000000000E+00  0.48956106298E+02  0.48976695927E+02  0.14200000000E+01 0. -1.
          4   -1    0    0  501    0  0.00000000000E+00 -0.00000000000E+00 -0.16263353606E+02  0.16325228038E+02  0.14200000000E+01 0.  1.
        -11    1    1    2    0    0  0.20756505969E+01  0.27496486128E+02  0.23515675524E+02  0.36240199646E+02  0.51100000000E-03 0. -1.
         11    1    1    2    0    0 -0.20756505969E+01 -0.27496486128E+02  0.91770771684E+01  0.29061724319E+02  0.51100000000E-03 0.  1.
<mgrwt>
<rscale>  0 0.56528977E+02</rscale>
<asrwt>0</asrwt>
<pdfrwt beam="2">  1        4 0.25083978E-02 0.56528977E+02</pdfrwt>
<pdfrwt beam="1">  1       -4 0.75380520E-02 0.56528977E+02</pdfrwt>
<totfact> 0.10125371E+05</totfact>
</mgrwt>
</event>
<event>
 4    1  0.5401488E-001  0.3165735E+02  0.7818608E-02  0.1580460E+00
          4   -1    0    0  501    0  0.00000000000E+00  0.00000000000E+00  0.49323548451E+02  0.49343984758E+02  0.14200000000E+01 0.  1.
         -4   -1    0    0    0  501 -0.00000000000E+00 -0.00000000000E+00 -0.49584915354E+01  0.51578133261E+01  0.14200000000E+01 0. -1.
        -11    1    1    2    0    0 -0.54396008688E+01 -0.11582614491E+02  0.38222291189E+02  0.40307440505E+02  0.51100000000E-03 0.  1.
         11    1    1    2    0    0  0.54396008688E+01  0.11582614491E+02  0.61427657266E+01  0.14194357579E+02  0.51100000000E-03 0. -1.
<mgrwt>
<rscale>  0 0.31657349E+02</rscale>
<asrwt>0</asrwt>
<pdfrwt beam="1">  1        4 0.76051428E-02 0.31657349E+02</pdfrwt>
<pdfrwt beam="2">  1       -4 0.77974931E-03 0.31657349E+02</pdfrwt>
<totfact> 0.42211704E+05</totfact>
</mgrwt>
</event>
<event>
 4    1  0.5401488E-001  0.2923368E+02  0.7818608E-02  0.1606717E+00
         -4   -1    0    0    0  501 -0.00000000000E+00  0.00000000000E+00  0.57979324089E+02  0.57996710440E+02  0.14200000000E+01 0. -1.
          4   -1    0    0  501    0  0.00000000000E+00 -0.00000000000E+00 -0.35295397272E+01  0.38044777152E+01  0.14200000000E+01 0.  1.
        -11    1    1    2    0    0  0.14185653274E+02  0.34224868963E+01  0.29000918654E+02  0.32465357820E+02  0.51100000000E-03 0.  1.
         11    1    1    2    0    0 -0.14185653274E+02 -0.34224868963E+01  0.25448865708E+02  0.29335830335E+02  0.51100000000E-03 0. -1.
<mgrwt>
<rscale>  0 0.29233676E+02</rscale>
<asrwt>0</asrwt>
<pdfrwt beam="2">  1        4 0.56549260E-03 0.29233676E+02</pdfrwt>
<pdfrwt beam="1">  1       -4 0.89423825E-02 0.29233676E+02</pdfrwt>
<totfact> 0.49324177E+05</totfact>
</mgrwt>
</event>
<event>
 4    1  0.5401488E-001  0.2851751E+02  0.7818608E-02  0.1615078E+00
          4   -1    0    0  501    0  0.00000000000E+00  0.00000000000E+00  0.92753228337E+01  0.93833903078E+01  0.14200000000E+01 0.  1.
         -4   -1    0    0    0  501 -0.00000000000E+00 -0.00000000000E+00 -0.21661271964E+02  0.21707765963E+02  0.14200000000E+01 0. -1.
        -11    1    1    2    0    0  0.11389732936E+02 -0.43738662386E+01  0.18523867133E+01  0.12340504813E+02  0.51100000000E-03 0.  1.
         11    1    1    2    0    0 -0.11389732936E+02  0.43738662386E+01 -0.14238335843E+02  0.18750651458E+02  0.51100000000E-03 0. -1.
<mgrwt>
<rscale>  0 0.28517508E+02</rscale>
<asrwt>0</asrwt>
<pdfrwt beam="1">  1        4 0.14388621E-02 0.28517508E+02</pdfrwt>
<pdfrwt beam="2">  1       -4 0.33443927E-02 0.28517508E+02</pdfrwt>
<totfact> 0.58063578E+05</totfact>
</mgrwt>
</event>
<event>
 4    1  0.5401488E-001  0.4984960E+02  0.7818608E-02  0.1446154E+00
          4   -1    0    0  501    0  0.00000000000E+00  0.00000000000E+00  0.70501450327E+01  0.71917275380E+01  0.14200000000E+01 0. -1.
         -4   -1    0    0    0  501 -0.00000000000E+00 -0.00000000000E+00 -0.87094716012E+02  0.87106291146E+02  0.14200000000E+01 0.  1.
        -11    1    1    2    0    0  0.48069620320E+01  0.24456831024E+02 -0.40112573443E+02  0.47225649982E+02  0.51100000000E-03 0. -1.
         11    1    1    2    0    0 -0.48069620320E+01 -0.24456831024E+02 -0.39931997537E+02  0.47072368702E+02  0.51100000000E-03 0.  1.
<mgrwt>
<rscale>  0 0.49849604E+02</rscale>
<asrwt>0</asrwt>
<pdfrwt beam="1">  1        4 0.10964191E-02 0.49849604E+02</pdfrwt>
<pdfrwt beam="2">  1       -4 0.13410968E-01 0.49849604E+02</pdfrwt>
<totfact> 0.12805629E+05</totfact>
</mgrwt>
</event>
<event>
 4    1  0.5401488E-001  0.2397010E+02  0.7818608E-02  0.1676251E+00
         -4   -1    0    0    0  501 -0.00000000000E+00  0.00000000000E+00  0.29297141151E+01  0.32557064973E+01  0.14200000000E+01 0.  1.
          4   -1    0    0  501    0  0.00000000000E+00 -0.00000000000E+00 -0.46107642229E+02  0.46129503270E+02  0.14200000000E+01 0. -1.
        -11    1    1    2    0    0 -0.79247891778E+01 -0.82125350822E+01 -0.14048956835E+02  0.18100309511E+02  0.51100000000E-03 0.  1.
         11    1    1    2    0    0  0.79247891778E+01  0.82125350822E+01 -0.29128971279E+02  0.31284900256E+02  0.51100000000E-03 0. -1.
<mgrwt>
<rscale>  0 0.23970095E+02</rscale>
<asrwt>0</asrwt>
<pdfrwt beam="2">  1        4 0.71202409E-02 0.23970095E+02</pdfrwt>
<pdfrwt beam="1">  1       -4 0.47748324E-03 0.23970095E+02</pdfrwt>
<totfact> 0.79277702E+05</totfact>
</mgrwt>
</event>
<event>
 4    1  0.5401488E-001  0.2912685E+02  0.7818608E-02  0.1607946E+00
         -4   -1    0    0    0  501 -0.00000000000E+00  0.00000000000E+00  0.37493126389E+02  0.37520007015E+02  0.14200000000E+01 0. -1.
          4   -1    0    0  501    0  0.00000000000E+00 -0.00000000000E+00 -0.55383484209E+01  0.57174909909E+01  0.14200000000E+01 0.  1.
        -11    1    1    2    0    0 -0.80153985750E+01 -0.86237844092E+01  0.32528232055E+01  0.12214627744E+02  0.51100000000E-03 0.  1.
         11    1    1    2    0    0  0.80153985750E+01  0.86237844092E+01  0.28701954763E+02  0.31022870263E+02  0.51100000000E-03 0. -1.
<mgrwt>
<rscale>  0 0.29126850E+02</rscale>
<asrwt>0</asrwt>
<pdfrwt beam="2">  1        4 0.86790156E-03 0.29126850E+02</pdfrwt>
<pdfrwt beam="1">  1       -4 0.57840211E-02 0.29126850E+02</pdfrwt>
<totfact> 0.52949328E+05</totfact>
</mgrwt>
</event>
<event>
 4    1  0.5401488E-001  0.4419546E+02  0.7818608E-02  0.1479428E+00
         -4   -1    0    0    0  501 -0.00000000000E+00  0.00000000000E+00  0.46545303755E+01  0.48663182198E+01  0.14200000000E+01 0.  1.
          4   -1    0    0  501    0  0.00000000000E+00 -0.00000000000E+00 -0.10236007755E+03  0.10236992662E+03  0.14200000000E+01 0. -1.
        -11    1    1    2    0    0 -0.17203391717E+02  0.71173176075E+01 -0.77735873679E+02  0.79934216412E+02  0.51100000000E-03 0. -1.
         11    1    1    2    0    0  0.17203391717E+02 -0.71173176075E+01 -0.19969673498E+02  0.27302028429E+02  0.51100000000E-03 0.  1.
<mgrwt>
<rscale>  0 0.44195455E+02</rscale>
<asrwt>0</asrwt>
<pdfrwt beam="2">  1        4 0.15764752E-01 0.44195455E+02</pdfrwt>
<pdfrwt beam="1">  1       -4 0.73313067E-03 0.44195455E+02</pdfrwt>
<totfact> 0.16599635E+05</totfact>
</mgrwt>
</event>
<event>
 4    1  0.5401488E-001  0.3708957E+02  0.7818608E-02  0.1530791E+00
         -4   -1    0    0    0  501 -0.00000000000E+00  0.00000000000E+00  0.22817453519E+01  0.26875196466E+01  0.14200000000E+01 0.  1.
          4   -1    0    0  501    0  0.00000000000E+00 -0.00000000000E+00 -0.13800473443E+03  0.13801203978E+03  0.14200000000E+01 0. -1.
        -11    1    1    2    0    0  0.17495486553E+02  0.22694751205E+01 -0.89543138894E+02  0.91264540158E+02  0.51100000000E-03 0. -1.
         11    1    1    2    0    0 -0.17495486553E+02 -0.22694751205E+01 -0.46179850181E+02  0.49435019268E+02  0.51100000000E-03 0.  1.
<mgrwt>
<rscale>  0 0.37089571E+02</rscale>
<asrwt>0</asrwt>
<pdfrwt beam="2">  1        4 0.21263267E-01 0.37089571E+02</pdfrwt>
<pdfrwt beam="1">  1       -4 0.38281321E-03 0.37089571E+02</pdfrwt>
<totfact> 0.23105477E+05</totfact>
</mgrwt>
</event>
<event>
 4    1  0.5401488E-001  0.2811814E+02  0.7818608E-02  0.1619873E+00
          4   -1    0    0  501    0  0.00000000000E+00  0.00000000000E+00  0.18036311192E+02  0.18092123187E+02  0.14200000000E+01 0.  1.
         -4   -1    0    0    0  501 -0.00000000000E+00 -0.00000000000E+00 -0.10839739029E+02  0.10932353005E+02  0.14200000000E+01 0. -1.
        -11    1    1    2    0    0  0.10566519023E+02 -0.77101527033E+01 -0.17214334140E+01  0.13193222208E+02  0.51100000000E-03 0.  1.
         11    1    1    2    0    0 -0.10566519023E+02  0.77101527033E+01  0.89180055769E+01  0.15831253984E+02  0.51100000000E-03 0. -1.
<mgrwt>
<rscale>  0 0.28118136E+02</rscale>
<asrwt>0</asrwt>
<pdfrwt beam="1">  1        4 0.27862344E-02 0.28118136E+02</pdfrwt>
<pdfrwt beam="2">  1       -4 0.16790696E-02 0.28118136E+02</pdfrwt>
<totfact> 0.60403180E+05</totfact>
</mgrwt>
</event>
<event>
 4    1  0.5401488E-001  0.2402211E+02  0.7818608E-02  0.1675458E+00
          4   -1    0    0  501    0  0.00000000000E+00  0.00000000000E+00  0.27168975681E+01  0.30656047357E+01  0.14200000000E+01 0. -1.
         -4   -1    0    0    0  501 -0.00000000000E+00 -0.00000000000E+00 -0.49537738971E+02  0.49558086952E+02  0.14200000000E+01 0. -1.
        -11    1    1    2    0    0  0.97810051514E+01 -0.35784523626E+01 -0.36516218548E+02  0.37972458445E+02  0.51100000000E-03 0.  1.
         11    1    1    2    0    0 -0.97810051514E+01  0.35784523626E+01 -0.10304622855E+02  0.14651233243E+02  0.51100000000E-03 0. -1.
<mgrwt>
<rscale>  0 0.24022109E+02</rscale>
<asrwt>0</asrwt>
<pdfrwt beam="1">  1        4 0.44637313E-03 0.24022109E+02</pdfrwt>
<pdfrwt beam="2">  1       -4 0.76495789E-02 0.24022109E+02</pdfrwt>
<totfact> 0.78019476E+05</totfact>
</mgrwt>
</event>
<event>
 4    1  0.5401488E-001  0.2293150E+02  0.7818608E-02  0.1692623E+00
         -4   -1    0    0    0  501 -0.00000000000E+00  0.00000000000E+00  0.17934095206E+01  0.22875134335E+01  0.14200000000E+01 0. -1.
          4   -1    0    0  501    0  0.00000000000E+00 -0.00000000000E+00 -0.63925320755E+02  0.63941090338E+02  0.14200000000E+01 0.  1.
        -11    1    1    2    0    0 -0.12144745413E+01  0.11170379937E+02 -0.37658848060E+02  0.39299378797E+02  0.51100000000E-03 0.  1.
         11    1    1    2    0    0  0.12144745413E+01 -0.11170379937E+02 -0.24473063174E+02  0.26929224975E+02  0.51100000000E-03 0. -1.
<mgrwt>
<rscale>  0 0.22931497E+02</rscale>
<asrwt>0</asrwt>
<pdfrwt beam="2">  1        4 0.98738842E-02 0.22931497E+02</pdfrwt>
<pdfrwt beam="1">  1       -4 0.31513025E-03 0.22931497E+02</pdfrwt>
<totfact> 0.82185281E+05</totfact>
</mgrwt>
</event>
<event>
 4    1  0.5401488E-001  0.4897407E+02  0.7818608E-02  0.1450955E+00
         -4   -1    0    0    0  501 -0.00000000000E+00  0.00000000000E+00  0.11029175760E+02  0.11120212136E+02  0.14200000000E+01 0. -1.
          4   -1    0    0  501    0  0.00000000000E+00 -0.00000000000E+00 -0.54042390998E+02  0.54061043504E+02  0.14200000000E+01 0.  1.
        -11    1    1    2    0    0 -0.19170442331E+02 -0.13307842643E+02 -0.31378004276E+02  0.39104778322E+02  0.51100000000E-03 0.  1.
         11    1    1    2    0    0  0.19170442331E+02  0.13307842643E+02 -0.11635210962E+02  0.26076477319E+02  0.51100000000E-03 0. -1.
<mgrwt>
<rscale>  0 0.48974069E+02</rscale>
<asrwt>0</asrwt>
<pdfrwt beam="2">  1        4 0.83226515E-02 0.48974069E+02</pdfrwt>
<pdfrwt beam="1">  1       -4 0.17052339E-02 0.48974069E+02</pdfrwt>
<totfact> 0.14499765E+05</totfact>
</mgrwt>
</event>
<event>
 4    1  0.5401488E-001  0.2868462E+02  0.7818608E-02  0.1613101E+00
         -4   -1    0    0    0  501 -0.00000000000E+00  0.00000000000E+00  0.96919443512E+02  0.96929845408E+02  0.14200000000E+01 0. -1.
          4   -1    0    0  501    0  0.00000000000E+00 -0.00000000000E+00 -0.18731738626E+01  0.23505702115E+01  0.14200000000E+01 0.  1.
        -11    1    1    2    0    0 -0.79226155160E+01  0.99799444362E+01  0.24738994334E+02  0.27827773329E+02  0.51100000000E-03 0.  1.
         11    1    1    2    0    0  0.79226155160E+01 -0.99799444362E+01  0.70307275316E+02  0.71452642290E+02  0.51100000000E-03 0. -1.
<mgrwt>
<rscale>  0 0.28684622E+02</rscale>
<asrwt>0</asrwt>
<pdfrwt beam="2">  1        4 0.32570353E-03 0.28684622E+02</pdfrwt>
<pdfrwt beam="1">  1       -4 0.14948207E-01 0.28684622E+02</pdfrwt>
<totfact> 0.45986247E+05</totfact>
</mgrwt>
</event>
<event>
 4    1  0.5401488E-001  0.2751558E+02  0.7818608E-02  0.1627294E+00
         -4   -1    0    0    0  501 -0.00000000000E+00  0.00000000000E+00  0.43190978930E+02  0.43214315463E+02  0.14200000000E+01 0. -1.
          4   -1    0    0  501    0  0.00000000000E+00 -0.00000000000E+00 -0.42420930250E+01  0.44734498134E+01  0.14200000000E+01 0.  1.
        -11    1    1    2    0    0  0.23851340653E+01  0.13541957288E+02  0.20255960266E+02  0.24482185324E+02  0.51100000000E-03 0.  1.
         11    1    1    2    0    0 -0.23851340653E+01 -0.13541957288E+02  0.18692925639E+02  0.23205579952E+02  0.51100000000E-03 0. -1.
<mgrwt>
<rscale>  0 0.27515582E+02</rscale>
<asrwt>0</asrwt>
<pdfrwt beam="2">  1        4 0.67222147E-03 0.27515582E+02</pdfrwt>
<pdfrwt beam="1">  1       -4 0.66643580E-02 0.27515582E+02</pdfrwt>
<totfact> 0.59135220E+05</totfact>
</mgrwt>
</event>
<event>
 4    1  0.5401488E-001  0.3046511E+02  0.7818608E-02  0.1593004E+00
          4   -1    0    0  501    0  0.00000000000E+00  0.00000000000E+00  0.24371481512E+02  0.24412814485E+02  0.14200000000E+01 0. -1.
         -4   -1    0    0    0  501 -0.00000000000E+00 -0.00000000000E+00 -0.94179160389E+01  0.95243657277E+01  0.14200000000E+01 0.  1.
        -11    1    1    2    0    0  0.92189410165E+01 -0.41464271794E+01  0.20170602761E+02  0.22561802850E+02  0.51100000000E-03 0. -1.
         11    1    1    2    0    0 -0.92189410165E+01  0.41464271794E+01 -0.52170372883E+01  0.11375377363E+02  0.51100000000E-03 0.  1.
<mgrwt>
<rscale>  0 0.30465113E+02</rscale>
<asrwt>0</asrwt>
<pdfrwt beam="1">  1        4 0.37608265E-02 0.30465113E+02</pdfrwt>
<pdfrwt beam="2">  1       -4 0.14602781E-02 0.30465113E+02</pdfrwt>
<totfact> 0.49501358E+05</totfact>
</mgrwt>
</event>
<event>
 4    1  0.5401488E-001  0.3923040E+02  0.7818608E-02  0.1513952E+00
          4   -1    0    0  501    0  0.00000000000E+00  0.00000000000E+00  0.67276355463E+01  0.68758621310E+01  0.14200000000E+01 0. -1.
         -4   -1    0    0    0  501 -0.00000000000E+00 -0.00000000000E+00 -0.56409982390E+02  0.56427852283E+02  0.14200000000E+01 0.  1.
        -11    1    1    2    0    0 -0.17584052145E+02 -0.57695746814E+01 -0.14350125852E+02  0.23418219276E+02  0.51100000000E-03 0. -1.
         11    1    1    2    0    0  0.17584052145E+02  0.57695746814E+01 -0.35332220992E+02  0.39885495137E+02  0.51100000000E-03 0.  1.
<mgrwt>
<rscale>  0 0.39230405E+02</rscale>
<asrwt>0</asrwt>
<pdfrwt beam="1">  1        4 0.10477975E-02 0.39230405E+02</pdfrwt>
<pdfrwt beam="2">  1       -4 0.86912352E-02 0.39230405E+02</pdfrwt>
<totfact> 0.24944666E+05</totfact>
</mgrwt>
</event>
<event>
 4    1  0.5401488E-001  0.3618681E+02  0.7818608E-02  0.1538307E+00
         -4   -1    0    0    0  501 -0.00000000000E+00  0.00000000000E+00  0.48973997000E+02  0.48994579110E+02  0.14200000000E+01 0. -1.
          4   -1    0    0  501    0  0.00000000000E+00 -0.00000000000E+00 -0.65869298560E+01  0.67382523645E+01  0.14200000000E+01 0.  1.
        -11    1    1    2    0    0 -0.60025023405E+01 -0.16457755934E+02  0.28164016615E+02  0.33167749349E+02  0.51100000000E-03 0.  1.
         11    1    1    2    0    0  0.60025023405E+01  0.16457755934E+02  0.14223050528E+02  0.22565082125E+02  0.51100000000E-03 0. -1.
<mgrwt>
<rscale>  0 0.36186808E+02</rscale>
<asrwt>0</asrwt>
<pdfrwt beam="2">  1        4 0.10265973E-02 0.36186808E+02</pdfrwt>
<pdfrwt beam="1">  1       -4 0.75476842E-02 0.36186808E+02</pdfrwt>
<totfact> 0.30895991E+05</totfact>
</mgrwt>
</event>
<event>
 4    1  0.5401488E-001  0.3240585E+02  0.7818608E-02  0.1572923E+00
         -4   -1    0    0    0  501 -0.00000000000E+00  0.00000000000E+00  0.57614361265E+02  0.57631857718E+02  0.14200000000E+01 0. -1.
          4   -1    0    0  501    0  0.00000000000E+00 -0.00000000000E+00 -0.44274841624E+01  0.46496253621E+01  0.14200000000E+01 0.  1.
        -11    1    1    2    0    0 -0.15890352587E+02 -0.86298504036E+00  0.20736540907E+02  0.26139092899E+02  0.51100000000E-03 0.  1.
         11    1    1    2    0    0  0.15890352587E+02  0.86298504036E+00  0.32450336196E+02  0.36142390181E+02  0.51100000000E-03 0. -1.
<mgrwt>
<rscale>  0 0.32405852E+02</rscale>
<asrwt>0</asrwt>
<pdfrwt beam="2">  1        4 0.69958511E-03 0.32405852E+02</pdfrwt>
<pdfrwt beam="1">  1       -4 0.88821811E-02 0.32405852E+02</pdfrwt>
<totfact> 0.39031863E+05</totfact>
</mgrwt>
</event>
<event>
 4    1  0.5401488E-001  0.2163756E+02  0.7818608E-02  0.1714597E+00
          4   -1    0    0  501    0  0.00000000000E+00  0.00000000000E+00  0.36759568646E+02  0.36786985294E+02  0.14200000000E+01 0.  1.
         -4   -1    0    0    0  501 -0.00000000000E+00 -0.00000000000E+00 -0.29956772006E+01  0.33151895708E+01  0.14200000000E+01 0. -1.
        -11    1    1    2    0    0 -0.10498865405E+02  0.20218963555E+01  0.13818697792E+02  0.17471996125E+02  0.51100000000E-03 0.  1.
         11    1    1    2    0    0  0.10498865405E+02 -0.20218963555E+01  0.19945193654E+02  0.22630178740E+02  0.51100000000E-03 0. -1.
<mgrwt>
<rscale>  0 0.21637561E+02</rscale>
<asrwt>0</asrwt>
<pdfrwt beam="1">  1        4 0.56820049E-02 0.21637561E+02</pdfrwt>
<pdfrwt beam="2">  1       -4 0.48756028E-03 0.21637561E+02</pdfrwt>
<totfact> 0.10172688E+06</totfact>
</mgrwt>
</event>
<event>
 4    1  0.5401488E-001  0.2727616E+02  0.7818608E-02  0.1630308E+00
          4   -1    0    0  501    0  0.00000000000E+00  0.00000000000E+00  0.78434817387E+02  0.78447670319E+02  0.14200000000E+01 0. -1.
         -4   -1    0    0    0  501 -0.00000000000E+00 -0.00000000000E+00 -0.21445400056E+01  0.25720520671E+01  0.14200000000E+01 0.  1.
        -11    1    1    2    0    0  0.59734944087E+01  0.10594251791E+02  0.19816269480E+02  0.23250921333E+02  0.51100000000E-03 0.  1.
         11    1    1    2    0    0 -0.59734944087E+01 -0.10594251791E+02  0.56474007901E+02  0.57768801053E+02  0.51100000000E-03 0. -1.
<mgrwt>
<rscale>  0 0.27276162E+02</rscale>
<asrwt>0</asrwt>
<pdfrwt beam="1">  1        4 0.12100769E-01 0.27276162E+02</pdfrwt>
<pdfrwt beam="2">  1       -4 0.36380346E-03 0.27276162E+02</pdfrwt>
<totfact> 0.54131455E+05</totfact>
</mgrwt>
</event>
<event>
 4    1  0.5401488E-001  0.2143045E+02  0.7818608E-02  0.1718292E+00
          4   -1    0    0  501    0  0.00000000000E+00  0.00000000000E+00  0.74625814248E+02  0.74639323096E+02  0.14200000000E+01 0.  1.
         -4   -1    0    0    0  501 -0.00000000000E+00 -0.00000000000E+00 -0.11942950028E+01  0.18554623558E+01  0.14200000000E+01 0. -1.
        -11    1    1    2    0    0 -0.10316289235E+01 -0.10651414243E+02  0.34763427956E+02  0.36373243011E+02  0.51100000000E-03 0.  1.
         11    1    1    2    0    0  0.10316289235E+01  0.10651414243E+02  0.38668091289E+02  0.40121542441E+02  0.51100000000E-03 0. -1.
<mgrwt>
<rscale>  0 0.21430450E+02</rscale>
<asrwt>0</asrwt>
<pdfrwt beam="1">  1        4 0.11532791E-01 0.21430450E+02</pdfrwt>
<pdfrwt beam="2">  1       -4 0.23563590E-03 0.21430450E+02</pdfrwt>
<totfact> 0.91494181E+05</totfact>
</mgrwt>
</event>
<event>
 4    1  0.5401488E-001  0.2378157E+02  0.7818608E-02  0.1679146E+00
          4   -1    0    0  501    0  0.00000000000E+00  0.00000000000E+00  0.88580723748E+01  0.89711674935E+01  0.14200000000E+01 0.  1.
         -4   -1    0    0    0  501 -0.00000000000E+00 -0.00000000000E+00 -0.15715244543E+02  0.15779268394E+02  0.14200000000E+01 0. -1.
        -11    1    1    2    0    0 -0.10086184589E+02  0.35074041567E+01  0.20149730126E+01  0.10867065841E+02  0.51100000000E-03 0.  1.
         11    1    1    2    0    0  0.10086184589E+02 -0.35074041567E+01 -0.88721451811E+01  0.13883370047E+02  0.51100000000E-03 0. -1.
<mgrwt>
<rscale>  0 0.23781574E+02</rscale>
<asrwt>0</asrwt>
<pdfrwt beam="1">  1        4 0.13764049E-02 0.23781574E+02</pdfrwt>
<pdfrwt beam="2">  1       -4 0.24313545E-02 0.23781574E+02</pdfrwt>
<totfact> 0.88660380E+05</totfact>
</mgrwt>
</event>
<event>
 4    1  0.5401488E-001  0.4498938E+02  0.7818608E-02  0.1474408E+00
          4   -1    0    0  501    0  0.00000000000E+00  0.00000000000E+00  0.41699342598E+02  0.41723513432E+02  0.14200000000E+01 0.  1.
         -4   -1    0    0    0  501 -0.00000000000E+00 -0.00000000000E+00 -0.12065414752E+02  0.12148688536E+02  0.14200000000E+01 0. -1.
        -11    1    1    2    0    0  0.89223014030E+01  0.17834001740E+02  0.23525104683E+01  0.20079675948E+02  0.51100000000E-03 0. -1.
         11    1    1    2    0    0 -0.89223014030E+01 -0.17834001740E+02  0.27281417378E+02  0.33792526020E+02  0.51100000000E-03 0.  1.
<mgrwt>
<rscale>  0 0.44989382E+02</rscale>
<asrwt>0</asrwt>
<pdfrwt beam="1">  1        4 0.64235486E-02 0.44989382E+02</pdfrwt>
<pdfrwt beam="2">  1       -4 0.18644826E-02 0.44989382E+02</pdfrwt>
<totfact> 0.18475413E+05</totfact>
</mgrwt>
</event>
