<event>
 4    1  0.4118611E+000  0.5219898E+02  0.7546771E-02  0.1433829E+00
          1   -1    0    0  501    0  0.00000000000E+00  0.00000000000E+00  0.10894761826E+03  0.10894761826E+03  0.00000000000E+00 0.  1.
         -1   -1    0    0    0  501 -0.00000000000E+00 -0.00000000000E+00 -0.62523946618E+01  0.62523946618E+01  0.00000000000E+00 0. -1.
        -11    1    1    2    0    0  0.21055330663E+02 -0.15389760280E+02  0.53567573787E+02  0.59578994890E+02  0.00000000000E+00 0.  1.
         11    1    1    2    0    0 -0.21055330663E+02  0.15389760280E+02  0.49127649808E+02  0.55621018028E+02  0.00000000000E+00 0. -1.
<mgrwt>
<rscale>  0 0.52198985E+02</rscale>
<asrwt>0</asrwt>
<pdfrwt beam="1">  1        1 0.16761171E-01 0.52198985E+02</pdfrwt>
<pdfrwt beam="2">  1       -1 0.96190695E-03 0.52198985E+02</pdfrwt>
<totfact> 0.45821269E+05</totfact>
</mgrwt>
</event>
<event>
 4    1  0.4118611E+000  0.2441355E+02  0.7546771E-02  0.1669571E+00
         -2   -1    0    0    0  501 -0.00000000000E+00  0.00000000000E+00  0.48115620869E+02  0.48115620869E+02  0.00000000000E+00 0.  1.
          2   -1    0    0  501    0  0.00000000000E+00 -0.00000000000E+00 -0.30968176786E+01  0.30968176786E+01  0.00000000000E+00 0. -1.
        -11    1    1    2    0    0  0.92853264281E+01  0.76863537317E+01  0.18470032257E+02  0.22055371503E+02  0.00000000000E+00 0. -1.
         11    1    1    2    0    0 -0.92853264281E+01 -0.76863537317E+01  0.26548770933E+02  0.29157067044E+02  0.00000000000E+00 0.  1.
<mgrwt>
<rscale>  0 0.24413546E+02</rscale>
<asrwt>0</asrwt>
<pdfrwt beam="2">  1        2 0.47643352E-03 0.24413546E+02</pdfrwt>
<pdfrwt beam="1">  1       -2 0.74024027E-02 0.24413546E+02</pdfrwt>
<totfact> 0.21897849E+06</totfact>
</mgrwt>
</event>
<event>
 4    1  0.4118611E+000  0.1079546E+03  0.7546771E-02  0.1264405E+00
          2   -1    0    0  501    0  0.00000000000E+00  0.00000000000E+00  0.31501438320E+02  0.31501438320E+02  0.00000000000E+00 0.  1.
         -2   -1    0    0    0  501 -0.00000000000E+00 -0.00000000000E+00 -0.92489433485E+02  0.92489433485E+02  0.00000000000E+00 0. -1.
        -11    1    1    2    0    0  0.56681935705E+01  0.45052022670E+02 -0.64013782881E+02  0.78482976267E+02  0.00000000000E+00 0. -1.
         11    1    1    2    0    0 -0.56681935705E+01 -0.45052022670E+02  0.30257877161E+01  0.45507895538E+02  0.00000000000E+00 0.  1.
<mgrwt>
<rscale>  0 0.10795462E+03</rscale>
<asrwt>0</asrwt>
<pdfrwt beam="1">  1        2 0.48463753E-02 0.10795462E+03</pdfrwt>
<pdfrwt beam="2">  1       -2 0.14229143E-01 0.10795462E+03</pdfrwt>
<totfact> 0.53800425E+04</totfact>
</mgrwt>
</event>
<event>
 4    1  0.4118611E+000  0.2232880E+02  0.7546771E-02  0.1702627E+00
          2   -1    0    0  501    0  0.00000000000E+00  0.00000000000E+00  0.24314978308E+01  0.24314978308E+01  0.00000000000E+00 0. -1.
         -2   -1    0    0    0  501 -0.00000000000E+00 -0.00000000000E+00 -0.51262144361E+02  0.51262144361E+02  0.00000000000E+00 0.  1.
        -11    1    1    2    0    0 -0.66738626584E+00  0.11009768158E+02 -0.20261836699E+02  0.23069512906E+02  0.00000000000E+00 0.  1.
         11    1    1    2    0    0  0.66738626584E+00 -0.11009768158E+02 -0.28568809831E+02  0.30624129285E+02  0.00000000000E+00 0. -1.
<mgrwt>
<rscale>  0 0.22328797E+02</rscale>
<asrwt>0</asrwt>
<pdfrwt beam="1">  1        2 0.37407657E-03 0.22328797E+02</pdfrwt>
<pdfrwt beam="2">  1       -2 0.78864842E-02 0.22328797E+02</pdfrwt>
<totfact> 0.26491670E+06</totfact>
</mgrwt>
</event>
<event>
 4    1  0.4118611E+000  0.2388539E+02  0.7546771E-02  0.1677547E+00
         -2   -1    0    0    0  501 -0.00000000000E+00  0.00000000000E+00  0.34460090827E+01  0.34460090827E+01  0.00000000000E+00 0. -1.
          2   -1    0    0  501    0  0.00000000000E+00 -0.00000000000E+00 -0.41389332703E+02  0.41389332703E+02  0.00000000000E+00 0.  1.
        -11    1    1    2    0    0 -0.18418863704E+01 -0.11339292228E+02 -0.25099165770E+02  0.27603264589E+02  0.00000000000E+00 0.  1.
         11    1    1    2    0    0  0.18418863704E+01  0.11339292228E+02 -0.12844157850E+02  0.17232077196E+02  0.00000000000E+00 0. -1.
<mgrwt>
<rscale>  0 0.23885394E+02</rscale>
<asrwt>0</asrwt>
<pdfrwt beam="2">  1        2 0.63675894E-02 0.23885394E+02</pdfrwt>
<pdfrwt beam="1">  1       -2 0.53015526E-03 0.23885394E+02</pdfrwt>
<totfact> 0.30145668E+06</totfact>
</mgrwt>
</event>
<event>
 4    1  0.4118611E+000  0.7041845E+02  0.7546771E-02  0.1358676E+00
          2   -1    0    0  501    0  0.00000000000E+00  0.00000000000E+00  0.66118596474E+02  0.66118596474E+02  0.00000000000E+00 0. -1.
         -2   -1    0    0    0  501 -0.00000000000E+00 -0.00000000000E+00 -0.18749482617E+02  0.18749482617E+02  0.00000000000E+00 0.  1.
        -13    1    1    2    0    0 -0.10419063528E+02 -0.65879359974E+01  0.63432879937E+02  0.64619563931E+02  0.00000000000E+00 0. -1.
         13    1    1    2    0    0  0.10419063528E+02  0.65879359974E+01 -0.16063766080E+02  0.20248515160E+02  0.00000000000E+00 0.  1.
<mgrwt>
<rscale>  0 0.70418449E+02</rscale>
<asrwt>0</asrwt>
<pdfrwt beam="1">  1        2 0.10172092E-01 0.70418449E+02</pdfrwt>
<pdfrwt beam="2">  1       -2 0.28845358E-02 0.70418449E+02</pdfrwt>
<totfact> 0.22129426E+05</totfact>
</mgrwt>
</event>
<event>
 4    1  0.4118611E+000  0.3832586E+02  0.7546771E-02  0.1520906E+00
          2   -1    0    0  501    0  0.00000000000E+00  0.00000000000E+00  0.18149192167E+03  0.18149192167E+03  0.00000000000E+00 0. -1.
         -2   -1    0    0    0  501 -0.00000000000E+00 -0.00000000000E+00 -0.20233295891E+01  0.20233295891E+01  0.00000000000E+00 0.  1.
        -11    1    1    2    0    0 -0.17126476096E+02 -0.85692355951E+01  0.86451635619E+02  0.88547350516E+02  0.00000000000E+00 0. -1.
         11    1    1    2    0    0  0.17126476096E+02  0.85692355951E+01  0.93016956462E+02  0.94967900744E+02  0.00000000000E+00 0.  1.
<mgrwt>
<rscale>  0 0.38325865E+02</rscale>
<asrwt>0</asrwt>
<pdfrwt beam="1">  1        2 0.27921821E-01 0.38325865E+02</pdfrwt>
<pdfrwt beam="2">  1       -2 0.31128162E-03 0.38325865E+02</pdfrwt>
<totfact> 0.13734018E+06</totfact>
</mgrwt>
</event>
<event>
 4    1  0.4118611E+000  0.3215535E+02  0.7546771E-02  0.1575417E+00
         -2   -1    0    0    0  501 -0.00000000000E+00  0.00000000000E+00  0.73361555383E+01  0.73361555383E+01  0.00000000000E+00 0. -1.
          2   -1    0    0  501    0  0.00000000000E+00 -0.00000000000E+00 -0.35235299206E+02  0.35235299206E+02  0.00000000000E+00 0.  1.
        -11    1    1    2    0    0  0.21982422117E+01  0.10837957451E+02  0.15012179925E+01  0.11160073745E+02  0.00000000000E+00 0. -1.
         11    1    1    2    0    0 -0.21982422117E+01 -0.10837957451E+02 -0.29400361660E+02  0.31411381000E+02  0.00000000000E+00 0.  1.
<mgrwt>
<rscale>  0 0.32155350E+02</rscale>
<asrwt>0</asrwt>
<pdfrwt beam="2">  1        2 0.54208152E-02 0.32155350E+02</pdfrwt>
<pdfrwt beam="1">  1       -2 0.11286393E-02 0.32155350E+02</pdfrwt>
<totfact> 0.14601954E+06</totfact>
</mgrwt>
</event>
<event>
 4    1  0.4118611E+000  0.2353225E+02  0.7546771E-02  0.1683025E+00
          4   -1    0    0  501    0  0.00000000000E+00  0.00000000000E+00  0.43507254237E+01  0.43507254237E+01  0.00000000000E+00 0. -1.
         -4   -1    0    0    0  501 -0.00000000000E+00 -0.00000000000E+00 -0.31820363965E+02  0.31820363965E+02  0.00000000000E+00 0.  1.
        -11    1    1    2    0    0  0.24937522449E+01  0.10116680443E+02 -0.53333195947E+01  0.11705140808E+02  0.00000000000E+00 0. -1.
         11    1    1    2    0    0 -0.24937522449E+01 -0.10116680443E+02 -0.22136318947E+02  0.24465948580E+02  0.00000000000E+00 0.  1.
<mgrwt>
<rscale>  0 0.23532247E+02</rscale>
<asrwt>0</asrwt>
<pdfrwt beam="1">  1        4 0.66934240E-03 0.23532247E+02</pdfrwt>
<pdfrwt beam="2">  1       -4 0.48954404E-02 0.23532247E+02</pdfrwt>
<totfact> 0.86581853E+05</totfact>
</mgrwt>
</event>
<event>
 4    1  0.4118611E+000  0.2066986E+02  0.7546771E-02  0.1732326E+00
         -2   -1    0    0    0  501 -0.00000000000E+00  0.00000000000E+00  0.12652475083E+01  0.12652475083E+01  0.00000000000E+00 0. -1.
          2   -1    0    0  501    0  0.00000000000E+00 -0.00000000000E+00 -0.84418864862E+02  0.84418864862E+02  0.00000000000E+00 0.  1.
        -11    1    1    2    0    0  0.82854498778E+01 -0.59725143904E+01 -0.35034021427E+02  0.36492496012E+02  0.00000000000E+00 0.  1.
         11    1    1    2    0    0 -0.82854498778E+01  0.59725143904E+01 -0.48119595927E+02  0.49191616359E+02  0.00000000000E+00 0. -1.
<mgrwt>
<rscale>  0 0.20669858E+02</rscale>
<asrwt>0</asrwt>
<pdfrwt beam="2">  1        2 0.12987522E-01 0.20669858E+02</pdfrwt>
<pdfrwt beam="1">  1       -2 0.19465339E-03 0.20669858E+02</pdfrwt>
<totfact> 0.47269320E+06</totfact>
</mgrwt>
</event>
<event>
 4    1  0.4118611E+000  0.2463495E+02  0.7546771E-02  0.1666301E+00
         -2   -1    0    0    0  501 -0.00000000000E+00  0.00000000000E+00  0.59616987964E+01  0.59616987964E+01  0.00000000000E+00 0. -1.
          2   -1    0    0  501    0  0.00000000000E+00 -0.00000000000E+00 -0.25449158297E+02  0.25449158297E+02  0.00000000000E+00 0.  1.
        -11    1    1    2    0    0 -0.86345323664E+01  0.69048832407E+01 -0.28198713070E+01  0.11409830671E+02  0.00000000000E+00 0. -1.
         11    1    1    2    0    0  0.86345323664E+01 -0.69048832407E+01 -0.16667588193E+02  0.20001026422E+02  0.00000000000E+00 0.  1.
<mgrwt>
<rscale>  0 0.24634952E+02</rscale>
<asrwt>0</asrwt>
<pdfrwt beam="2">  1        2 0.39152551E-02 0.24634952E+02</pdfrwt>
<pdfrwt beam="1">  1       -2 0.91718443E-03 0.24634952E+02</pdfrwt>
<totfact> 0.26448726E+06</totfact>
</mgrwt>
</event>
<event>
 4    1  0.4118611E+000  0.4014580E+02  0.7546771E-02  0.1507141E+00
          1   -1    0    0  501    0  0.00000000000E+00  0.00000000000E+00  0.35477953085E+02  0.35477953085E+02  0.00000000000E+00 0. -1.
         -1   -1    0    0    0  501 -0.00000000000E+00 -0.00000000000E+00 -0.11356947605E+02  0.11356947605E+02  0.00000000000E+00 0.  1.
        -11    1    1    2    0    0 -0.93464000976E+01  0.16879985196E+02  0.18517317474E+02  0.26742852156E+02  0.00000000000E+00 0. -1.
         11    1    1    2    0    0  0.93464000976E+01 -0.16879985196E+02  0.56036880056E+01  0.20092048533E+02  0.00000000000E+00 0.  1.
<mgrwt>
<rscale>  0 0.40145797E+02</rscale>
<asrwt>0</asrwt>
<pdfrwt beam="1">  1        1 0.54581466E-02 0.40145797E+02</pdfrwt>
<pdfrwt beam="2">  1       -1 0.17472227E-02 0.40145797E+02</pdfrwt>
<totfact> 0.78696226E+05</totfact>
</mgrwt>
</event>
<event>
 4    1  0.4118611E+000  0.2449570E+02  0.7546771E-02  0.1668353E+00
          1   -1    0    0  501    0  0.00000000000E+00  0.00000000000E+00  0.22684448800E+01  0.22684448800E+01  0.00000000000E+00 0. -1.
         -1   -1    0    0    0  501 -0.00000000000E+00 -0.00000000000E+00 -0.66128904670E+02  0.66128904670E+02  0.00000000000E+00 0.  1.
        -13    1    1    2    0    0  0.72049302443E+01 -0.70287695177E+01 -0.12445590580E+02  0.16006478240E+02  0.00000000000E+00 0. -1.
         13    1    1    2    0    0 -0.72049302443E+01  0.70287695177E+01 -0.51414869209E+02  0.52390871310E+02  0.00000000000E+00 0.  1.
<mgrwt>
<rscale>  0 0.24495696E+02</rscale>
<asrwt>0</asrwt>
<pdfrwt beam="1">  1        1 0.34899149E-03 0.24495696E+02</pdfrwt>
<pdfrwt beam="2">  1       -1 0.10173678E-01 0.24495696E+02</pdfrwt>
<totfact> 0.21519843E+06</totfact>
</mgrwt>
</event>
<event>
 4    1  0.4118611E+000  0.1895061E+03  0.7546771E-02  0.1158908E+00
          4   -1    0    0  501    0  0.00000000000E+00  0.00000000000E+00  0.25830955299E+02  0.25830955299E+02  0.00000000000E+00 0. -1.
         -4   -1    0    0    0  501 -0.00000000000E+00 -0.00000000000E+00 -0.34757301244E+03  0.34757301244E+03  0.00000000000E+00 0.  1.
        -13    1    1    2    0    0 -0.44194526602E+02  0.31204373283E+02 -0.31414876514E+03  0.31877314149E+03  0.00000000000E+00 0.  1.
         13    1    1    2    0    0  0.44194526602E+02 -0.31204373283E+02 -0.75932920001E+01  0.54630826252E+02  0.00000000000E+00 0. -1.
<mgrwt>
<rscale>  0 0.18950613E+03</rscale>
<asrwt>0</asrwt>
<pdfrwt beam="1">  1        4 0.39739934E-02 0.18950613E+03</pdfrwt>
<pdfrwt beam="2">  1       -4 0.53472768E-01 0.18950613E+03</pdfrwt>
<totfact> 0.20597145E+03</totfact>
</mgrwt>
</event>
<event>
 4    1  0.4118611E+000  0.5831075E+02  0.7546771E-02  0.1405061E+00
          2   -1    0    0  501    0  0.00000000000E+00  0.00000000000E+00  0.26532564660E+02  0.26532564660E+02  0.00000000000E+00 0.  1.
         -2   -1    0    0    0  501 -0.00000000000E+00 -0.00000000000E+00 -0.32037457711E+02  0.32037457711E+02  0.00000000000E+00 0. -1.
        -13    1    1    2    0    0  0.49604631770E+01  0.26153732717E+02 -0.14696998648E+02  0.30407658562E+02  0.00000000000E+00 0.  1.
         13    1    1    2    0    0 -0.49604631770E+01 -0.26153732717E+02  0.91921055976E+01  0.28162363809E+02  0.00000000000E+00 0. -1.
<mgrwt>
<rscale>  0 0.58310751E+02</rscale>
<asrwt>0</asrwt>
<pdfrwt beam="1">  1        2 0.40819330E-02 0.58310751E+02</pdfrwt>
<pdfrwt beam="2">  1       -2 0.49288397E-02 0.58310751E+02</pdfrwt>
<totfact> 0.30532578E+05</totfact>
</mgrwt>
</event>
<event>
 4    1  0.4118611E+000  0.3995548E+02  0.7546771E-02  0.1508539E+00
         -2   -1    0    0    0  501 -0.00000000000E+00  0.00000000000E+00  0.20800816054E+01  0.20800816054E+01  0.00000000000E+00 0. -1.
          2   -1    0    0  501    0  0.00000000000E+00 -0.00000000000E+00 -0.19187229509E+03  0.19187229509E+03  0.00000000000E+00 0.  1.
        -11    1    1    2    0    0  0.19183874387E+02 -0.41605447968E+01 -0.76877323319E+02  0.79343897120E+02  0.00000000000E+00 0. -1.
         11    1    1    2    0    0 -0.19183874387E+02  0.41605447968E+01 -0.11291489017E+03  0.11460847958E+03  0.00000000000E+00 0.  1.
<mgrwt>
<rscale>  0 0.39955477E+02</rscale>
<asrwt>0</asrwt>
<pdfrwt beam="2">  1        2 0.29518822E-01 0.39955477E+02</pdfrwt>
<pdfrwt beam="1">  1       -2 0.32001247E-03 0.39955477E+02</pdfrwt>
<totfact> 0.12634776E+06</totfact>
</mgrwt>
</event>
<event>
 4    1  0.4118611E+000  0.7225258E+02  0.7546771E-02  0.1352596E+00
          2   -1    0    0  501    0  0.00000000000E+00  0.00000000000E+00  0.12574068939E+03  0.12574068939E+03  0.00000000000E+00 0. -1.
         -2   -1    0    0    0  501 -0.00000000000E+00 -0.00000000000E+00 -0.10379367718E+02  0.10379367718E+02  0.00000000000E+00 0.  1.
        -13    1    1    2    0    0 -0.14253205082E+02  0.26508719223E+02  0.95323927732E+02  0.99962579240E+02  0.00000000000E+00 0. -1.
         13    1    1    2    0    0  0.14253205082E+02 -0.26508719223E+02  0.20037393941E+02  0.36157477870E+02  0.00000000000E+00 0.  1.
<mgrwt>
<rscale>  0 0.72252581E+02</rscale>
<asrwt>0</asrwt>
<pdfrwt beam="1">  1        2 0.19344720E-01 0.72252581E+02</pdfrwt>
<pdfrwt beam="2">  1       -2 0.15968259E-02 0.72252581E+02</pdfrwt>
<totfact> 0.24628244E+05</totfact>
</mgrwt>
</event>
<event>
 4    1  0.4118611E+000  0.2040555E+02  0.7546771E-02  0.1737381E+00
         -2   -1    0    0    0  501 -0.00000000000E+00  0.00000000000E+00  0.72070026167E+01  0.72070026167E+01  0.00000000000E+00 0.  1.
          2   -1    0    0  501    0  0.00000000000E+00 -0.00000000000E+00 -0.14443809362E+02  0.14443809362E+02  0.00000000000E+00 0. -1.
        -11    1    1    2    0    0  0.96466635130E+01  0.31062480216E+01 -0.48691896149E+01  0.11243482610E+02  0.00000000000E+00 0. -1.
         11    1    1    2    0    0 -0.96466635130E+01 -0.31062480216E+01 -0.23676171304E+01  0.10407329368E+02  0.00000000000E+00 0.  1.
<mgrwt>
<rscale>  0 0.20405546E+02</rscale>
<asrwt>0</asrwt>
<pdfrwt beam="2">  1        2 0.22221245E-02 0.20405546E+02</pdfrwt>
<pdfrwt beam="1">  1       -2 0.11087696E-02 0.20405546E+02</pdfrwt>
<totfact> 0.38759747E+06</totfact>
</mgrwt>
</event>
<event>
 4    1  0.4118611E+000  0.2254747E+02  0.7546771E-02  0.1698952E+00
          1   -1    0    0  501    0  0.00000000000E+00  0.00000000000E+00  0.63753619618E+02  0.63753619618E+02  0.00000000000E+00 0.  1.
         -1   -1    0    0    0  501 -0.00000000000E+00 -0.00000000000E+00 -0.19935674384E+01  0.19935674384E+01  0.00000000000E+00 0. -1.
        -13    1    1    2    0    0  0.10770867953E+02 -0.32007070852E+01  0.28205899903E+02  0.30361635523E+02  0.00000000000E+00 0.  1.
         13    1    1    2    0    0 -0.10770867953E+02  0.32007070852E+01  0.33554152276E+02  0.35385551533E+02  0.00000000000E+00 0. -1.
<mgrwt>
<rscale>  0 0.22547473E+02</rscale>
<asrwt>0</asrwt>
<pdfrwt beam="1">  1        1 0.98082476E-02 0.22547473E+02</pdfrwt>
<pdfrwt beam="2">  1       -1 0.30670273E-03 0.22547473E+02</pdfrwt>
<totfact> 0.32480895E+06</totfact>
</mgrwt>
</event>
<event>
 4    1  0.4118611E+000  0.3781494E+02  0.7546771E-02  0.1524936E+00
          4   -1    0    0  501    0  0.00000000000E+00  0.00000000000E+00  0.52973683326E+02  0.52973683326E+02  0.00000000000E+00 0.  1.
         -4   -1    0    0    0  501 -0.00000000000E+00 -0.00000000000E+00 -0.67484905439E+01  0.67484905439E+01  0.00000000000E+00 0. -1.
        -13    1    1    2    0    0 -0.16833608381E+02 -0.51427379503E+01  0.34017309869E+02  0.38301377200E+02  0.00000000000E+00 0.  1.
         13    1    1    2    0    0  0.16833608381E+02  0.51427379503E+01  0.12207882914E+02  0.21420796670E+02  0.00000000000E+00 0. -1.
<mgrwt>
<rscale>  0 0.37814939E+02</rscale>
<asrwt>0</asrwt>
<pdfrwt beam="1">  1        4 0.81497972E-02 0.37814939E+02</pdfrwt>
<pdfrwt beam="2">  1       -4 0.10382293E-02 0.37814939E+02</pdfrwt>
<totfact> 0.27511133E+05</totfact>
</mgrwt>
</event>
<event>
 4    1  0.4118611E+000  0.5453465E+02  0.7546771E-02  0.1422312E+00
         -3   -1    0    0    0  501 -0.00000000000E+00  0.00000000000E+00  0.10275203799E+03  0.10275203799E+03  0.00000000000E+00 0. -1.
          3   -1    0    0  501    0  0.00000000000E+00 -0.00000000000E+00 -0.72359335294E+01  0.72359335294E+01  0.00000000000E+00 0.  1.
        -13    1    1    2    0    0  0.58151600792E+00 -0.18128652648E+02  0.66955125523E+01  0.19334324297E+02  0.00000000000E+00 0.  1.
         13    1    1    2    0    0 -0.58151600792E+00  0.18128652648E+02  0.88820591904E+02  0.90653647218E+02  0.00000000000E+00 0. -1.
<mgrwt>
<rscale>  0 0.54534646E+02</rscale>
<asrwt>0</asrwt>
<pdfrwt beam="2">  1        3 0.11132206E-02 0.54534646E+02</pdfrwt>
<pdfrwt beam="1">  1       -3 0.15808005E-01 0.54534646E+02</pdfrwt>
<totfact> 0.13109663E+05</totfact>
</mgrwt>
</event>
<event>
 4    1  0.4118611E+000  0.3938896E+02  0.7546771E-02  0.1512757E+00
          2   -1    0    0  501    0  0.00000000000E+00  0.00000000000E+00  0.58743446860E+02  0.58743446860E+02  0.00000000000E+00 0.  1.
         -2   -1    0    0    0  501 -0.00000000000E+00 -0.00000000000E+00 -0.66028210998E+01  0.66028210998E+01  0.00000000000E+00 0. -1.
        -13    1    1    2    0    0  0.19464865224E+02 -0.26753489628E+01  0.28317017610E+02  0.34465808515E+02  0.00000000000E+00 0.  1.
         13    1    1    2    0    0 -0.19464865224E+02  0.26753489628E+01  0.23823608150E+02  0.30880459445E+02  0.00000000000E+00 0. -1.
<mgrwt>
<rscale>  0 0.39388956E+02</rscale>
<asrwt>0</asrwt>
<pdfrwt beam="1">  1        2 0.90374530E-02 0.39388956E+02</pdfrwt>
<pdfrwt beam="2">  1       -2 0.10158187E-02 0.39388956E+02</pdfrwt>
<totfact> 0.96549017E+05</totfact>
</mgrwt>
</event>
<event>
 4    1  0.4118611E+000  0.5251724E+02  0.7546771E-02  0.1432219E+00
          4   -1    0    0  501    0  0.00000000000E+00  0.00000000000E+00  0.18483575668E+02  0.18483575668E+02  0.00000000000E+00 0.  1.
         -4   -1    0    0    0  501 -0.00000000000E+00 -0.00000000000E+00 -0.37304207710E+02  0.37304207710E+02  0.00000000000E+00 0. -1.
        -13    1    1    2    0    0 -0.55886250868E+01  0.19474006444E+02  0.83346310313E+01  0.21907435536E+02  0.00000000000E+00 0.  1.
         13    1    1    2    0    0  0.55886250868E+01 -0.19474006444E+02 -0.27155263073E+02  0.33880347842E+02  0.00000000000E+00 0. -1.
<mgrwt>
<rscale>  0 0.52517241E+02</rscale>
<asrwt>0</asrwt>
<pdfrwt beam="1">  1        4 0.28436270E-02 0.52517241E+02</pdfrwt>
<pdfrwt beam="2">  1       -4 0.57391089E-02 0.52517241E+02</pdfrwt>
<totfact> 0.12532783E+05</totfact>
</mgrwt>
</event>
<event>
 4    1  0.4118611E+000  0.3431688E+02  0.7546771E-02  0.1554752E+00
          2   -1    0    0  501    0  0.00000000000E+00  0.00000000000E+00  0.17646442343E+02  0.17646442343E+02  0.00000000000E+00 0. -1.
         -2   -1    0    0    0  501 -0.00000000000E+00 -0.00000000000E+00 -0.16683928700E+02  0.16683928700E+02  0.00000000000E+00 0.  1.
        -13    1    1    2    0    0  0.29904116071E+01 -0.16008902626E+02 -0.49231321190E+01  0.17013663766E+02  0.00000000000E+00 0.  1.
         13    1    1    2    0    0 -0.29904116071E+01  0.16008902626E+02  0.58856457620E+01  0.17316707277E+02  0.00000000000E+00 0. -1.
<mgrwt>
<rscale>  0 0.34316875E+02</rscale>
<asrwt>0</asrwt>
<pdfrwt beam="1">  1        2 0.27148373E-02 0.34316875E+02</pdfrwt>
<pdfrwt beam="2">  1       -2 0.25667582E-02 0.34316875E+02</pdfrwt>
<totfact> 0.11430995E+06</totfact>
</mgrwt>
</event>
<event>
 4    1  0.4118611E+000  0.2049944E+02  0.7546771E-02  0.1735575E+00
          2   -1    0    0  501    0  0.00000000000E+00  0.00000000000E+00  0.89494261892E+02  0.89494261892E+02  0.00000000000E+00 0. -1.
         -2   -1    0    0    0  501 -0.00000000000E+00 -0.00000000000E+00 -0.11738942168E+01  0.11738942168E+01  0.00000000000E+00 0.  1.
        -11    1    1    2    0    0  0.11470497045E+01 -0.10137375356E+02  0.48526819226E+02  0.49587642476E+02  0.00000000000E+00 0. -1.
         11    1    1    2    0    0 -0.11470497045E+01  0.10137375356E+02  0.39793548449E+02  0.41080513633E+02  0.00000000000E+00 0.  1.
<mgrwt>
<rscale>  0 0.20499444E+02</rscale>
<asrwt>0</asrwt>
<pdfrwt beam="1">  1        2 0.13768343E-01 0.20499444E+02</pdfrwt>
<pdfrwt beam="2">  1       -2 0.18059918E-03 0.20499444E+02</pdfrwt>
<totfact> 0.48745341E+06</totfact>
</mgrwt>
</event>
<event>
 4    1  0.4118611E+000  0.3462558E+02  0.7546771E-02  0.1551951E+00
          2   -1    0    0  501    0  0.00000000000E+00  0.00000000000E+00  0.83253275236E+02  0.83253275236E+02  0.00000000000E+00 0. -1.
         -2   -1    0    0    0  501 -0.00000000000E+00 -0.00000000000E+00 -0.36002514955E+01  0.36002514955E+01  0.00000000000E+00 0.  1.
        -11    1    1    2    0    0 -0.33549999794E+01 -0.14639767629E+02  0.18226330431E+02  0.23617322924E+02  0.00000000000E+00 0.  1.
         11    1    1    2    0    0  0.33549999794E+01  0.14639767629E+02  0.61426693309E+02  0.63236203808E+02  0.00000000000E+00 0. -1.
<mgrwt>
<rscale>  0 0.34625582E+02</rscale>
<asrwt>0</asrwt>
<pdfrwt beam="1">  1        2 0.12808195E-01 0.34625582E+02</pdfrwt>
<pdfrwt beam="2">  1       -2 0.55388491E-03 0.34625582E+02</pdfrwt>
<totfact> 0.14219739E+06</totfact>
</mgrwt>
</event>
<event>
 4    1  0.4118611E+000  0.8693809E+02  0.7546771E-02  0.1310441E+00
         -2   -1    0    0    0  501 -0.00000000000E+00  0.00000000000E+00  0.40831067338E+02  0.40831067338E+02  0.00000000000E+00 0.  1.
          2   -1    0    0  501    0  0.00000000000E+00 -0.00000000000E+00 -0.46277459127E+02  0.46277459127E+02  0.00000000000E+00 0. -1.
        -11    1    1    2    0    0  0.18712139258E+02  0.38100302819E+02 -0.12110704917E+02  0.44141209817E+02  0.00000000000E+00 0. -1.
         11    1    1    2    0    0 -0.18712139258E+02 -0.38100302819E+02  0.66643131284E+01  0.42967316648E+02  0.00000000000E+00 0.  1.
<mgrwt>
<rscale>  0 0.86938094E+02</rscale>
<asrwt>0</asrwt>
<pdfrwt beam="2">  1        2 0.71196091E-02 0.86938094E+02</pdfrwt>
<pdfrwt beam="1">  1       -2 0.62817027E-02 0.86938094E+02</pdfrwt>
<totfact> 0.11345856E+05</totfact>
</mgrwt>
</event>
<event>
 4    1  0.4118611E+000  0.2186631E+02  0.7546771E-02  0.1710574E+00
          2   -1    0    0  501    0  0.00000000000E+00  0.00000000000E+00  0.27020600838E+02  0.27020600838E+02  0.00000000000E+00 0.  1.
         -2   -1    0    0    0  501 -0.00000000000E+00 -0.00000000000E+00 -0.44238063130E+01  0.44238063130E+01  0.00000000000E+00 0. -1.
        -11    1    1    2    0    0  0.81323042112E+01  0.72083628704E+01  0.95733383931E+01  0.14482529995E+02  0.00000000000E+00 0.  1.
         11    1    1    2    0    0 -0.81323042112E+01 -0.72083628704E+01  0.13023456132E+02  0.16961877157E+02  0.00000000000E+00 0. -1.
<mgrwt>
<rscale>  0 0.21866312E+02</rscale>
<asrwt>0</asrwt>
<pdfrwt beam="1">  1        2 0.41570154E-02 0.21866312E+02</pdfrwt>
<pdfrwt beam="2">  1       -2 0.68058561E-03 0.21866312E+02</pdfrwt>
<totfact> 0.35043482E+06</totfact>
</mgrwt>
</event>
<event>
 4    1  0.4118611E+000  0.6267281E+02  0.7546771E-02  0.1386946E+00
          2   -1    0    0  501    0  0.00000000000E+00  0.00000000000E+00  0.10683313262E+02  0.10683313262E+02  0.00000000000E+00 0.  1.
         -2   -1    0    0    0  501 -0.00000000000E+00 -0.00000000000E+00 -0.91916262853E+02  0.91916262853E+02  0.00000000000E+00 0. -1.
        -11    1    1    2    0    0 -0.64014511150E+01 -0.20353442523E+02 -0.30448447150E+01  0.21552546909E+02  0.00000000000E+00 0.  1.
         11    1    1    2    0    0  0.64014511150E+01  0.20353442523E+02 -0.78188104876E+02  0.81047029206E+02  0.00000000000E+00 0. -1.
<mgrwt>
<rscale>  0 0.62672808E+02</rscale>
<asrwt>0</asrwt>
<pdfrwt beam="1">  1        2 0.16435866E-02 0.62672808E+02</pdfrwt>
<pdfrwt beam="2">  1       -2 0.14140964E-01 0.62672808E+02</pdfrwt>
<totfact> 0.20706693E+05</totfact>
</mgrwt>
</event>
<event>
 4    1  0.4118611E+000  0.4662095E+02  0.7546771E-02  0.1464469E+00
         -2   -1    0    0    0  501 -0.00000000000E+00  0.00000000000E+00  0.36868186403E+02  0.36868186403E+02  0.00000000000E+00 0.  1.
          2   -1    0    0  501    0  0.00000000000E+00 -0.00000000000E+00 -0.14738403761E+02  0.14738403761E+02  0.00000000000E+00 0. -1.
        -13    1    1    2    0    0  0.90420887533E+01  0.19061169237E+02  0.90505702911E-01  0.21097292077E+02  0.00000000000E+00 0. -1.
         13    1    1    2    0    0 -0.90420887533E+01 -0.19061169237E+02  0.22039276940E+02  0.30509298086E+02  0.00000000000E+00 0.  1.
<mgrwt>
<rscale>  0 0.46620949E+02</rscale>
<asrwt>0</asrwt>
<pdfrwt beam="2">  1        2 0.22674467E-02 0.46620949E+02</pdfrwt>
<pdfrwt beam="1">  1       -2 0.56720286E-02 0.46620949E+02</pdfrwt>
<totfact> 0.50627940E+05</totfact>
</mgrwt>
</event>
<event>
 4    1  0.4118611E+000  0.4268636E+02  0.7546771E-02  0.1489325E+00
         -2   -1    0    0    0  501 -0.00000000000E+00  0.00000000000E+00  0.64010218158E+02  0.64010218158E+02  0.00000000000E+00 0. -1.
          2   -1    0    0  501    0  0.00000000000E+00 -0.00000000000E+00 -0.71165411703E+01  0.71165411703E+01  0.00000000000E+00 0.  1.
        -13    1    1    2    0    0 -0.11533133287E+02 -0.17552222751E+02  0.34778131076E+02  0.40627725607E+02  0.00000000000E+00 0.  1.
         13    1    1    2    0    0  0.11533133287E+02  0.17552222751E+02  0.22115545912E+02  0.30499033720E+02  0.00000000000E+00 0. -1.
<mgrwt>
<rscale>  0 0.42686361E+02</rscale>
<asrwt>0</asrwt>
<pdfrwt beam="2">  1        2 0.10948525E-02 0.42686361E+02</pdfrwt>
<pdfrwt beam="1">  1       -2 0.98477255E-02 0.42686361E+02</pdfrwt>
<totfact> 0.56995349E+05</totfact>
</mgrwt>
</event>
<event>
 4    1  0.4118611E+000  0.3477225E+02  0.7546771E-02  0.1550632E+00
          2   -1    0    0  501    0  0.00000000000E+00  0.00000000000E+00  0.19608673524E+02  0.19608673524E+02  0.00000000000E+00 0. -1.
         -2   -1    0    0    0  501 -0.00000000000E+00 -0.00000000000E+00 -0.15415491741E+02  0.15415491741E+02  0.00000000000E+00 0.  1.
        -11    1    1    2    0    0 -0.14724464644E+02 -0.92017004797E+01  0.29953523690E+01  0.17619684633E+02  0.00000000000E+00 0. -1.
         11    1    1    2    0    0  0.14724464644E+02  0.92017004797E+01  0.11978294140E+01  0.17404480632E+02  0.00000000000E+00 0.  1.
<mgrwt>
<rscale>  0 0.34772250E+02</rscale>
<asrwt>0</asrwt>
<pdfrwt beam="1">  1        2 0.30167190E-02 0.34772250E+02</pdfrwt>
<pdfrwt beam="2">  1       -2 0.23716141E-02 0.34772250E+02</pdfrwt>
<totfact> 0.11198125E+06</totfact>
</mgrwt>
</event>
<event>
 4    1  0.4118611E+000  0.2201205E+02  0.7546771E-02  0.1708044E+00
          2   -1    0    0  501    0  0.00000000000E+00  0.00000000000E+00  0.35152807647E+01  0.35152807647E+01  0.00000000000E+00 0.  1.
         -2   -1    0    0    0  501 -0.00000000000E+00 -0.00000000000E+00 -0.34458852415E+02  0.34458852415E+02  0.00000000000E+00 0. -1.
        -11    1    1    2    0    0  0.96901976062E+01 -0.25682677311E+01 -0.23308728355E+02  0.25373071283E+02  0.00000000000E+00 0. -1.
         11    1    1    2    0    0 -0.96901976062E+01  0.25682677311E+01 -0.76348432947E+01  0.12601061897E+02  0.00000000000E+00 0.  1.
<mgrwt>
<rscale>  0 0.22012046E+02</rscale>
<asrwt>0</asrwt>
<pdfrwt beam="1">  1        2 0.54081241E-03 0.22012046E+02</pdfrwt>
<pdfrwt beam="2">  1       -2 0.53013620E-02 0.22012046E+02</pdfrwt>
<totfact> 0.28778990E+06</totfact>
</mgrwt>
</event>
<event>
 4    1  0.4118611E+000  0.2757473E+02  0.7546771E-02  0.1626556E+00
          2   -1    0    0  501    0  0.00000000000E+00  0.00000000000E+00  0.72190163782E+02  0.72190163782E+02  0.00000000000E+00 0. -1.
         -2   -1    0    0    0  501 -0.00000000000E+00 -0.00000000000E+00 -0.26332034826E+01  0.26332034826E+01  0.00000000000E+00 0.  1.
        -13    1    1    2    0    0  0.12923272998E+02 -0.19933571712E+00  0.47803355937E+02  0.49519809759E+02  0.00000000000E+00 0. -1.
         13    1    1    2    0    0 -0.12923272998E+02  0.19933571712E+00  0.21753604362E+02  0.25303557506E+02  0.00000000000E+00 0.  1.
<mgrwt>
<rscale>  0 0.27574727E+02</rscale>
<asrwt>0</asrwt>
<pdfrwt beam="1">  1        2 0.11106178E-01 0.27574727E+02</pdfrwt>
<pdfrwt beam="2">  1       -2 0.40510828E-03 0.27574727E+02</pdfrwt>
<totfact> 0.23710270E+06</totfact>
</mgrwt>
</event>
<event>
 4    1  0.4118611E+000  0.4345574E+02  0.7546771E-02  0.1484219E+00
         -2   -1    0    0    0  501 -0.00000000000E+00  0.00000000000E+00  0.37676500693E+01  0.37676500693E+01  0.00000000000E+00 0.  1.
          2   -1    0    0  501    0  0.00000000000E+00 -0.00000000000E+00 -0.12530366535E+03  0.12530366535E+03  0.00000000000E+00 0. -1.
        -11    1    1    2    0    0  0.19812381603E+02 -0.85297102668E+01 -0.53014793659E+02  0.57235083373E+02  0.00000000000E+00 0. -1.
         11    1    1    2    0    0 -0.19812381603E+02  0.85297102668E+01 -0.68521221618E+02  0.71836232042E+02  0.00000000000E+00 0.  1.
<mgrwt>
<rscale>  0 0.43455741E+02</rscale>
<asrwt>0</asrwt>
<pdfrwt beam="2">  1        2 0.19277483E-01 0.43455741E+02</pdfrwt>
<pdfrwt beam="1">  1       -2 0.57963858E-03 0.43455741E+02</pdfrwt>
<totfact> 0.90421301E+05</totfact>
</mgrwt>
</event>
<event>
 4    1  0.4118611E+000  0.2554513E+02  0.7546771E-02  0.1653293E+00
          1   -1    0    0  501    0  0.00000000000E+00  0.00000000000E+00  0.16957725543E+01  0.16957725543E+01  0.00000000000E+00 0.  1.
         -1   -1    0    0    0  501 -0.00000000000E+00 -0.00000000000E+00 -0.96203025035E+02  0.96203025035E+02  0.00000000000E+00 0. -1.
        -13    1    1    2    0    0 -0.96877206701E+01 -0.63172393290E+01 -0.68026077005E+02  0.69002221683E+02  0.00000000000E+00 0. -1.
         13    1    1    2    0    0  0.96877206701E+01  0.63172393290E+01 -0.26481175476E+02  0.28896575906E+02  0.00000000000E+00 0.  1.
<mgrwt>
<rscale>  0 0.25545133E+02</rscale>
<asrwt>0</asrwt>
<pdfrwt beam="1">  1        1 0.26088818E-03 0.25545133E+02</pdfrwt>
<pdfrwt beam="2">  1       -1 0.14800460E-01 0.25545133E+02</pdfrwt>
<totfact> 0.18554931E+06</totfact>
</mgrwt>
</event>
<event>
 4    1  0.4118611E+000  0.3112995E+02  0.7546771E-02  0.1585924E+00
          2   -1    0    0  501    0  0.00000000000E+00  0.00000000000E+00  0.25426208727E+02  0.25426208727E+02  0.00000000000E+00 0. -1.
         -2   -1    0    0    0  501 -0.00000000000E+00 -0.00000000000E+00 -0.95282952114E+01  0.95282952114E+01  0.00000000000E+00 0.  1.
        -13    1    1    2    0    0  0.13645190704E+02 -0.32996016880E+01  0.40072792626E+00  0.14044186823E+02  0.00000000000E+00 0.  1.
         13    1    1    2    0    0 -0.13645190704E+02  0.32996016880E+01  0.15497185589E+02  0.20910317115E+02  0.00000000000E+00 0. -1.
<mgrwt>
<rscale>  0 0.31129948E+02</rscale>
<asrwt>0</asrwt>
<pdfrwt beam="1">  1        2 0.39117244E-02 0.31129948E+02</pdfrwt>
<pdfrwt beam="2">  1       -2 0.14658916E-02 0.31129948E+02</pdfrwt>
<totfact> 0.15152417E+06</totfact>
</mgrwt>
</event>
<event>
 4    1  0.4118611E+000  0.2651749E+02  0.7546771E-02  0.1640116E+00
          4   -1    0    0  501    0  0.00000000000E+00  0.00000000000E+00  0.16370282268E+02  0.16370282268E+02  0.00000000000E+00 0. -1.
         -4   -1    0    0    0  501 -0.00000000000E+00 -0.00000000000E+00 -0.10738627473E+02  0.10738627473E+02  0.00000000000E+00 0.  1.
        -11    1    1    2    0    0  0.10441960156E+02  0.78576689852E+01  0.52603573694E+00  0.13078769337E+02  0.00000000000E+00 0.  1.
         11    1    1    2    0    0 -0.10441960156E+02 -0.78576689852E+01  0.51056190587E+01  0.14030140404E+02  0.00000000000E+00 0. -1.
<mgrwt>
<rscale>  0 0.26517493E+02</rscale>
<asrwt>0</asrwt>
<pdfrwt beam="1">  1        4 0.25185050E-02 0.26517493E+02</pdfrwt>
<pdfrwt beam="2">  1       -4 0.16520965E-02 0.26517493E+02</pdfrwt>
<totfact> 0.69298823E+05</totfact>
</mgrwt>
</event>
<event>
 4    1  0.4118611E+000  0.8873741E+02  0.7546771E-02  0.1305938E+00
          2   -1    0    0  501    0  0.00000000000E+00  0.00000000000E+00  0.28762491843E+02  0.28762491843E+02  0.00000000000E+00 0. -1.
         -2   -1    0    0    0  501 -0.00000000000E+00 -0.00000000000E+00 -0.68442678754E+02  0.68442678754E+02  0.00000000000E+00 0.  1.
        -11    1    1    2    0    0 -0.22561704921E+02 -0.35792662387E+02 -0.34472804809E+02  0.54575814067E+02  0.00000000000E+00 0.  1.
         11    1    1    2    0    0  0.22561704921E+02  0.35792662387E+02 -0.52073821025E+01  0.42629356529E+02  0.00000000000E+00 0. -1.
<mgrwt>
<rscale>  0 0.88737410E+02</rscale>
<asrwt>0</asrwt>
<pdfrwt beam="1">  1        2 0.44249988E-02 0.88737410E+02</pdfrwt>
<pdfrwt beam="2">  1       -2 0.10529643E-01 0.88737410E+02</pdfrwt>
<totfact> 0.94801233E+04</totfact>
</mgrwt>
</event>
<event>
 4    1  0.4118611E+000  0.4838665E+02  0.7546771E-02  0.1454243E+00
         -1   -1    0    0    0  501 -0.00000000000E+00  0.00000000000E+00  0.44158943092E+01  0.44158943092E+01  0.00000000000E+00 0.  1.
          1   -1    0    0  501    0  0.00000000000E+00 -0.00000000000E+00 -0.13254776209E+03  0.13254776209E+03  0.00000000000E+00 0. -1.
        -11    1    1    2    0    0 -0.10016792373E+02 -0.15359622699E+02 -0.10873781258E+03  0.11027314280E+03  0.00000000000E+00 0. -1.
         11    1    1    2    0    0  0.10016792373E+02  0.15359622699E+02 -0.19394055200E+02  0.26690513596E+02  0.00000000000E+00 0.  1.
<mgrwt>
<rscale>  0 0.48386647E+02</rscale>
<asrwt>0</asrwt>
<pdfrwt beam="2">  1        1 0.20391962E-01 0.48386647E+02</pdfrwt>
<pdfrwt beam="1">  1       -1 0.67936839E-03 0.48386647E+02</pdfrwt>
<totfact> 0.57072147E+05</totfact>
</mgrwt>
</event>
<event>
 4    1  0.4118611E+000  0.4165131E+02  0.7546771E-02  0.1496400E+00
          1   -1    0    0  501    0  0.00000000000E+00  0.00000000000E+00  0.61661295100E+01  0.61661295100E+01  0.00000000000E+00 0. -1.
         -1   -1    0    0    0  501 -0.00000000000E+00 -0.00000000000E+00 -0.70337123836E+02  0.70337123836E+02  0.00000000000E+00 0.  1.
        -13    1    1    2    0    0 -0.11469875480E+02 -0.17277688959E+02 -0.35585581432E+02  0.41187500351E+02  0.00000000000E+00 0. -1.
         13    1    1    2    0    0  0.11469875480E+02  0.17277688959E+02 -0.28585412894E+02  0.35315752995E+02  0.00000000000E+00 0.  1.
<mgrwt>
<rscale>  0 0.41651306E+02</rscale>
<asrwt>0</asrwt>
<pdfrwt beam="1">  1        1 0.94863535E-03 0.41651306E+02</pdfrwt>
<pdfrwt beam="2">  1       -1 0.10821095E-01 0.41651306E+02</pdfrwt>
<totfact> 0.61312893E+05</totfact>
</mgrwt>
</event>
<event>
 4    1  0.4118611E+000  0.2520899E+02  0.7546771E-02  0.1658018E+00
          1   -1    0    0  501    0  0.00000000000E+00  0.00000000000E+00  0.82498634530E+01  0.82498634530E+01  0.00000000000E+00 0. -1.
         -1   -1    0    0    0  501 -0.00000000000E+00 -0.00000000000E+00 -0.19257684294E+02  0.19257684294E+02  0.00000000000E+00 0.  1.
        -13    1    1    2    0    0  0.10572361969E+01  0.10229547184E+02  0.24483814812E+01  0.10571468954E+02  0.00000000000E+00 0. -1.
         13    1    1    2    0    0 -0.10572361969E+01 -0.10229547184E+02 -0.13456202322E+02  0.16936078793E+02  0.00000000000E+00 0.  1.
<mgrwt>
<rscale>  0 0.25208988E+02</rscale>
<asrwt>0</asrwt>
<pdfrwt beam="1">  1        1 0.12692098E-02 0.25208988E+02</pdfrwt>
<pdfrwt beam="2">  1       -1 0.29627207E-02 0.25208988E+02</pdfrwt>
<totfact> 0.22345084E+06</totfact>
</mgrwt>
</event>
<event>
 4    1  0.4118611E+000  0.3135340E+02  0.7546771E-02  0.1583593E+00
          2   -1    0    0  501    0  0.00000000000E+00  0.00000000000E+00  0.34318463698E+02  0.34318463698E+02  0.00000000000E+00 0.  1.
         -2   -1    0    0    0  501 -0.00000000000E+00 -0.00000000000E+00 -0.71611267150E+01  0.71611267150E+01  0.00000000000E+00 0. -1.
        -11    1    1    2    0    0 -0.75575771768E+01 -0.13339294264E+02  0.92500860310E+01  0.17905804529E+02  0.00000000000E+00 0.  1.
         11    1    1    2    0    0  0.75575771768E+01  0.13339294264E+02  0.17907250952E+02  0.23573785884E+02  0.00000000000E+00 0. -1.
<mgrwt>
<rscale>  0 0.31353396E+02</rscale>
<asrwt>0</asrwt>
<pdfrwt beam="1">  1        2 0.52797636E-02 0.31353396E+02</pdfrwt>
<pdfrwt beam="2">  1       -2 0.11017118E-02 0.31353396E+02</pdfrwt>
<totfact> 0.15466318E+06</totfact>
</mgrwt>
</event>
<event>
 4    1  0.4118611E+000  0.2899052E+02  0.7546771E-02  0.1609523E+00
         -2   -1    0    0    0  501 -0.00000000000E+00  0.00000000000E+00  0.22603423983E+01  0.22603423983E+01  0.00000000000E+00 0. -1.
          2   -1    0    0  501    0  0.00000000000E+00 -0.00000000000E+00 -0.92956055651E+02  0.92956055651E+02  0.00000000000E+00 0.  1.
        -11    1    1    2    0    0 -0.13654576198E+02  0.42579353539E+01 -0.53074956642E+02  0.54968431733E+02  0.00000000000E+00 0.  1.
         11    1    1    2    0    0  0.13654576198E+02 -0.42579353539E+01 -0.37620756611E+02  0.40247966316E+02  0.00000000000E+00 0. -1.
<mgrwt>
<rscale>  0 0.28990517E+02</rscale>
<asrwt>0</asrwt>
<pdfrwt beam="2">  1        2 0.14300930E-01 0.28990517E+02</pdfrwt>
<pdfrwt beam="1">  1       -2 0.34774501E-03 0.28990517E+02</pdfrwt>
<totfact> 0.22262210E+06</totfact>
</mgrwt>
</event>
<event>
 4    1  0.4118611E+000  0.2829181E+02  0.7546771E-02  0.1617776E+00
          1   -1    0    0  501    0  0.00000000000E+00  0.00000000000E+00  0.24608422559E+02  0.24608422559E+02  0.00000000000E+00 0.  1.
         -1   -1    0    0    0  501 -0.00000000000E+00 -0.00000000000E+00 -0.81316324557E+01  0.81316324557E+01  0.00000000000E+00 0. -1.
        -11    1    1    2    0    0 -0.11620557930E+01 -0.14033099666E+02  0.66736168362E+01  0.15582535788E+02  0.00000000000E+00 0. -1.
         11    1    1    2    0    0  0.11620557930E+01  0.14033099666E+02  0.98031732674E+01  0.17157519227E+02  0.00000000000E+00 0.  1.
<mgrwt>
<rscale>  0 0.28291811E+02</rscale>
<asrwt>0</asrwt>
<pdfrwt beam="1">  1        1 0.37859111E-02 0.28291811E+02</pdfrwt>
<pdfrwt beam="2">  1       -1 0.12510204E-02 0.28291811E+02</pdfrwt>
<totfact> 0.17997943E+06</totfact>
</mgrwt>
</event>
<event>
 4    1  0.4118611E+000  0.2483214E+02  0.7546771E-02  0.1663425E+00
         -3   -1    0    0    0  501 -0.00000000000E+00  0.00000000000E+00  0.60298561358E+01  0.60298561358E+01  0.00000000000E+00 0. -1.
          3   -1    0    0  501    0  0.00000000000E+00 -0.00000000000E+00 -0.25565913603E+02  0.25565913603E+02  0.00000000000E+00 0.  1.
        -11    1    1    2    0    0  0.74741946800E+00  0.11098394881E+02 -0.27496686879E+01  0.11458345548E+02  0.00000000000E+00 0. -1.
         11    1    1    2    0    0 -0.74741946800E+00 -0.11098394881E+02 -0.16786388779E+02  0.20137424191E+02  0.00000000000E+00 0.  1.
<mgrwt>
<rscale>  0 0.24832139E+02</rscale>
<asrwt>0</asrwt>
<pdfrwt beam="2">  1        3 0.39332176E-02 0.24832139E+02</pdfrwt>
<pdfrwt beam="1">  1       -3 0.92767015E-03 0.24832139E+02</pdfrwt>
<totfact> 0.10659022E+06</totfact>
</mgrwt>
</event>
<event>
 4    1  0.4118611E+000  0.4840274E+02  0.7546771E-02  0.1454152E+00
          2   -1    0    0  501    0  0.00000000000E+00  0.00000000000E+00  0.83409824088E+02  0.83409824088E+02  0.00000000000E+00 0.  1.
         -2   -1    0    0    0  501 -0.00000000000E+00 -0.00000000000E+00 -0.70220307412E+01  0.70220307412E+01  0.00000000000E+00 0. -1.
        -13    1    1    2    0    0  0.28806523110E+01  0.13113537413E+02  0.57409029503E+00  0.13438474649E+02  0.00000000000E+00 0. -1.
         13    1    1    2    0    0 -0.28806523110E+01 -0.13113537413E+02  0.75813703052E+02  0.76993380181E+02  0.00000000000E+00 0.  1.
<mgrwt>
<rscale>  0 0.48402742E+02</rscale>
<asrwt>0</asrwt>
<pdfrwt beam="1">  1        2 0.12832280E-01 0.48402742E+02</pdfrwt>
<pdfrwt beam="2">  1       -2 0.10803125E-02 0.48402742E+02</pdfrwt>
<totfact> 0.62128632E+05</totfact>
</mgrwt>
</event>
<event>
 4    1  0.4118611E+000  0.2786146E+02  0.7546771E-02  0.1623006E+00
          2   -1    0    0  501    0  0.00000000000E+00  0.00000000000E+00  0.27794709408E+02  0.27794709408E+02  0.00000000000E+00 0. -1.
         -2   -1    0    0    0  501 -0.00000000000E+00 -0.00000000000E+00 -0.69820951588E+01  0.69820951588E+01  0.00000000000E+00 0.  1.
        -13    1    1    2    0    0  0.10312304657E+02  0.91298701398E+01  0.77978435451E+01  0.15827334585E+02  0.00000000000E+00 0. -1.
         13    1    1    2    0    0 -0.10312304657E+02 -0.91298701398E+01  0.13014770704E+02  0.18949469981E+02  0.00000000000E+00 0.  1.
<mgrwt>
<rscale>  0 0.27861465E+02</rscale>
<asrwt>0</asrwt>
<pdfrwt beam="1">  1        2 0.42761091E-02 0.27861465E+02</pdfrwt>
<pdfrwt beam="2">  1       -2 0.10741685E-02 0.27861465E+02</pdfrwt>
<totfact> 0.19987581E+06</totfact>
</mgrwt>
</event>
<event>
 4    1  0.4118611E+000  0.2298496E+02  0.7546771E-02  0.1691754E+00
         -2   -1    0    0    0  501 -0.00000000000E+00  0.00000000000E+00  0.29527754425E+01  0.29527754425E+01  0.00000000000E+00 0. -1.
          2   -1    0    0  501    0  0.00000000000E+00 -0.00000000000E+00 -0.44729825503E+02  0.44729825503E+02  0.00000000000E+00 0.  1.
        -11    1    1    2    0    0 -0.10151791288E+02 -0.50758285285E+01 -0.17146211558E+02  0.20562477293E+02  0.00000000000E+00 0.  1.
         11    1    1    2    0    0  0.10151791288E+02  0.50758285285E+01 -0.24630838502E+02  0.27120123653E+02  0.00000000000E+00 0. -1.
<mgrwt>
<rscale>  0 0.22984963E+02</rscale>
<asrwt>0</asrwt>
<pdfrwt beam="2">  1        2 0.68815109E-02 0.22984963E+02</pdfrwt>
<pdfrwt beam="1">  1       -2 0.45427320E-03 0.22984963E+02</pdfrwt>
<totfact> 0.33288016E+06</totfact>
</mgrwt>
</event>
<event>
 4    1  0.4118611E+000  0.2405456E+02  0.7546771E-02  0.1674965E+00
          2   -1    0    0  501    0  0.00000000000E+00  0.00000000000E+00  0.36414455973E+01  0.36414455973E+01  0.00000000000E+00 0.  1.
         -2   -1    0    0    0  501 -0.00000000000E+00 -0.00000000000E+00 -0.39724730697E+02  0.39724730697E+02  0.00000000000E+00 0. -1.
        -11    1    1    2    0    0  0.11564316878E+02 -0.27732468964E+01 -0.21282280048E+02  0.24379494811E+02  0.00000000000E+00 0.  1.
         11    1    1    2    0    0 -0.11564316878E+02  0.27732468964E+01 -0.14801005051E+02  0.18986681483E+02  0.00000000000E+00 0. -1.
<mgrwt>
<rscale>  0 0.24054558E+02</rscale>
<asrwt>0</asrwt>
<pdfrwt beam="1">  1        2 0.56022237E-03 0.24054558E+02</pdfrwt>
<pdfrwt beam="2">  1       -2 0.61114973E-02 0.24054558E+02</pdfrwt>
<totfact> 0.23222531E+06</totfact>
</mgrwt>
</event>
<event>
 4    1  0.4118611E+000  0.2741610E+02  0.7546771E-02  0.1628542E+00
          2   -1    0    0  501    0  0.00000000000E+00  0.00000000000E+00  0.72223348346E+02  0.72223348346E+02  0.00000000000E+00 0. -1.
         -2   -1    0    0    0  501 -0.00000000000E+00 -0.00000000000E+00 -0.26017982392E+01  0.26017982392E+01  0.00000000000E+00 0.  1.
        -11    1    1    2    0    0  0.52768467686E+01 -0.98777782489E+01  0.13235095654E+02  0.17337340393E+02  0.00000000000E+00 0. -1.
         11    1    1    2    0    0 -0.52768467686E+01  0.98777782489E+01  0.56386454453E+02  0.57487806192E+02  0.00000000000E+00 0.  1.
<mgrwt>
<rscale>  0 0.27416096E+02</rscale>
<asrwt>0</asrwt>
<pdfrwt beam="1">  1        2 0.11111283E-01 0.27416096E+02</pdfrwt>
<pdfrwt beam="2">  1       -2 0.40027671E-03 0.27416096E+02</pdfrwt>
<totfact> 0.24034472E+06</totfact>
</mgrwt>
</event>
<event>
 4    1  0.4118611E+000  0.4313776E+02  0.7546771E-02  0.1486314E+00
         -2   -1    0    0    0  501 -0.00000000000E+00  0.00000000000E+00  0.77120616289E+01  0.77120616289E+01  0.00000000000E+00 0. -1.
          2   -1    0    0  501    0  0.00000000000E+00 -0.00000000000E+00 -0.60323255038E+02  0.60323255038E+02  0.00000000000E+00 0.  1.
        -13    1    1    2    0    0  0.35264956353E+01  0.20047841422E+02 -0.37553831161E+02  0.42715832569E+02  0.00000000000E+00 0.  1.
         13    1    1    2    0    0 -0.35264956353E+01 -0.20047841422E+02 -0.15057362248E+02  0.25319484098E+02  0.00000000000E+00 0. -1.
<mgrwt>
<rscale>  0 0.43137764E+02</rscale>
<asrwt>0</asrwt>
<pdfrwt beam="2">  1        2 0.92805008E-02 0.43137764E+02</pdfrwt>
<pdfrwt beam="1">  1       -2 0.11864710E-02 0.43137764E+02</pdfrwt>
<totfact> 0.77392665E+05</totfact>
</mgrwt>
</event>
<event>
 4    1  0.4118611E+000  0.3787169E+02  0.7546771E-02  0.1524484E+00
          2   -1    0    0  501    0  0.00000000000E+00  0.00000000000E+00  0.20943985560E+02  0.20943985560E+02  0.00000000000E+00 0. -1.
         -2   -1    0    0    0  501 -0.00000000000E+00 -0.00000000000E+00 -0.17120246708E+02  0.17120246708E+02  0.00000000000E+00 0.  1.
        -13    1    1    2    0    0 -0.11614467350E+02  0.13428344945E+02  0.85294075994E+01  0.19696880306E+02  0.00000000000E+00 0. -1.
         13    1    1    2    0    0  0.11614467350E+02 -0.13428344945E+02 -0.47056687473E+01  0.18367351963E+02  0.00000000000E+00 0.  1.
<mgrwt>
<rscale>  0 0.37871689E+02</rscale>
<asrwt>0</asrwt>
<pdfrwt beam="1">  1        2 0.32221516E-02 0.37871689E+02</pdfrwt>
<pdfrwt beam="2">  1       -2 0.26338841E-02 0.37871689E+02</pdfrwt>
<totfact> 0.91110912E+05</totfact>
</mgrwt>
</event>
<event>
 4    1  0.4118611E+000  0.2373873E+02  0.7546771E-02  0.1679808E+00
          1   -1    0    0  501    0  0.00000000000E+00  0.00000000000E+00  0.19995386195E+02  0.19995386195E+02  0.00000000000E+00 0.  1.
         -1   -1    0    0    0  501 -0.00000000000E+00 -0.00000000000E+00 -0.70457181741E+01  0.70457181741E+01  0.00000000000E+00 0. -1.
        -11    1    1    2    0    0  0.59195868267E+01  0.86113412510E+01  0.12886852668E+02  0.16591192785E+02  0.00000000000E+00 0.  1.
         11    1    1    2    0    0 -0.59195868267E+01 -0.86113412510E+01  0.62815352375E-01  0.10449911584E+02  0.00000000000E+00 0. -1.
<mgrwt>
<rscale>  0 0.23738733E+02</rscale>
<asrwt>0</asrwt>
<pdfrwt beam="1">  1        1 0.30762132E-02 0.23738733E+02</pdfrwt>
<pdfrwt beam="2">  1       -1 0.10839566E-02 0.23738733E+02</pdfrwt>
<totfact> 0.26866209E+06</totfact>
</mgrwt>
</event>
<event>
 4    1  0.4118611E+000  0.2258642E+02  0.7546771E-02  0.1698303E+00
         -2   -1    0    0    0  501 -0.00000000000E+00  0.00000000000E+00  0.32795421744E+02  0.32795421744E+02  0.00000000000E+00 0. -1.
          2   -1    0    0  501    0  0.00000000000E+00 -0.00000000000E+00 -0.38888546476E+01  0.38888546476E+01  0.00000000000E+00 0.  1.
        -13    1    1    2    0    0 -0.30108167804E+01  0.10857358586E+02  0.13206392813E+02  0.17359610142E+02  0.00000000000E+00 0. -1.
         13    1    1    2    0    0  0.30108167804E+01 -0.10857358586E+02  0.15700174283E+02  0.19324666250E+02  0.00000000000E+00 0.  1.
<mgrwt>
<rscale>  0 0.22586423E+02</rscale>
<asrwt>0</asrwt>
<pdfrwt beam="2">  1        2 0.59828535E-03 0.22586423E+02</pdfrwt>
<pdfrwt beam="1">  1       -2 0.50454493E-02 0.22586423E+02</pdfrwt>
<totfact> 0.27331745E+06</totfact>
</mgrwt>
</event>
<event>
 4    1  0.4118611E+000  0.4924452E+02  0.7546771E-02  0.1449460E+00
          2   -1    0    0  501    0  0.00000000000E+00  0.00000000000E+00  0.53893429621E+02  0.53893429621E+02  0.00000000000E+00 0.  1.
         -2   -1    0    0    0  501 -0.00000000000E+00 -0.00000000000E+00 -0.11249156239E+02  0.11249156239E+02  0.00000000000E+00 0. -1.
        -11    1    1    2    0    0  0.19344369895E+02  0.13949324294E+02  0.29419309347E+02  0.37871942878E+02  0.00000000000E+00 0.  1.
         11    1    1    2    0    0 -0.19344369895E+02 -0.13949324294E+02  0.13224964036E+02  0.27270642982E+02  0.00000000000E+00 0. -1.
<mgrwt>
<rscale>  0 0.49244517E+02</rscale>
<asrwt>0</asrwt>
<pdfrwt beam="1">  1        2 0.82912967E-02 0.49244517E+02</pdfrwt>
<pdfrwt beam="2">  1       -2 0.17306395E-02 0.49244517E+02</pdfrwt>
<totfact> 0.54118353E+05</totfact>
</mgrwt>
</event>
<event>
 4    1  0.4118611E+000  0.3608915E+02  0.7546771E-02  0.1539136E+00
          2   -1    0    0  501    0  0.00000000000E+00  0.00000000000E+00  0.64449866712E+02  0.64449866712E+02  0.00000000000E+00 0.  1.
         -2   -1    0    0    0  501 -0.00000000000E+00 -0.00000000000E+00 -0.50520914788E+01  0.50520914788E+01  0.00000000000E+00 0. -1.
        -11    1    1    2    0    0  0.11520849960E+02  0.53178868929E+01  0.54406513440E+02  0.55866614444E+02  0.00000000000E+00 0.  1.
         11    1    1    2    0    0 -0.11520849960E+02 -0.53178868929E+01  0.49912617936E+01  0.13635343747E+02  0.00000000000E+00 0. -1.
<mgrwt>
<rscale>  0 0.36089146E+02</rscale>
<asrwt>0</asrwt>
<pdfrwt beam="1">  1        2 0.99153635E-02 0.36089146E+02</pdfrwt>
<pdfrwt beam="2">  1       -2 0.77724489E-03 0.36089146E+02</pdfrwt>
<totfact> 0.12188442E+06</totfact>
</mgrwt>
</event>
<event>
 4    1  0.4118611E+000  0.2713899E+02  0.7546771E-02  0.1632052E+00
          3   -1    0    0  501    0  0.00000000000E+00  0.00000000000E+00  0.14710972487E+02  0.14710972487E+02  0.00000000000E+00 0. -1.
         -3   -1    0    0    0  501 -0.00000000000E+00 -0.00000000000E+00 -0.12516589541E+02  0.12516589541E+02  0.00000000000E+00 0.  1.
        -13    1    1    2    0    0 -0.57953666091E+01 -0.10335426826E+02  0.77311755246E+01  0.14148441497E+02  0.00000000000E+00 0. -1.
         13    1    1    2    0    0  0.57953666091E+01  0.10335426826E+02 -0.55367925789E+01  0.13079120531E+02  0.00000000000E+00 0.  1.
<mgrwt>
<rscale>  0 0.27138991E+02</rscale>
<asrwt>0</asrwt>
<pdfrwt beam="1">  1        3 0.22632265E-02 0.27138991E+02</pdfrwt>
<pdfrwt beam="2">  1       -3 0.19256292E-02 0.27138991E+02</pdfrwt>
<totfact> 0.88354218E+05</totfact>
</mgrwt>
</event>
<event>
 4    1  0.4118611E+000  0.2759530E+02  0.7546771E-02  0.1626299E+00
         -4   -1    0    0    0  501 -0.00000000000E+00  0.00000000000E+00  0.10794542929E+02  0.10794542929E+02  0.00000000000E+00 0. -1.
          4   -1    0    0  501    0  0.00000000000E+00 -0.00000000000E+00 -0.17636239923E+02  0.17636239923E+02  0.00000000000E+00 0.  1.
        -13    1    1    2    0    0  0.11742536902E+02 -0.30427682060E+01  0.33531327530E+01  0.12585273558E+02  0.00000000000E+00 0. -1.
         13    1    1    2    0    0 -0.11742536902E+02  0.30427682060E+01 -0.10194829747E+02  0.15845509295E+02  0.00000000000E+00 0.  1.
<mgrwt>
<rscale>  0 0.27595300E+02</rscale>
<asrwt>0</asrwt>
<pdfrwt beam="2">  1        4 0.27132677E-02 0.27595300E+02</pdfrwt>
<pdfrwt beam="1">  1       -4 0.16606989E-02 0.27595300E+02</pdfrwt>
<totfact> 0.63123809E+05</totfact>
</mgrwt>
</event>
<event>
 4    1  0.4118611E+000  0.2219345E+02  0.7546771E-02  0.1704928E+00
          4   -1    0    0  501    0  0.00000000000E+00  0.00000000000E+00  0.12631146805E+02  0.12631146805E+02  0.00000000000E+00 0. -1.
         -4   -1    0    0    0  501 -0.00000000000E+00 -0.00000000000E+00 -0.97487033376E+01  0.97487033376E+01  0.00000000000E+00 0.  1.
        -13    1    1    2    0    0  0.17398526464E+01  0.10944720900E+02  0.86785123163E+00  0.11116077032E+02  0.00000000000E+00 0.  1.
         13    1    1    2    0    0 -0.17398526464E+01 -0.10944720900E+02  0.20145922358E+01  0.11263773111E+02  0.00000000000E+00 0. -1.
<mgrwt>
<rscale>  0 0.22193450E+02</rscale>
<asrwt>0</asrwt>
<pdfrwt beam="1">  1        4 0.19432534E-02 0.22193450E+02</pdfrwt>
<pdfrwt beam="2">  1       -4 0.14998005E-02 0.22193450E+02</pdfrwt>
<totfact> 0.10371894E+06</totfact>
</mgrwt>
</event>
<event>
 4    1  0.4118611E+000  0.2669097E+02  0.7546771E-02  0.1637838E+00
         -4   -1    0    0    0  501 -0.00000000000E+00  0.00000000000E+00  0.25647324124E+01  0.25647324124E+01  0.00000000000E+00 0.  1.
          4   -1    0    0  501    0  0.00000000000E+00 -0.00000000000E+00 -0.69442732733E+02  0.69442732733E+02  0.00000000000E+00 0. -1.
        -13    1    1    2    0    0  0.62361196589E+01  0.88589151959E+01 -0.12414603866E+02  0.16477012958E+02  0.00000000000E+00 0.  1.
         13    1    1    2    0    0 -0.62361196589E+01 -0.88589151959E+01 -0.54463396454E+02  0.55530452187E+02  0.00000000000E+00 0. -1.
<mgrwt>
<rscale>  0 0.26690974E+02</rscale>
<asrwt>0</asrwt>
<pdfrwt beam="2">  1        4 0.10683498E-01 0.26690974E+02</pdfrwt>
<pdfrwt beam="1">  1       -4 0.39457419E-03 0.26690974E+02</pdfrwt>
<totfact> 0.58336680E+05</totfact>
</mgrwt>
</event>
<event>
 4    1  0.4118611E+000  0.3391343E+02  0.7546771E-02  0.1558467E+00
         -2   -1    0    0    0  501 -0.00000000000E+00  0.00000000000E+00  0.42701296161E+01  0.42701296161E+01  0.00000000000E+00 0. -1.
          2   -1    0    0  501    0  0.00000000000E+00 -0.00000000000E+00 -0.67335253910E+02  0.67335253910E+02  0.00000000000E+00 0.  1.
        -13    1    1    2    0    0  0.85293144313E+01 -0.61608692946E+01 -0.34559034953E+01  0.11074691152E+02  0.00000000000E+00 0. -1.
         13    1    1    2    0    0 -0.85293144313E+01  0.61608692946E+01 -0.59609220799E+02  0.60530692375E+02  0.00000000000E+00 0.  1.
<mgrwt>
<rscale>  0 0.33913435E+02</rscale>
<asrwt>0</asrwt>
<pdfrwt beam="2">  1        2 0.10359270E-01 0.33913435E+02</pdfrwt>
<pdfrwt beam="1">  1       -2 0.65694300E-03 0.33913435E+02</pdfrwt>
<totfact> 0.14296940E+06</totfact>
</mgrwt>
</event>
<event>
 4    1  0.4118611E+000  0.2897528E+02  0.7546771E-02  0.1609700E+00
         -4   -1    0    0    0  501 -0.00000000000E+00  0.00000000000E+00  0.26079053414E+01  0.26079053414E+01  0.00000000000E+00 0. -1.
          4   -1    0    0  501    0  0.00000000000E+00 -0.00000000000E+00 -0.80482848465E+02  0.80482848465E+02  0.00000000000E+00 0.  1.
        -13    1    1    2    0    0 -0.13975062460E+02  0.57621650292E+00 -0.28109600679E+02  0.31397198068E+02  0.00000000000E+00 0. -1.
         13    1    1    2    0    0  0.13975062460E+02 -0.57621650292E+00 -0.49765342445E+02  0.51693555738E+02  0.00000000000E+00 0.  1.
<mgrwt>
<rscale>  0 0.28975276E+02</rscale>
<asrwt>0</asrwt>
<pdfrwt beam="2">  1        4 0.12381977E-01 0.28975276E+02</pdfrwt>
<pdfrwt beam="1">  1       -4 0.40121619E-03 0.28975276E+02</pdfrwt>
<totfact> 0.47111982E+05</totfact>
</mgrwt>
</event>
<event>
 4    1  0.4118611E+000  0.3065926E+02  0.7546771E-02  0.1590914E+00
          4   -1    0    0  501    0  0.00000000000E+00  0.00000000000E+00  0.10104864959E+02  0.10104864959E+02  0.00000000000E+00 0.  1.
         -4   -1    0    0    0  501 -0.00000000000E+00 -0.00000000000E+00 -0.23255885855E+02  0.23255885855E+02  0.00000000000E+00 0. -1.
        -11    1    1    2    0    0 -0.14195267318E+02  0.35880073845E+01 -0.11516332685E+02  0.18628079067E+02  0.00000000000E+00 0. -1.
         11    1    1    2    0    0  0.14195267318E+02 -0.35880073845E+01 -0.16346882107E+01  0.14732671746E+02  0.00000000000E+00 0.  1.
<mgrwt>
<rscale>  0 0.30659262E+02</rscale>
<asrwt>0</asrwt>
<pdfrwt beam="1">  1        4 0.15545946E-02 0.30659262E+02</pdfrwt>
<pdfrwt beam="2">  1       -4 0.35778286E-02 0.30659262E+02</pdfrwt>
<totfact> 0.48897219E+05</totfact>
</mgrwt>
</event>
<event>
 4    1  0.4118611E+000  0.2329012E+02  0.7546771E-02  0.1686850E+00
          2   -1    0    0  501    0  0.00000000000E+00  0.00000000000E+00  0.36552909849E+02  0.36552909849E+02  0.00000000000E+00 0. -1.
         -2   -1    0    0    0  501 -0.00000000000E+00 -0.00000000000E+00 -0.37098953322E+01  0.37098953322E+01  0.00000000000E+00 0.  1.
        -11    1    1    2    0    0  0.36685302848E+01  0.10859613310E+02  0.19972039331E+02  0.23027628422E+02  0.00000000000E+00 0. -1.
         11    1    1    2    0    0 -0.36685302848E+01 -0.10859613310E+02  0.12870975186E+02  0.17235176759E+02  0.00000000000E+00 0.  1.
<mgrwt>
<rscale>  0 0.23290124E+02</rscale>
<asrwt>0</asrwt>
<pdfrwt beam="1">  1        2 0.56235244E-02 0.23290124E+02</pdfrwt>
<pdfrwt beam="2">  1       -2 0.57075315E-03 0.23290124E+02</pdfrwt>
<totfact> 0.31420129E+06</totfact>
</mgrwt>
</event>
<event>
 4    1  0.4118611E+000  0.2938824E+02  0.7546771E-02  0.1604951E+00
          2   -1    0    0  501    0  0.00000000000E+00  0.00000000000E+00  0.67603646432E+01  0.67603646432E+01  0.00000000000E+00 0. -1.
         -2   -1    0    0    0  501 -0.00000000000E+00 -0.00000000000E+00 -0.31938692232E+02  0.31938692232E+02  0.00000000000E+00 0.  1.
        -13    1    1    2    0    0 -0.86170380291E+01 -0.66800017621E+01  0.38278934250E+00  0.10909733985E+02  0.00000000000E+00 0. -1.
         13    1    1    2    0    0  0.86170380291E+01  0.66800017621E+01 -0.25561116931E+02  0.27789322890E+02  0.00000000000E+00 0.  1.
<mgrwt>
<rscale>  0 0.29388243E+02</rscale>
<asrwt>0</asrwt>
<pdfrwt beam="1">  1        2 0.10400561E-02 0.29388243E+02</pdfrwt>
<pdfrwt beam="2">  1       -2 0.49136449E-02 0.29388243E+02</pdfrwt>
<totfact> 0.15141492E+06</totfact>
</mgrwt>
</event>
<event>
 4    1  0.4118611E+000  0.2479085E+02  0.7546771E-02  0.1664024E+00
          2   -1    0    0  501    0  0.00000000000E+00  0.00000000000E+00  0.12423861736E+03  0.12423861736E+03  0.00000000000E+00 0. -1.
         -2   -1    0    0    0  501 -0.00000000000E+00 -0.00000000000E+00 -0.12367051830E+01  0.12367051830E+01  0.00000000000E+00 0.  1.
        -11    1    1    2    0    0 -0.88419197569E+01  0.86867438275E+01  0.61938659681E+02  0.63166736709E+02  0.00000000000E+00 0. -1.
         11    1    1    2    0    0  0.88419197569E+01 -0.86867438275E+01  0.61063252492E+02  0.62308585830E+02  0.00000000000E+00 0.  1.
<mgrwt>
<rscale>  0 0.24790848E+02</rscale>
<asrwt>0</asrwt>
<pdfrwt beam="1">  1        2 0.19113624E-01 0.24790848E+02</pdfrwt>
<pdfrwt beam="2">  1       -2 0.19026243E-03 0.24790848E+02</pdfrwt>
<totfact> 0.34343411E+06</totfact>
</mgrwt>
</event>
<event>
 4    1  0.4118611E+000  0.3176396E+02  0.7546771E-02  0.1579371E+00
          2   -1    0    0  501    0  0.00000000000E+00  0.00000000000E+00  0.56335391608E+02  0.56335391608E+02  0.00000000000E+00 0. -1.
         -2   -1    0    0    0  501 -0.00000000000E+00 -0.00000000000E+00 -0.44774227305E+01  0.44774227305E+01  0.00000000000E+00 0.  1.
        -11    1    1    2    0    0 -0.12189459830E+02 -0.51433481531E+01  0.42750695860E+02  0.44751077726E+02  0.00000000000E+00 0. -1.
         11    1    1    2    0    0  0.12189459830E+02  0.51433481531E+01  0.91072730173E+01  0.16061736612E+02  0.00000000000E+00 0.  1.
<mgrwt>
<rscale>  0 0.31763965E+02</rscale>
<asrwt>0</asrwt>
<pdfrwt beam="1">  1        2 0.86669828E-02 0.31763965E+02</pdfrwt>
<pdfrwt beam="2">  1       -2 0.68883431E-03 0.31763965E+02</pdfrwt>
<totfact> 0.16185712E+06</totfact>
</mgrwt>
</event>
<event>
 4    1  0.4118611E+000  0.2398637E+02  0.7546771E-02  0.1676003E+00
         -4   -1    0    0    0  501 -0.00000000000E+00  0.00000000000E+00  0.27144051884E+01  0.27144051884E+01  0.00000000000E+00 0. -1.
          4   -1    0    0  501    0  0.00000000000E+00 -0.00000000000E+00 -0.52990077458E+02  0.52990077458E+02  0.00000000000E+00 0.  1.
        -11    1    1    2    0    0 -0.99760479765E+01  0.55628807294E+01 -0.16646404071E+02  0.20188361591E+02  0.00000000000E+00 0. -1.
         11    1    1    2    0    0  0.99760479765E+01 -0.55628807294E+01 -0.33629268198E+02  0.35516121055E+02  0.00000000000E+00 0.  1.
<mgrwt>
<rscale>  0 0.23986375E+02</rscale>
<asrwt>0</asrwt>
<pdfrwt beam="2">  1        4 0.81523193E-02 0.23986375E+02</pdfrwt>
<pdfrwt beam="1">  1       -4 0.41760081E-03 0.23986375E+02</pdfrwt>
<totfact> 0.77437438E+05</totfact>
</mgrwt>
</event>
<event>
 4    1  0.4118611E+000  0.2491986E+02  0.7546771E-02  0.1662156E+00
          1   -1    0    0  501    0  0.00000000000E+00  0.00000000000E+00  0.23947702902E+01  0.23947702902E+01  0.00000000000E+00 0. -1.
         -1   -1    0    0    0  501 -0.00000000000E+00 -0.00000000000E+00 -0.64828694218E+02  0.64828694218E+02  0.00000000000E+00 0.  1.
        -13    1    1    2    0    0  0.43460887757E+01 -0.98080974161E+01 -0.14121294324E+02  0.17734097551E+02  0.00000000000E+00 0. -1.
         13    1    1    2    0    0 -0.43460887757E+01  0.98080974161E+01 -0.48312629604E+02  0.49489366957E+02  0.00000000000E+00 0.  1.
<mgrwt>
<rscale>  0 0.24919858E+02</rscale>
<asrwt>0</asrwt>
<pdfrwt beam="1">  1        1 0.36842619E-03 0.24919858E+02</pdfrwt>
<pdfrwt beam="2">  1       -1 0.99736455E-02 0.24919858E+02</pdfrwt>
<totfact> 0.20746170E+06</totfact>
</mgrwt>
</event>
<event>
 4    1  0.4118611E+000  0.2411951E+02  0.7546771E-02  0.1673981E+00
         -2   -1    0    0    0  501 -0.00000000000E+00  0.00000000000E+00  0.63731357904E+02  0.63731357904E+02  0.00000000000E+00 0. -1.
          2   -1    0    0  501    0  0.00000000000E+00 -0.00000000000E+00 -0.22820422249E+01  0.22820422249E+01  0.00000000000E+00 0.  1.
        -11    1    1    2    0    0  0.10550680675E+02 -0.43804456605E+01  0.20148456848E+02  0.23161724466E+02  0.00000000000E+00 0.  1.
         11    1    1    2    0    0 -0.10550680675E+02  0.43804456605E+01  0.41300858831E+02  0.42851675663E+02  0.00000000000E+00 0. -1.
<mgrwt>
<rscale>  0 0.24119507E+02</rscale>
<asrwt>0</asrwt>
<pdfrwt beam="2">  1        2 0.35108347E-03 0.24119507E+02</pdfrwt>
<pdfrwt beam="1">  1       -2 0.98048229E-02 0.24119507E+02</pdfrwt>
<totfact> 0.21535727E+06</totfact>
</mgrwt>
</event>
<event>
 4    1  0.4118611E+000  0.3699565E+02  0.7546771E-02  0.1531561E+00
         -3   -1    0    0    0  501 -0.00000000000E+00  0.00000000000E+00  0.21372160876E+02  0.21372160876E+02  0.00000000000E+00 0.  1.
          3   -1    0    0  501    0  0.00000000000E+00 -0.00000000000E+00 -0.16010060828E+02  0.16010060828E+02  0.00000000000E+00 0. -1.
        -13    1    1    2    0    0 -0.10701317711E+02  0.13781996634E+02 -0.35237950896E+01  0.17801088837E+02  0.00000000000E+00 0. -1.
         13    1    1    2    0    0  0.10701317711E+02 -0.13781996634E+02  0.88858951376E+01  0.19581132867E+02  0.00000000000E+00 0.  1.
<mgrwt>
<rscale>  0 0.36995654E+02</rscale>
<asrwt>0</asrwt>
<pdfrwt beam="2">  1        3 0.24630863E-02 0.36995654E+02</pdfrwt>
<pdfrwt beam="1">  1       -3 0.32880248E-02 0.36995654E+02</pdfrwt>
<totfact> 0.41249496E+05</totfact>
</mgrwt>
</event>
<event>
 4    1  0.4118611E+000  0.3323986E+02  0.7546771E-02  0.1564811E+00
          4   -1    0    0  501    0  0.00000000000E+00  0.00000000000E+00  0.15283950663E+02  0.15283950663E+02  0.00000000000E+00 0.  1.
         -4   -1    0    0    0  501 -0.00000000000E+00 -0.00000000000E+00 -0.18072692593E+02  0.18072692593E+02  0.00000000000E+00 0. -1.
        -11    1    1    2    0    0 -0.51805433675E+01  0.12348142935E+02 -0.11273115320E+02  0.17504222135E+02  0.00000000000E+00 0. -1.
         11    1    1    2    0    0  0.51805433675E+01 -0.12348142935E+02  0.84843733906E+01  0.15852421120E+02  0.00000000000E+00 0.  1.
<mgrwt>
<rscale>  0 0.33239864E+02</rscale>
<asrwt>0</asrwt>
<pdfrwt beam="1">  1        4 0.23513770E-02 0.33239864E+02</pdfrwt>
<pdfrwt beam="2">  1       -4 0.27804143E-02 0.33239864E+02</pdfrwt>
<totfact> 0.40632124E+05</totfact>
</mgrwt>
</event>
<event>
 4    1  0.4118611E+000  0.2753435E+02  0.7546771E-02  0.1627060E+00
         -2   -1    0    0    0  501 -0.00000000000E+00  0.00000000000E+00  0.64202368715E+02  0.64202368715E+02  0.00000000000E+00 0.  1.
          2   -1    0    0  501    0  0.00000000000E+00 -0.00000000000E+00 -0.29521515833E+01  0.29521515833E+01  0.00000000000E+00 0. -1.
        -13    1    1    2    0    0  0.13155088606E+02  0.36819157257E+01  0.26455836964E+02  0.29774555733E+02  0.00000000000E+00 0. -1.
         13    1    1    2    0    0 -0.13155088606E+02 -0.36819157257E+01  0.34794380167E+02  0.37379964565E+02  0.00000000000E+00 0.  1.
<mgrwt>
<rscale>  0 0.27534351E+02</rscale>
<asrwt>0</asrwt>
<pdfrwt beam="2">  1        2 0.45417721E-03 0.27534351E+02</pdfrwt>
<pdfrwt beam="1">  1       -2 0.98772865E-02 0.27534351E+02</pdfrwt>
<totfact> 0.15924209E+06</totfact>
</mgrwt>
</event>
<event>
 4    1  0.4118611E+000  0.3765488E+02  0.7546771E-02  0.1526214E+00
          1   -1    0    0  501    0  0.00000000000E+00  0.00000000000E+00  0.49507891667E+02  0.49507891667E+02  0.00000000000E+00 0. -1.
         -1   -1    0    0    0  501 -0.00000000000E+00 -0.00000000000E+00 -0.71599195995E+01  0.71599195995E+01  0.00000000000E+00 0.  1.
        -11    1    1    2    0    0  0.51302769213E+01 -0.12624067114E+02  0.40725617141E+02  0.42944879827E+02  0.00000000000E+00 0. -1.
         11    1    1    2    0    0 -0.51302769213E+01  0.12624067114E+02  0.16223549262E+01  0.13722931440E+02  0.00000000000E+00 0.  1.
<mgrwt>
<rscale>  0 0.37654881E+02</rscale>
<asrwt>0</asrwt>
<pdfrwt beam="1">  1        1 0.76165985E-02 0.37654881E+02</pdfrwt>
<pdfrwt beam="2">  1       -1 0.11015261E-02 0.37654881E+02</pdfrwt>
<totfact> 0.94747939E+05</totfact>
</mgrwt>
</event>
<event>
 4    1  0.4118611E+000  0.2668727E+02  0.7546771E-02  0.1637886E+00
         -3   -1    0    0    0  501 -0.00000000000E+00  0.00000000000E+00  0.33061018169E+01  0.33061018169E+01  0.00000000000E+00 0.  1.
          3   -1    0    0  501    0  0.00000000000E+00 -0.00000000000E+00 -0.53855752489E+02  0.53855752489E+02  0.00000000000E+00 0. -1.
        -11    1    1    2    0    0 -0.36417276152E+01  0.11655408234E+02 -0.36797824255E+02  0.38771001935E+02  0.00000000000E+00 0. -1.
         11    1    1    2    0    0  0.36417276152E+01 -0.11655408234E+02 -0.13751826417E+02  0.18390852371E+02  0.00000000000E+00 0.  1.
<mgrwt>
<rscale>  0 0.26687270E+02</rscale>
<asrwt>0</asrwt>
<pdfrwt beam="2">  1        3 0.82855006E-02 0.26687270E+02</pdfrwt>
<pdfrwt beam="1">  1       -3 0.50863103E-03 0.26687270E+02</pdfrwt>
<totfact> 0.83792226E+05</totfact>
</mgrwt>
</event>
<event>
 4    1  0.4118611E+000  0.2302853E+02  0.7546771E-02  0.1691048E+00
          1   -1    0    0  501    0  0.00000000000E+00  0.00000000000E+00  0.18480842626E+01  0.18480842626E+01  0.00000000000E+00 0. -1.
         -1   -1    0    0    0  501 -0.00000000000E+00 -0.00000000000E+00 -0.71738221002E+02  0.71738221002E+02  0.00000000000E+00 0.  1.
        -11    1    1    2    0    0  0.99266271240E+01  0.58130644241E+01 -0.33351721326E+02  0.35279837861E+02  0.00000000000E+00 0.  1.
         11    1    1    2    0    0 -0.99266271240E+01 -0.58130644241E+01 -0.36538415414E+02  0.38306467405E+02  0.00000000000E+00 0. -1.
<mgrwt>
<rscale>  0 0.23028528E+02</rscale>
<asrwt>0</asrwt>
<pdfrwt beam="1">  1        1 0.28432065E-03 0.23028528E+02</pdfrwt>
<pdfrwt beam="2">  1       -1 0.11036649E-01 0.23028528E+02</pdfrwt>
<totfact> 0.24485146E+06</totfact>
</mgrwt>
</event>
<event>
 4    1  0.4118611E+000  0.2606989E+02  0.7546771E-02  0.1646094E+00
          4   -1    0    0  501    0  0.00000000000E+00  0.00000000000E+00  0.39716401372E+02  0.39716401372E+02  0.00000000000E+00 0. -1.
         -4   -1    0    0    0  501 -0.00000000000E+00 -0.00000000000E+00 -0.42780763159E+01  0.42780763159E+01  0.00000000000E+00 0.  1.
        -13    1    1    2    0    0 -0.15612438296E+01 -0.12786661188E+02  0.14355196895E+02  0.19287505399E+02  0.00000000000E+00 0. -1.
         13    1    1    2    0    0  0.15612438296E+01  0.12786661188E+02  0.21083128161E+02  0.24706972289E+02  0.00000000000E+00 0.  1.
<mgrwt>
<rscale>  0 0.26069890E+02</rscale>
<asrwt>0</asrwt>
<pdfrwt beam="1">  1        4 0.61102153E-02 0.26069890E+02</pdfrwt>
<pdfrwt beam="2">  1       -4 0.65816561E-03 0.26069890E+02</pdfrwt>
<totfact> 0.67442064E+05</totfact>
</mgrwt>
</event>
<event>
 4    1  0.4118611E+000  0.2661522E+02  0.7546771E-02  0.1638830E+00
         -1   -1    0    0    0  501 -0.00000000000E+00  0.00000000000E+00  0.12100024183E+02  0.12100024183E+02  0.00000000000E+00 0.  1.
          1   -1    0    0  501    0  0.00000000000E+00 -0.00000000000E+00 -0.14635712348E+02  0.14635712348E+02  0.00000000000E+00 0. -1.
        -13    1    1    2    0    0 -0.11244726070E+02  0.60703992753E+01 -0.49993465626E+01  0.13721773858E+02  0.00000000000E+00 0.  1.
         13    1    1    2    0    0  0.11244726070E+02 -0.60703992753E+01  0.24636583981E+01  0.13013962673E+02  0.00000000000E+00 0. -1.
<mgrwt>
<rscale>  0 0.26615219E+02</rscale>
<asrwt>0</asrwt>
<pdfrwt beam="2">  1        1 0.22516481E-02 0.26615219E+02</pdfrwt>
<pdfrwt beam="1">  1       -1 0.18615422E-02 0.26615219E+02</pdfrwt>
<totfact> 0.20241958E+06</totfact>
</mgrwt>
</event>
<event>
 4    1  0.4118611E+000  0.2192361E+02  0.7546771E-02  0.1709576E+00
         -4   -1    0    0    0  501 -0.00000000000E+00  0.00000000000E+00  0.99334786279E+01  0.99334786279E+01  0.00000000000E+00 0. -1.
          4   -1    0    0  501    0  0.00000000000E+00 -0.00000000000E+00 -0.12096584512E+02  0.12096584512E+02  0.00000000000E+00 0.  1.
        -11    1    1    2    0    0 -0.86737771188E+01  0.52062025389E+01  0.31605817497E+01  0.10598501374E+02  0.00000000000E+00 0. -1.
         11    1    1    2    0    0  0.86737771188E+01 -0.52062025389E+01 -0.53236876339E+01  0.11431561766E+02  0.00000000000E+00 0.  1.
<mgrwt>
<rscale>  0 0.21923610E+02</rscale>
<asrwt>0</asrwt>
<pdfrwt beam="2">  1        4 0.18610130E-02 0.21923610E+02</pdfrwt>
<pdfrwt beam="1">  1       -4 0.15282275E-02 0.21923610E+02</pdfrwt>
<totfact> 0.10658486E+06</totfact>
</mgrwt>
</event>
<event>
 4    1  0.4118611E+000  0.5398628E+02  0.7546771E-02  0.1424955E+00
          4   -1    0    0  501    0  0.00000000000E+00  0.00000000000E+00  0.17862987869E+03  0.17862987869E+03  0.00000000000E+00 0.  1.
         -4   -1    0    0    0  501 -0.00000000000E+00 -0.00000000000E+00 -0.40789904932E+01  0.40789904932E+01  0.00000000000E+00 0. -1.
        -11    1    1    2    0    0  0.17518430880E+02  0.18100411879E+02  0.54443818740E+02  0.59988746692E+02  0.00000000000E+00 0. -1.
         11    1    1    2    0    0 -0.17518430880E+02 -0.18100411879E+02  0.12010706946E+03  0.12272012249E+03  0.00000000000E+00 0.  1.
<mgrwt>
<rscale>  0 0.53986279E+02</rscale>
<asrwt>0</asrwt>
<pdfrwt beam="1">  1        4 0.27481514E-01 0.53986279E+02</pdfrwt>
<pdfrwt beam="2">  1       -4 0.62753714E-03 0.53986279E+02</pdfrwt>
<totfact> 0.85450657E+04</totfact>
</mgrwt>
</event>
<event>
 4    1  0.4118611E+000  0.2232867E+02  0.7546771E-02  0.1702629E+00
         -2   -1    0    0    0  501 -0.00000000000E+00  0.00000000000E+00  0.18633935977E+01  0.18633935977E+01  0.00000000000E+00 0. -1.
          2   -1    0    0  501    0  0.00000000000E+00 -0.00000000000E+00 -0.66889975763E+02  0.66889975763E+02  0.00000000000E+00 0.  1.
        -11    1    1    2    0    0  0.40048498450E+01  0.10406746185E+02 -0.30817899227E+02  0.32773191807E+02  0.00000000000E+00 0. -1.
         11    1    1    2    0    0 -0.40048498450E+01 -0.10406746185E+02 -0.34208682938E+02  0.35980177554E+02  0.00000000000E+00 0.  1.
<mgrwt>
<rscale>  0 0.22328668E+02</rscale>
<asrwt>0</asrwt>
<pdfrwt beam="2">  1        2 0.10290765E-01 0.22328668E+02</pdfrwt>
<pdfrwt beam="1">  1       -2 0.28667595E-03 0.22328668E+02</pdfrwt>
<totfact> 0.37977956E+06</totfact>
</mgrwt>
</event>
<event>
 4    1  0.4118611E+000  0.3396453E+02  0.7546771E-02  0.1557993E+00
         -2   -1    0    0    0  501 -0.00000000000E+00  0.00000000000E+00  0.15812912923E+02  0.15812912923E+02  0.00000000000E+00 0.  1.
          2   -1    0    0  501    0  0.00000000000E+00 -0.00000000000E+00 -0.18238093224E+02  0.18238093224E+02  0.00000000000E+00 0. -1.
        -11    1    1    2    0    0  0.10271167498E+02  0.60744846599E+01  0.10901266025E+02  0.16162730172E+02  0.00000000000E+00 0.  1.
         11    1    1    2    0    0 -0.10271167498E+02 -0.60744846599E+01 -0.13326446327E+02  0.17888275975E+02  0.00000000000E+00 0. -1.
<mgrwt>
<rscale>  0 0.33964533E+02</rscale>
<asrwt>0</asrwt>
<pdfrwt beam="2">  1        2 0.28058605E-02 0.33964533E+02</pdfrwt>
<pdfrwt beam="1">  1       -2 0.24327558E-02 0.33964533E+02</pdfrwt>
<totfact> 0.11772906E+06</totfact>
</mgrwt>
</event>
<event>
 4    1  0.4118611E+000  0.2115829E+02  0.7546771E-02  0.1723229E+00
          2   -1    0    0  501    0  0.00000000000E+00  0.00000000000E+00  0.11121388986E+03  0.11121388986E+03  0.00000000000E+00 0.  1.
         -2   -1    0    0    0  501 -0.00000000000E+00 -0.00000000000E+00 -0.10063336546E+01  0.10063336546E+01  0.00000000000E+00 0. -1.
        -11    1    1    2    0    0 -0.10471235578E+02 -0.28114490630E+00  0.62957161120E+02  0.63822644518E+02  0.00000000000E+00 0. -1.
         11    1    1    2    0    0  0.10471235578E+02  0.28114490630E+00  0.47250395081E+02  0.48397578993E+02  0.00000000000E+00 0.  1.
<mgrwt>
<rscale>  0 0.21158287E+02</rscale>
<asrwt>0</asrwt>
<pdfrwt beam="1">  1        2 0.17109819E-01 0.21158287E+02</pdfrwt>
<pdfrwt beam="2">  1       -2 0.15482065E-03 0.21158287E+02</pdfrwt>
<totfact> 0.47742944E+06</totfact>
</mgrwt>
</event>
<event>
 4    1  0.4118611E+000  0.2564623E+02  0.7546771E-02  0.1651890E+00
         -2   -1    0    0    0  501 -0.00000000000E+00  0.00000000000E+00  0.62039706239E+02  0.62039706239E+02  0.00000000000E+00 0.  1.
          2   -1    0    0  501    0  0.00000000000E+00 -0.00000000000E+00 -0.26504354818E+01  0.26504354818E+01  0.00000000000E+00 0. -1.
        -11    1    1    2    0    0 -0.67057013102E+01 -0.10529708796E+02  0.37087921702E+02  0.39132532931E+02  0.00000000000E+00 0.  1.
         11    1    1    2    0    0  0.67057013102E+01  0.10529708796E+02  0.22301349054E+02  0.25557608789E+02  0.00000000000E+00 0. -1.
<mgrwt>
<rscale>  0 0.25646227E+02</rscale>
<asrwt>0</asrwt>
<pdfrwt beam="2">  1        2 0.40775935E-03 0.25646227E+02</pdfrwt>
<pdfrwt beam="1">  1       -2 0.95445691E-02 0.25646227E+02</pdfrwt>
<totfact> 0.18833405E+06</totfact>
</mgrwt>
</event>
<event>
 4    1  0.4118611E+000  0.2606703E+02  0.7546771E-02  0.1646132E+00
         -1   -1    0    0    0  501 -0.00000000000E+00  0.00000000000E+00  0.29703186159E+01  0.29703186159E+01  0.00000000000E+00 0.  1.
          1   -1    0    0  501    0  0.00000000000E+00 -0.00000000000E+00 -0.57189975286E+02  0.57189975286E+02  0.00000000000E+00 0. -1.
        -13    1    1    2    0    0  0.93253821129E+01 -0.64876100204E+01 -0.12364371193E+02  0.16790756693E+02  0.00000000000E+00 0.  1.
         13    1    1    2    0    0 -0.93253821129E+01  0.64876100204E+01 -0.41855285478E+02  0.43369537209E+02  0.00000000000E+00 0. -1.
<mgrwt>
<rscale>  0 0.26067025E+02</rscale>
<asrwt>0</asrwt>
<pdfrwt beam="2">  1        1 0.87984568E-02 0.26067025E+02</pdfrwt>
<pdfrwt beam="1">  1       -1 0.45697215E-03 0.26067025E+02</pdfrwt>
<totfact> 0.23079557E+06</totfact>
</mgrwt>
</event>
<event>
 4    1  0.4118611E+000  0.3406206E+02  0.7546771E-02  0.1557091E+00
          2   -1    0    0  501    0  0.00000000000E+00  0.00000000000E+00  0.84945039752E+02  0.84945039752E+02  0.00000000000E+00 0.  1.
         -2   -1    0    0    0  501 -0.00000000000E+00 -0.00000000000E+00 -0.34146317572E+01  0.34146317572E+01  0.00000000000E+00 0. -1.
        -11    1    1    2    0    0 -0.74387818394E+00 -0.15301545331E+02  0.21463203886E+02  0.26369675109E+02  0.00000000000E+00 0. -1.
         11    1    1    2    0    0  0.74387818394E+00  0.15301545331E+02  0.60067204109E+02  0.61989996401E+02  0.00000000000E+00 0.  1.
<mgrwt>
<rscale>  0 0.34062063E+02</rscale>
<asrwt>0</asrwt>
<pdfrwt beam="1">  1        2 0.13068466E-01 0.34062063E+02</pdfrwt>
<pdfrwt beam="2">  1       -2 0.52532802E-03 0.34062063E+02</pdfrwt>
<totfact> 0.14860483E+06</totfact>
</mgrwt>
</event>
<event>
 4    1  0.4118611E+000  0.2348357E+02  0.7546771E-02  0.1683789E+00
         -1   -1    0    0    0  501 -0.00000000000E+00  0.00000000000E+00  0.17387994613E+02  0.17387994613E+02  0.00000000000E+00 0. -1.
          1   -1    0    0  501    0  0.00000000000E+00 -0.00000000000E+00 -0.79290039304E+01  0.79290039304E+01  0.00000000000E+00 0.  1.
        -13    1    1    2    0    0  0.46801578130E-01  0.11577944840E+02  0.68361504762E+01  0.13445592231E+02  0.00000000000E+00 0.  1.
         13    1    1    2    0    0 -0.46801578130E-01 -0.11577944840E+02  0.26228402065E+01  0.11871406313E+02  0.00000000000E+00 0. -1.
<mgrwt>
<rscale>  0 0.23483567E+02</rscale>
<asrwt>0</asrwt>
<pdfrwt beam="2">  1        1 0.12198468E-02 0.23483567E+02</pdfrwt>
<pdfrwt beam="1">  1       -1 0.26750761E-02 0.23483567E+02</pdfrwt>
<totfact> 0.26372840E+06</totfact>
</mgrwt>
</event>
<event>
 4    1  0.4118611E+000  0.3539951E+02  0.7546771E-02  0.1545081E+00
         -2   -1    0    0    0  501 -0.00000000000E+00  0.00000000000E+00  0.28458352564E+01  0.28458352564E+01  0.00000000000E+00 0. -1.
          2   -1    0    0  501    0  0.00000000000E+00 -0.00000000000E+00 -0.11008416910E+03  0.11008416910E+03  0.00000000000E+00 0.  1.
        -13    1    1    2    0    0 -0.13238222365E+02  0.88201847953E+01 -0.28859928513E+02  0.32953629011E+02  0.00000000000E+00 0.  1.
         13    1    1    2    0    0  0.13238222365E+02 -0.88201847953E+01 -0.78378405326E+02  0.79976375341E+02  0.00000000000E+00 0. -1.
<mgrwt>
<rscale>  0 0.35399515E+02</rscale>
<asrwt>0</asrwt>
<pdfrwt beam="2">  1        2 0.16936026E-01 0.35399515E+02</pdfrwt>
<pdfrwt beam="1">  1       -2 0.43782082E-03 0.35399515E+02</pdfrwt>
<totfact> 0.14418181E+06</totfact>
</mgrwt>
</event>
<event>
 4    1  0.4118611E+000  0.2266524E+02  0.7546771E-02  0.1696995E+00
          4   -1    0    0  501    0  0.00000000000E+00  0.00000000000E+00  0.86778139672E+01  0.86778139672E+01  0.00000000000E+00 0.  1.
         -4   -1    0    0    0  501 -0.00000000000E+00 -0.00000000000E+00 -0.14799609164E+02  0.14799609164E+02  0.00000000000E+00 0. -1.
        -13    1    1    2    0    0  0.10169859588E+02  0.21608059965E+01  0.16099128528E+01  0.10520786377E+02  0.00000000000E+00 0.  1.
         13    1    1    2    0    0 -0.10169859588E+02 -0.21608059965E+01 -0.77317080492E+01  0.12956636753E+02  0.00000000000E+00 0. -1.
<mgrwt>
<rscale>  0 0.22665238E+02</rscale>
<asrwt>0</asrwt>
<pdfrwt beam="1">  1        4 0.13350483E-02 0.22665238E+02</pdfrwt>
<pdfrwt beam="2">  1       -4 0.22768630E-02 0.22665238E+02</pdfrwt>
<totfact> 0.98742056E+05</totfact>
</mgrwt>
</event>
<event>
 4    1  0.4118611E+000  0.2631295E+02  0.7546771E-02  0.1642829E+00
         -2   -1    0    0    0  501 -0.00000000000E+00  0.00000000000E+00  0.68039493731E+01  0.68039493731E+01  0.00000000000E+00 0.  1.
          2   -1    0    0  501    0  0.00000000000E+00 -0.00000000000E+00 -0.25440050844E+02  0.25440050844E+02  0.00000000000E+00 0. -1.
        -11    1    1    2    0    0 -0.11085622629E+02  0.48920556084E+01 -0.30373808526E+01  0.12491954194E+02  0.00000000000E+00 0.  1.
         11    1    1    2    0    0  0.11085622629E+02 -0.48920556084E+01 -0.15598720618E+02  0.19752046023E+02  0.00000000000E+00 0. -1.
<mgrwt>
<rscale>  0 0.26312949E+02</rscale>
<asrwt>0</asrwt>
<pdfrwt beam="2">  1        2 0.39138540E-02 0.26312949E+02</pdfrwt>
<pdfrwt beam="1">  1       -2 0.10467614E-02 0.26312949E+02</pdfrwt>
<totfact> 0.22657358E+06</totfact>
</mgrwt>
</event>
<event>
 4    1  0.4118611E+000  0.2133180E+02  0.7546771E-02  0.1720071E+00
         -3   -1    0    0    0  501 -0.00000000000E+00  0.00000000000E+00  0.26754392151E+02  0.26754392151E+02  0.00000000000E+00 0.  1.
          3   -1    0    0  501    0  0.00000000000E+00 -0.00000000000E+00 -0.42520663839E+01  0.42520663839E+01  0.00000000000E+00 0. -1.
        -13    1    1    2    0    0  0.10049566507E+02 -0.33985183829E+01  0.12855151990E+02  0.16667292727E+02  0.00000000000E+00 0. -1.
         13    1    1    2    0    0 -0.10049566507E+02  0.33985183829E+01  0.96471737768E+01  0.14339165807E+02  0.00000000000E+00 0.  1.
<mgrwt>
<rscale>  0 0.21331803E+02</rscale>
<asrwt>0</asrwt>
<pdfrwt beam="2">  1        3 0.65416408E-03 0.21331803E+02</pdfrwt>
<pdfrwt beam="1">  1       -3 0.41160602E-02 0.21331803E+02</pdfrwt>
<totfact> 0.14961552E+06</totfact>
</mgrwt>
</event>
<event>
 4    1  0.4118611E+000  0.3493085E+02  0.7546771E-02  0.1549216E+00
         -2   -1    0    0    0  501 -0.00000000000E+00  0.00000000000E+00  0.11673145469E+02  0.11673145469E+02  0.00000000000E+00 0.  1.
          2   -1    0    0  501    0  0.00000000000E+00 -0.00000000000E+00 -0.26131862052E+02  0.26131862052E+02  0.00000000000E+00 0. -1.
        -13    1    1    2    0    0 -0.54196818972E+01 -0.16461131996E+02 -0.95754909756E+01  0.19799794087E+02  0.00000000000E+00 0. -1.
         13    1    1    2    0    0  0.54196818972E+01  0.16461131996E+02 -0.48832256080E+01  0.18005213434E+02  0.00000000000E+00 0.  1.
<mgrwt>
<rscale>  0 0.34930848E+02</rscale>
<asrwt>0</asrwt>
<pdfrwt beam="2">  1        2 0.40202864E-02 0.34930848E+02</pdfrwt>
<pdfrwt beam="1">  1       -2 0.17958685E-02 0.34930848E+02</pdfrwt>
<totfact> 0.11465426E+06</totfact>
</mgrwt>
</event>
<event>
 4    1  0.4118611E+000  0.2354915E+02  0.7546771E-02  0.1682760E+00
         -4   -1    0    0    0  501 -0.00000000000E+00  0.00000000000E+00  0.71399086991E+01  0.71399086991E+01  0.00000000000E+00 0.  1.
          4   -1    0    0  501    0  0.00000000000E+00 -0.00000000000E+00 -0.19417699537E+02  0.19417699537E+02  0.00000000000E+00 0. -1.
        -13    1    1    2    0    0 -0.72571723830E+01 -0.78492541813E+01 -0.57240528396E+00  0.10705372016E+02  0.00000000000E+00 0.  1.
         13    1    1    2    0    0  0.72571723830E+01  0.78492541813E+01 -0.11705385553E+02  0.15852236219E+02  0.00000000000E+00 0. -1.
<mgrwt>
<rscale>  0 0.23549149E+02</rscale>
<asrwt>0</asrwt>
<pdfrwt beam="2">  1        4 0.29873384E-02 0.23549149E+02</pdfrwt>
<pdfrwt beam="1">  1       -4 0.10984475E-02 0.23549149E+02</pdfrwt>
<totfact> 0.89855061E+05</totfact>
</mgrwt>
</event>
<event>
 4    1  0.4118611E+000  0.3461646E+02  0.7546771E-02  0.1552033E+00
          2   -1    0    0  501    0  0.00000000000E+00  0.00000000000E+00  0.18425983150E+02  0.18425983150E+02  0.00000000000E+00 0.  1.
         -2   -1    0    0    0  501 -0.00000000000E+00 -0.00000000000E+00 -0.16258282036E+02  0.16258282036E+02  0.00000000000E+00 0. -1.
        -11    1    1    2    0    0 -0.34617656578E+01 -0.11673305989E+02  0.13409366035E+02  0.18112454048E+02  0.00000000000E+00 0.  1.
         11    1    1    2    0    0  0.34617656578E+01  0.11673305989E+02 -0.11241664922E+02  0.16571811138E+02  0.00000000000E+00 0. -1.
<mgrwt>
<rscale>  0 0.34616460E+02</rscale>
<asrwt>0</asrwt>
<pdfrwt beam="1">  1        2 0.28347666E-02 0.34616460E+02</pdfrwt>
<pdfrwt beam="2">  1       -2 0.25012742E-02 0.34616460E+02</pdfrwt>
<totfact> 0.11242053E+06</totfact>
</mgrwt>
</event>
<event>
 4    1  0.4118611E+000  0.2473737E+02  0.7546771E-02  0.1664803E+00
         -3   -1    0    0    0  501 -0.00000000000E+00  0.00000000000E+00  0.14262502586E+02  0.14262502586E+02  0.00000000000E+00 0. -1.
          3   -1    0    0  501    0  0.00000000000E+00 -0.00000000000E+00 -0.10726333258E+02  0.10726333258E+02  0.00000000000E+00 0.  1.
        -13    1    1    2    0    0  0.80930440022E+01  0.93289912654E+01  0.10852572042E+01  0.12397791031E+02  0.00000000000E+00 0.  1.
         13    1    1    2    0    0 -0.80930440022E+01 -0.93289912654E+01  0.24509121232E+01  0.12591044813E+02  0.00000000000E+00 0. -1.
<mgrwt>
<rscale>  0 0.24737369E+02</rscale>
<asrwt>0</asrwt>
<pdfrwt beam="2">  1        3 0.16502051E-02 0.24737369E+02</pdfrwt>
<pdfrwt beam="1">  1       -3 0.21942312E-02 0.24737369E+02</pdfrwt>
<totfact> 0.10992058E+06</totfact>
</mgrwt>
</event>
<event>
 4    1  0.4118611E+000  0.2248578E+02  0.7546771E-02  0.1699984E+00
          2   -1    0    0  501    0  0.00000000000E+00  0.00000000000E+00  0.49745070991E+02  0.49745070991E+02  0.00000000000E+00 0.  1.
         -2   -1    0    0    0  501 -0.00000000000E+00 -0.00000000000E+00 -0.25410063605E+01  0.25410063605E+01  0.00000000000E+00 0. -1.
        -13    1    1    2    0    0  0.96633735883E+01 -0.51240717960E+01  0.17553741932E+02  0.20682619677E+02  0.00000000000E+00 0. -1.
         13    1    1    2    0    0 -0.96633735883E+01  0.51240717960E+01  0.29650322698E+02  0.31603457675E+02  0.00000000000E+00 0.  1.
<mgrwt>
<rscale>  0 0.22485777E+02</rscale>
<asrwt>0</asrwt>
<pdfrwt beam="1">  1        2 0.76530871E-02 0.22485777E+02</pdfrwt>
<pdfrwt beam="2">  1       -2 0.39092409E-03 0.22485777E+02</pdfrwt>
<totfact> 0.35556679E+06</totfact>
</mgrwt>
</event>
<event>
 4    1  0.4118611E+000  0.2834265E+02  0.7546771E-02  0.1617166E+00
          2   -1    0    0  501    0  0.00000000000E+00  0.00000000000E+00  0.31639625465E+01  0.31639625465E+01  0.00000000000E+00 0. -1.
         -2   -1    0    0    0  501 -0.00000000000E+00 -0.00000000000E+00 -0.63473070446E+02  0.63473070446E+02  0.00000000000E+00 0.  1.
        -11    1    1    2    0    0  0.25006161981E+01  0.12462747465E+02 -0.44884905485E+02  0.46650057837E+02  0.00000000000E+00 0.  1.
         11    1    1    2    0    0 -0.25006161981E+01 -0.12462747465E+02 -0.15424202414E+02  0.19986975155E+02  0.00000000000E+00 0. -1.
<mgrwt>
<rscale>  0 0.28342648E+02</rscale>
<asrwt>0</asrwt>
<pdfrwt beam="1">  1        2 0.48676347E-03 0.28342648E+02</pdfrwt>
<pdfrwt beam="2">  1       -2 0.97650877E-02 0.28342648E+02</pdfrwt>
<totfact> 0.14931952E+06</totfact>
</mgrwt>
</event>
<event>
 4    1  0.4118611E+000  0.3133553E+02  0.7546771E-02  0.1583779E+00
         -2   -1    0    0    0  501 -0.00000000000E+00  0.00000000000E+00  0.23555474145E+02  0.23555474145E+02  0.00000000000E+00 0. -1.
          2   -1    0    0  501    0  0.00000000000E+00 -0.00000000000E+00 -0.10421310363E+02  0.10421310363E+02  0.00000000000E+00 0.  1.
        -13    1    1    2    0    0  0.14033873940E+02  0.67832832486E+00 -0.95050497502E+00  0.14082372200E+02  0.00000000000E+00 0.  1.
         13    1    1    2    0    0 -0.14033873940E+02 -0.67832832486E+00  0.14084668757E+02  0.19894412308E+02  0.00000000000E+00 0. -1.
<mgrwt>
<rscale>  0 0.31335533E+02</rscale>
<asrwt>0</asrwt>
<pdfrwt beam="2">  1        2 0.16032785E-02 0.31335533E+02</pdfrwt>
<pdfrwt beam="1">  1       -2 0.36239191E-02 0.31335533E+02</pdfrwt>
<totfact> 0.13529403E+06</totfact>
</mgrwt>
</event>
<event>
 4    1  0.4118611E+000  0.3204833E+02  0.7546771E-02  0.1576491E+00
         -2   -1    0    0    0  501 -0.00000000000E+00  0.00000000000E+00  0.52933037915E+02  0.52933037915E+02  0.00000000000E+00 0. -1.
          2   -1    0    0  501    0  0.00000000000E+00 -0.00000000000E+00 -0.48509190470E+01  0.48509190470E+01  0.00000000000E+00 0.  1.
        -13    1    1    2    0    0 -0.11385562575E+02  0.11238920058E+02  0.22398897518E+02  0.27525533042E+02  0.00000000000E+00 0. -1.
         13    1    1    2    0    0  0.11385562575E+02 -0.11238920058E+02  0.25683221351E+02  0.30258423921E+02  0.00000000000E+00 0.  1.
<mgrwt>
<rscale>  0 0.32048331E+02</rscale>
<asrwt>0</asrwt>
<pdfrwt beam="2">  1        2 0.74629527E-03 0.32048331E+02</pdfrwt>
<pdfrwt beam="1">  1       -2 0.81435439E-02 0.32048331E+02</pdfrwt>
<totfact> 0.11579256E+06</totfact>
</mgrwt>
</event>
<event>
 4    1  0.4118611E+000  0.4049638E+02  0.7546771E-02  0.1504590E+00
         -2   -1    0    0    0  501 -0.00000000000E+00  0.00000000000E+00  0.12495929213E+02  0.12495929213E+02  0.00000000000E+00 0. -1.
          2   -1    0    0  501    0  0.00000000000E+00 -0.00000000000E+00 -0.32809824940E+02  0.32809824940E+02  0.00000000000E+00 0.  1.
        -11    1    1    2    0    0  0.16738507570E+02 -0.23691524604E+01 -0.22624916830E+02  0.28243182905E+02  0.00000000000E+00 0.  1.
         11    1    1    2    0    0 -0.16738507570E+02  0.23691524604E+01  0.23110211027E+01  0.17062571248E+02  0.00000000000E+00 0. -1.
<mgrwt>
<rscale>  0 0.40496383E+02</rscale>
<asrwt>0</asrwt>
<pdfrwt beam="2">  1        2 0.50476653E-02 0.40496383E+02</pdfrwt>
<pdfrwt beam="1">  1       -2 0.19224507E-02 0.40496383E+02</pdfrwt>
<totfact> 0.81765950E+05</totfact>
</mgrwt>
</event>
<event>
 4    1  0.4118611E+000  0.2428163E+02  0.7546771E-02  0.1671540E+00
          2   -1    0    0  501    0  0.00000000000E+00  0.00000000000E+00  0.57840725480E+01  0.57840725480E+01  0.00000000000E+00 0. -1.
         -2   -1    0    0    0  501 -0.00000000000E+00 -0.00000000000E+00 -0.25483669685E+02  0.25483669685E+02  0.00000000000E+00 0.  1.
        -13    1    1    2    0    0  0.12082829505E+02  0.83485930990E+00 -0.87665616959E+01  0.14951400031E+02  0.00000000000E+00 0.  1.
         13    1    1    2    0    0 -0.12082829505E+02 -0.83485930990E+00 -0.10933035441E+02  0.16316342202E+02  0.00000000000E+00 0. -1.
<mgrwt>
<rscale>  0 0.24281630E+02</rscale>
<asrwt>0</asrwt>
<pdfrwt beam="1">  1        2 0.88985730E-03 0.24281630E+02</pdfrwt>
<pdfrwt beam="2">  1       -2 0.39205646E-02 0.24281630E+02</pdfrwt>
<totfact> 0.23884438E+06</totfact>
</mgrwt>
</event>
<event>
 4    1  0.4118611E+000  0.2307095E+02  0.7546771E-02  0.1690363E+00
          2   -1    0    0  501    0  0.00000000000E+00  0.00000000000E+00  0.17298920784E+02  0.17298920784E+02  0.00000000000E+00 0. -1.
         -2   -1    0    0    0  501 -0.00000000000E+00 -0.00000000000E+00 -0.76922251236E+01  0.76922251236E+01  0.00000000000E+00 0.  1.
        -11    1    1    2    0    0  0.31073639942E+01 -0.10833126483E+02  0.21378860080E+01  0.11470958852E+02  0.00000000000E+00 0. -1.
         11    1    1    2    0    0 -0.31073639942E+01  0.10833126483E+02  0.74688096525E+01  0.13520187056E+02  0.00000000000E+00 0.  1.
<mgrwt>
<rscale>  0 0.23070951E+02</rscale>
<asrwt>0</asrwt>
<pdfrwt beam="1">  1        2 0.26613724E-02 0.23070951E+02</pdfrwt>
<pdfrwt beam="2">  1       -2 0.11834192E-02 0.23070951E+02</pdfrwt>
<totfact> 0.29669263E+06</totfact>
</mgrwt>
</event>
<event>
 4    1  0.4118611E+000  0.3352855E+02  0.7546771E-02  0.1562069E+00
          2   -1    0    0  501    0  0.00000000000E+00  0.00000000000E+00  0.66500707691E+02  0.66500707691E+02  0.00000000000E+00 0. -1.
         -2   -1    0    0    0  501 -0.00000000000E+00 -0.00000000000E+00 -0.42261353745E+01  0.42261353745E+01  0.00000000000E+00 0.  1.
        -11    1    1    2    0    0 -0.16397175939E+02 -0.19793690369E+01  0.37198320244E+02  0.40700126652E+02  0.00000000000E+00 0.  1.
         11    1    1    2    0    0  0.16397175939E+02  0.19793690369E+01  0.25076252073E+02  0.30026716413E+02  0.00000000000E+00 0. -1.
<mgrwt>
<rscale>  0 0.33528555E+02</rscale>
<asrwt>0</asrwt>
<pdfrwt beam="1">  1        2 0.10230877E-01 0.33528555E+02</pdfrwt>
<pdfrwt beam="2">  1       -2 0.65017472E-03 0.33528555E+02</pdfrwt>
<totfact> 0.14659963E+06</totfact>
</mgrwt>
</event>
<event>
 4    1  0.4118611E+000  0.6320326E+02  0.7546771E-02  0.1384860E+00
          2   -1    0    0  501    0  0.00000000000E+00  0.00000000000E+00  0.54510252499E+02  0.54510252499E+02  0.00000000000E+00 0. -1.
         -2   -1    0    0    0  501 -0.00000000000E+00 -0.00000000000E+00 -0.18320642817E+02  0.18320642817E+02  0.00000000000E+00 0.  1.
        -11    1    1    2    0    0  0.49131340769E+01 -0.31213497775E+02  0.18661131735E+02  0.36696855008E+02  0.00000000000E+00 0. -1.
         11    1    1    2    0    0 -0.49131340769E+01  0.31213497775E+02  0.17528477947E+02  0.36134040308E+02  0.00000000000E+00 0.  1.
<mgrwt>
<rscale>  0 0.63203255E+02</rscale>
<asrwt>0</asrwt>
<pdfrwt beam="1">  1        2 0.83861926E-02 0.63203255E+02</pdfrwt>
<pdfrwt beam="2">  1       -2 0.28185605E-02 0.63203255E+02</pdfrwt>
<totfact> 0.28274443E+05</totfact>
</mgrwt>
</event>
<event>
 4    1  0.4118611E+000  0.2672241E+02  0.7546771E-02  0.1637428E+00
          1   -1    0    0  501    0  0.00000000000E+00  0.00000000000E+00  0.28791190078E+01  0.28791190078E+01  0.00000000000E+00 0.  1.
         -1   -1    0    0    0  501 -0.00000000000E+00 -0.00000000000E+00 -0.62005680291E+02  0.62005680291E+02  0.00000000000E+00 0. -1.
        -11    1    1    2    0    0 -0.43265359619E+01 -0.11291699521E+02 -0.43363023005E+02  0.45017476113E+02  0.00000000000E+00 0. -1.
         11    1    1    2    0    0  0.43265359619E+01  0.11291699521E+02 -0.15763538278E+02  0.19867323185E+02  0.00000000000E+00 0.  1.
<mgrwt>
<rscale>  0 0.26722405E+02</rscale>
<asrwt>0</asrwt>
<pdfrwt beam="1">  1        1 0.44294139E-03 0.26722405E+02</pdfrwt>
<pdfrwt beam="2">  1       -1 0.95393354E-02 0.26722405E+02</pdfrwt>
<totfact> 0.17777078E+06</totfact>
</mgrwt>
</event>
<event>
 4    1  0.4118611E+000  0.2818269E+02  0.7546771E-02  0.1619091E+00
          2   -1    0    0  501    0  0.00000000000E+00  0.00000000000E+00  0.12425281488E+03  0.12425281488E+03  0.00000000000E+00 0. -1.
         -2   -1    0    0    0  501 -0.00000000000E+00 -0.00000000000E+00 -0.15980806129E+01  0.15980806129E+01  0.00000000000E+00 0.  1.
        -11    1    1    2    0    0  0.13222082102E+02 -0.30614639650E+01  0.44399501384E+02  0.46427489054E+02  0.00000000000E+00 0.  1.
         11    1    1    2    0    0 -0.13222082102E+02  0.30614639650E+01  0.78255232879E+02  0.79423406435E+02  0.00000000000E+00 0. -1.
<mgrwt>
<rscale>  0 0.28182691E+02</rscale>
<asrwt>0</asrwt>
<pdfrwt beam="1">  1        2 0.19115810E-01 0.28182691E+02</pdfrwt>
<pdfrwt beam="2">  1       -2 0.24585865E-03 0.28182691E+02</pdfrwt>
<totfact> 0.25552056E+06</totfact>
</mgrwt>
</event>
<event>
 4    1  0.4118611E+000  0.2332658E+02  0.7546771E-02  0.1686270E+00
         -4   -1    0    0    0  501 -0.00000000000E+00  0.00000000000E+00  0.15966857193E+02  0.15966857193E+02  0.00000000000E+00 0.  1.
          4   -1    0    0  501    0  0.00000000000E+00 -0.00000000000E+00 -0.85196664844E+01  0.85196664844E+01  0.00000000000E+00 0. -1.
        -11    1    1    2    0    0  0.60486698325E+01  0.84474665511E+01  0.92867689720E+01  0.13935213519E+02  0.00000000000E+00 0. -1.
         11    1    1    2    0    0 -0.60486698325E+01 -0.84474665511E+01 -0.18395782635E+01  0.10551310159E+02  0.00000000000E+00 0.  1.
<mgrwt>
<rscale>  0 0.23326577E+02</rscale>
<asrwt>0</asrwt>
<pdfrwt beam="2">  1        4 0.13107179E-02 0.23326577E+02</pdfrwt>
<pdfrwt beam="1">  1       -4 0.24564396E-02 0.23326577E+02</pdfrwt>
<totfact> 0.92494320E+05</totfact>
</mgrwt>
</event>
<event>
 4    1  0.4118611E+000  0.5425956E+02  0.7546771E-02  0.1423633E+00
         -2   -1    0    0    0  501 -0.00000000000E+00  0.00000000000E+00  0.18921659506E+02  0.18921659506E+02  0.00000000000E+00 0. -1.
          2   -1    0    0  501    0  0.00000000000E+00 -0.00000000000E+00 -0.38898541361E+02  0.38898541361E+02  0.00000000000E+00 0.  1.
        -13    1    1    2    0    0  0.25550755967E+02 -0.84330806502E+01 -0.62867296585E+01  0.27631159033E+02  0.00000000000E+00 0.  1.
         13    1    1    2    0    0 -0.25550755967E+02  0.84330806502E+01 -0.13690152196E+02  0.30189041834E+02  0.00000000000E+00 0. -1.
<mgrwt>
<rscale>  0 0.54259560E+02</rscale>
<asrwt>0</asrwt>
<pdfrwt beam="2">  1        2 0.59843910E-02 0.54259560E+02</pdfrwt>
<pdfrwt beam="1">  1       -2 0.29110245E-02 0.54259560E+02</pdfrwt>
<totfact> 0.39597335E+05</totfact>
</mgrwt>
</event>
<event>
 4    1  0.4118611E+000  0.6911308E+02  0.7546771E-02  0.1363135E+00
         -3   -1    0    0    0  501 -0.00000000000E+00  0.00000000000E+00  0.19286512778E+02  0.19286512778E+02  0.00000000000E+00 0.  1.
          3   -1    0    0  501    0  0.00000000000E+00 -0.00000000000E+00 -0.61916558134E+02  0.61916558134E+02  0.00000000000E+00 0. -1.
        -11    1    1    2    0    0 -0.23259097077E+02  0.10741741833E+01 -0.51316387198E+02  0.56351672931E+02  0.00000000000E+00 0. -1.
         11    1    1    2    0    0  0.23259097077E+02 -0.10741741833E+01  0.86863418419E+01  0.24851397981E+02  0.00000000000E+00 0.  1.
<mgrwt>
<rscale>  0 0.69113081E+02</rscale>
<asrwt>0</asrwt>
<pdfrwt beam="2">  1        3 0.95256244E-02 0.69113081E+02</pdfrwt>
<pdfrwt beam="1">  1       -3 0.29671558E-02 0.69113081E+02</pdfrwt>
<totfact> 0.75880281E+04</totfact>
</mgrwt>
</event>
<event>
 4    1  0.4118611E+000  0.2201069E+02  0.7546771E-02  0.1708067E+00
          1   -1    0    0  501    0  0.00000000000E+00  0.00000000000E+00  0.23144430241E+01  0.23144430241E+01  0.00000000000E+00 0. -1.
         -1   -1    0    0    0  501 -0.00000000000E+00 -0.00000000000E+00 -0.52331207621E+02  0.52331207621E+02  0.00000000000E+00 0.  1.
        -13    1    1    2    0    0  0.10799653733E+02  0.17627913028E+01 -0.22094375511E+02  0.24655656211E+02  0.00000000000E+00 0. -1.
         13    1    1    2    0    0 -0.10799653733E+02 -0.17627913028E+01 -0.27922389086E+02  0.29989994435E+02  0.00000000000E+00 0.  1.
<mgrwt>
<rscale>  0 0.22010688E+02</rscale>
<asrwt>0</asrwt>
<pdfrwt beam="1">  1        1 0.35606816E-03 0.22010688E+02</pdfrwt>
<pdfrwt beam="2">  1       -1 0.80509550E-02 0.22010688E+02</pdfrwt>
<totfact> 0.28113094E+06</totfact>
</mgrwt>
</event>
<event>
 4    1  0.4118611E+000  0.2339652E+02  0.7546771E-02  0.1685162E+00
         -2   -1    0    0    0  501 -0.00000000000E+00  0.00000000000E+00  0.54810213051E+01  0.54810213051E+01  0.00000000000E+00 0.  1.
          2   -1    0    0  501    0  0.00000000000E+00 -0.00000000000E+00 -0.24967852269E+02  0.24967852269E+02  0.00000000000E+00 0. -1.
        -11    1    1    2    0    0 -0.11475796912E+02  0.22096566402E+01 -0.10423195430E+02  0.15659485950E+02  0.00000000000E+00 0. -1.
         11    1    1    2    0    0  0.11475796912E+02 -0.22096566402E+01 -0.90636355340E+01  0.14789387625E+02  0.00000000000E+00 0.  1.
<mgrwt>
<rscale>  0 0.23396524E+02</rscale>
<asrwt>0</asrwt>
<pdfrwt beam="2">  1        2 0.38412080E-02 0.23396524E+02</pdfrwt>
<pdfrwt beam="1">  1       -2 0.84323405E-03 0.23396524E+02</pdfrwt>
<totfact> 0.29752340E+06</totfact>
</mgrwt>
</event>
<event>
 4    1  0.4118611E+000  0.2067125E+02  0.7546771E-02  0.1732300E+00
          2   -1    0    0  501    0  0.00000000000E+00  0.00000000000E+00  0.50224204858E+02  0.50224204858E+02  0.00000000000E+00 0.  1.
         -2   -1    0    0    0  501 -0.00000000000E+00 -0.00000000000E+00 -0.21269643520E+01  0.21269643520E+01  0.00000000000E+00 0. -1.
        -13    1    1    2    0    0 -0.87212128731E+01  0.52622589708E+01  0.28489036486E+02  0.30255183413E+02  0.00000000000E+00 0.  1.
         13    1    1    2    0    0  0.87212128731E+01 -0.52622589708E+01  0.19608204020E+02  0.22095985797E+02  0.00000000000E+00 0. -1.
<mgrwt>
<rscale>  0 0.20671245E+02</rscale>
<asrwt>0</asrwt>
<pdfrwt beam="1">  1        2 0.77267998E-02 0.20671245E+02</pdfrwt>
<pdfrwt beam="2">  1       -2 0.32722532E-03 0.20671245E+02</pdfrwt>
<totfact> 0.43061883E+06</totfact>
</mgrwt>
</event>
<event>
 4    1  0.4118611E+000  0.2593923E+02  0.7546771E-02  0.1647867E+00
         -2   -1    0    0    0  501 -0.00000000000E+00  0.00000000000E+00  0.61281117654E+01  0.61281117654E+01  0.00000000000E+00 0. -1.
          2   -1    0    0  501    0  0.00000000000E+00 -0.00000000000E+00 -0.27449061622E+02  0.27449061622E+02  0.00000000000E+00 0.  1.
        -11    1    1    2    0    0  0.55186655425E+01 -0.98596849708E+01 -0.18902594006E+02  0.22022196014E+02  0.00000000000E+00 0.  1.
         11    1    1    2    0    0 -0.55186655425E+01  0.98596849708E+01 -0.24183558502E+01  0.11554977374E+02  0.00000000000E+00 0. -1.
<mgrwt>
<rscale>  0 0.25939230E+02</rscale>
<asrwt>0</asrwt>
<pdfrwt beam="2">  1        2 0.42229325E-02 0.25939230E+02</pdfrwt>
<pdfrwt beam="1">  1       -2 0.94278644E-03 0.25939230E+02</pdfrwt>
<totfact> 0.23633559E+06</totfact>
</mgrwt>
</event>
<event>
 4    1  0.4118611E+000  0.3228595E+02  0.7546771E-02  0.1574113E+00
          2   -1    0    0  501    0  0.00000000000E+00  0.00000000000E+00  0.70853070871E+01  0.70853070871E+01  0.00000000000E+00 0. -1.
         -2   -1    0    0    0  501 -0.00000000000E+00 -0.00000000000E+00 -0.36779734452E+02  0.36779734452E+02  0.00000000000E+00 0.  1.
        -13    1    1    2    0    0 -0.11411128900E+02  0.88774811341E+01 -0.24604131723E+02  0.28537463655E+02  0.00000000000E+00 0. -1.
         13    1    1    2    0    0  0.11411128900E+02 -0.88774811341E+01 -0.50902956416E+01  0.15327577883E+02  0.00000000000E+00 0.  1.
<mgrwt>
<rscale>  0 0.32285954E+02</rscale>
<asrwt>0</asrwt>
<pdfrwt beam="1">  1        2 0.10900472E-02 0.32285954E+02</pdfrwt>
<pdfrwt beam="2">  1       -2 0.56584208E-02 0.32285954E+02</pdfrwt>
<totfact> 0.11984599E+06</totfact>
</mgrwt>
</event>
<event>
 4    1  0.4118611E+000  0.4456932E+02  0.7546771E-02  0.1477048E+00
         -2   -1    0    0    0  501 -0.00000000000E+00  0.00000000000E+00  0.81447709429E+01  0.81447709429E+01  0.00000000000E+00 0.  1.
          2   -1    0    0  501    0  0.00000000000E+00 -0.00000000000E+00 -0.60972366838E+02  0.60972366838E+02  0.00000000000E+00 0. -1.
        -13    1    1    2    0    0  0.13352564419E+02  0.96789937964E+01 -0.49656448841E+02  0.52323386827E+02  0.00000000000E+00 0. -1.
         13    1    1    2    0    0 -0.13352564419E+02 -0.96789937964E+01 -0.31711470539E+01  0.16793750954E+02  0.00000000000E+00 0.  1.
<mgrwt>
<rscale>  0 0.44569315E+02</rscale>
<asrwt>0</asrwt>
<pdfrwt beam="2">  1        2 0.93803638E-02 0.44569315E+02</pdfrwt>
<pdfrwt beam="1">  1       -2 0.12530417E-02 0.44569315E+02</pdfrwt>
<totfact> 0.71445615E+05</totfact>
</mgrwt>
</event>
<event>
 4    1  0.4118611E+000  0.8882827E+02  0.7546771E-02  0.1305714E+00
          1   -1    0    0  501    0  0.00000000000E+00  0.00000000000E+00  0.10133622638E+03  0.10133622638E+03  0.00000000000E+00 0. -1.
         -1   -1    0    0    0  501 -0.00000000000E+00 -0.00000000000E+00 -0.19466043819E+02  0.19466043819E+02  0.00000000000E+00 0.  1.
        -11    1    1    2    0    0  0.18410962681E+01  0.39694134609E+02  0.13954451647E+02  0.42115800819E+02  0.00000000000E+00 0.  1.
         11    1    1    2    0    0 -0.18410962681E+01 -0.39694134609E+02  0.67915730912E+02  0.78686469377E+02  0.00000000000E+00 0. -1.
<mgrwt>
<rscale>  0 0.88828271E+02</rscale>
<asrwt>0</asrwt>
<pdfrwt beam="1">  1        1 0.15590188E-01 0.88828271E+02</pdfrwt>
<pdfrwt beam="2">  1       -1 0.29947760E-02 0.88828271E+02</pdfrwt>
<totfact> 0.11237835E+05</totfact>
</mgrwt>
</event>
<event>
 4    1  0.4118611E+000  0.2214813E+02  0.7546771E-02  0.1705703E+00
          2   -1    0    0  501    0  0.00000000000E+00  0.00000000000E+00  0.13578094933E+02  0.13578094933E+02  0.00000000000E+00 0. -1.
         -2   -1    0    0    0  501 -0.00000000000E+00 -0.00000000000E+00 -0.90318226521E+01  0.90318226521E+01  0.00000000000E+00 0.  1.
        -11    1    1    2    0    0  0.81752247348E+01 -0.71949210636E+01  0.22283941311E+00  0.10892696910E+02  0.00000000000E+00 0. -1.
         11    1    1    2    0    0 -0.81752247348E+01  0.71949210636E+01  0.43234328675E+01  0.11717220675E+02  0.00000000000E+00 0.  1.
<mgrwt>
<rscale>  0 0.22148133E+02</rscale>
<asrwt>0</asrwt>
<pdfrwt beam="1">  1        2 0.20889377E-02 0.22148133E+02</pdfrwt>
<pdfrwt beam="2">  1       -2 0.13895112E-02 0.22148133E+02</pdfrwt>
<totfact> 0.31948035E+06</totfact>
</mgrwt>
</event>
<event>
 4    1  0.4118611E+000  0.2090923E+02  0.7546771E-02  0.1727829E+00
         -2   -1    0    0    0  501 -0.00000000000E+00  0.00000000000E+00  0.56874590995E+02  0.56874590995E+02  0.00000000000E+00 0.  1.
          2   -1    0    0  501    0  0.00000000000E+00 -0.00000000000E+00 -0.19217546006E+01  0.19217546006E+01  0.00000000000E+00 0. -1.
        -13    1    1    2    0    0 -0.96378806516E+01 -0.40096391921E+01  0.29099242530E+02  0.30914913322E+02  0.00000000000E+00 0.  1.
         13    1    1    2    0    0  0.96378806516E+01  0.40096391921E+01  0.25853593864E+02  0.27881432273E+02  0.00000000000E+00 0. -1.
<mgrwt>
<rscale>  0 0.20909233E+02</rscale>
<asrwt>0</asrwt>
<pdfrwt beam="2">  1        2 0.29565460E-03 0.20909233E+02</pdfrwt>
<pdfrwt beam="1">  1       -2 0.87499358E-02 0.20909233E+02</pdfrwt>
<totfact> 0.30155881E+06</totfact>
</mgrwt>
</event>
<event>
 4    1  0.4118611E+000  0.2219891E+02  0.7546771E-02  0.1704834E+00
          4   -1    0    0  501    0  0.00000000000E+00  0.00000000000E+00  0.22194017008E+02  0.22194017008E+02  0.00000000000E+00 0. -1.
         -4   -1    0    0    0  501 -0.00000000000E+00 -0.00000000000E+00 -0.55509506251E+01  0.55509506251E+01  0.00000000000E+00 0.  1.
        -13    1    1    2    0    0 -0.83631309353E+01 -0.65024869054E+01  0.41812780753E+01  0.11388914845E+02  0.00000000000E+00 0.  1.
         13    1    1    2    0    0  0.83631309353E+01  0.65024869054E+01  0.12461788307E+02  0.16356052788E+02  0.00000000000E+00 0. -1.
<mgrwt>
<rscale>  0 0.22198909E+02</rscale>
<asrwt>0</asrwt>
<pdfrwt beam="1">  1        4 0.34144641E-02 0.22198909E+02</pdfrwt>
<pdfrwt beam="2">  1       -4 0.85399242E-03 0.22198909E+02</pdfrwt>
<totfact> 0.10131155E+06</totfact>
</mgrwt>
</event>
<event>
 4    1  0.4118611E+000  0.9318182E+02  0.7546771E-02  0.1295324E+00
          2   -1    0    0  501    0  0.00000000000E+00  0.00000000000E+00  0.12909441430E+02  0.12909441430E+02  0.00000000000E+00 0. -1.
         -2   -1    0    0    0  501 -0.00000000000E+00 -0.00000000000E+00 -0.16814924639E+03  0.16814924639E+03  0.00000000000E+00 0.  1.
        -13    1    1    2    0    0  0.37232522808E+02  0.30835640922E+01 -0.13171068542E+03  0.13690680690E+03  0.00000000000E+00 0.  1.
         13    1    1    2    0    0 -0.37232522808E+02 -0.30835640922E+01 -0.23529119535E+02  0.44151880915E+02  0.00000000000E+00 0. -1.
<mgrwt>
<rscale>  0 0.93181819E+02</rscale>
<asrwt>0</asrwt>
<pdfrwt beam="1">  1        2 0.19860681E-02 0.93181819E+02</pdfrwt>
<pdfrwt beam="2">  1       -2 0.25869113E-01 0.93181819E+02</pdfrwt>
<totfact> 0.63316823E+04</totfact>
</mgrwt>
</event>
<event>
 4    1  0.4118611E+000  0.2383069E+02  0.7546771E-02  0.1678388E+00
          2   -1    0    0  501    0  0.00000000000E+00  0.00000000000E+00  0.60200561876E+02  0.60200561876E+02  0.00000000000E+00 0.  1.
         -2   -1    0    0    0  501 -0.00000000000E+00 -0.00000000000E+00 -0.23583739705E+01  0.23583739705E+01  0.00000000000E+00 0. -1.
        -11    1    1    2    0    0  0.86207812079E+01 -0.77393849931E+01  0.36233651908E+02  0.38040681899E+02  0.00000000000E+00 0.  1.
         11    1    1    2    0    0 -0.86207812079E+01  0.77393849931E+01  0.21608535997E+02  0.24518253948E+02  0.00000000000E+00 0. -1.
<mgrwt>
<rscale>  0 0.23830689E+02</rscale>
<asrwt>0</asrwt>
<pdfrwt beam="1">  1        2 0.92616237E-02 0.23830689E+02</pdfrwt>
<pdfrwt beam="2">  1       -2 0.36282681E-03 0.23830689E+02</pdfrwt>
<totfact> 0.32132947E+06</totfact>
</mgrwt>
</event>
<event>
 4    1  0.4118611E+000  0.7749702E+02  0.7546771E-02  0.1336308E+00
          2   -1    0    0  501    0  0.00000000000E+00  0.00000000000E+00  0.64613899743E+01  0.64613899743E+01  0.00000000000E+00 0. -1.
         -2   -1    0    0    0  501 -0.00000000000E+00 -0.00000000000E+00 -0.23237213524E+03  0.23237213524E+03  0.00000000000E+00 0.  1.
        -11    1    1    2    0    0 -0.37649648437E+02 -0.78004693673E+01 -0.98142119269E+02  0.10540502324E+03  0.00000000000E+00 0. -1.
         11    1    1    2    0    0  0.37649648437E+02  0.78004693673E+01 -0.12776862600E+03  0.13342850197E+03  0.00000000000E+00 0.  1.
<mgrwt>
<rscale>  0 0.77497019E+02</rscale>
<asrwt>0</asrwt>
<pdfrwt beam="1">  1        2 0.99406009E-03 0.77497019E+02</pdfrwt>
<pdfrwt beam="2">  1       -2 0.35749556E-01 0.77497019E+02</pdfrwt>
<totfact> 0.88162645E+04</totfact>
</mgrwt>
</event>
<event>
 4    1  0.4118611E+000  0.2046251E+02  0.7546771E-02  0.1736284E+00
         -2   -1    0    0    0  501 -0.00000000000E+00  0.00000000000E+00  0.16570738671E+02  0.16570738671E+02  0.00000000000E+00 0. -1.
          2   -1    0    0  501    0  0.00000000000E+00 -0.00000000000E+00 -0.63170725120E+01  0.63170725120E+01  0.00000000000E+00 0.  1.
        -11    1    1    2    0    0 -0.12190536483E+01  0.99896535277E+01  0.30645921361E+01  0.10520028249E+02  0.00000000000E+00 0. -1.
         11    1    1    2    0    0  0.12190536483E+01 -0.99896535277E+01  0.71890740233E+01  0.12367782934E+02  0.00000000000E+00 0.  1.
<mgrwt>
<rscale>  0 0.20462508E+02</rscale>
<asrwt>0</asrwt>
<pdfrwt beam="2">  1        2 0.97185731E-03 0.20462508E+02</pdfrwt>
<pdfrwt beam="1">  1       -2 0.25493444E-02 0.20462508E+02</pdfrwt>
<totfact> 0.36166938E+06</totfact>
</mgrwt>
</event>
<event>
 4    1  0.4118611E+000  0.3524935E+02  0.7546771E-02  0.1546397E+00
         -2   -1    0    0    0  501 -0.00000000000E+00  0.00000000000E+00  0.31810268944E+02  0.31810268944E+02  0.00000000000E+00 0.  1.
          2   -1    0    0  501    0  0.00000000000E+00 -0.00000000000E+00 -0.97650610794E+01  0.97650610794E+01  0.00000000000E+00 0. -1.
        -13    1    1    2    0    0  0.16275541789E+02  0.98557934725E+00  0.31312436362E+01  0.16603292261E+02  0.00000000000E+00 0. -1.
         13    1    1    2    0    0 -0.16275541789E+02 -0.98557934725E+00  0.18913964228E+02  0.24972037762E+02  0.00000000000E+00 0.  1.
<mgrwt>
<rscale>  0 0.35249353E+02</rscale>
<asrwt>0</asrwt>
<pdfrwt beam="2">  1        2 0.15023171E-02 0.35249353E+02</pdfrwt>
<pdfrwt beam="1">  1       -2 0.48938875E-02 0.35249353E+02</pdfrwt>
<totfact> 0.99608121E+05</totfact>
</mgrwt>
</event>
<event>
 4    1  0.4118611E+000  0.1348741E+03  0.7546771E-02  0.1220398E+00
         -2   -1    0    0    0  501 -0.00000000000E+00  0.00000000000E+00  0.14414363104E+02  0.14414363104E+02  0.00000000000E+00 0.  1.
          2   -1    0    0  501    0  0.00000000000E+00 -0.00000000000E+00 -0.31550165645E+03  0.31550165645E+03  0.00000000000E+00 0. -1.
        -13    1    1    2    0    0 -0.19146505372E+02  0.44532736241E+02 -0.35863321452E+02  0.60298682329E+02  0.00000000000E+00 0.  1.
         13    1    1    2    0    0  0.19146505372E+02 -0.44532736241E+02 -0.26522397189E+03  0.26961733722E+03  0.00000000000E+00 0. -1.
<mgrwt>
<rscale>  0 0.13487410E+03</rscale>
<asrwt>0</asrwt>
<pdfrwt beam="2">  1        2 0.48538717E-01 0.13487410E+03</pdfrwt>
<pdfrwt beam="1">  1       -2 0.22175943E-02 0.13487410E+03</pdfrwt>
<totfact> 0.62945198E+04</totfact>
</mgrwt>
</event>
<event>
 4    1  0.4118611E+000  0.5744482E+02  0.7546771E-02  0.1408879E+00
          3   -1    0    0  501    0  0.00000000000E+00  0.00000000000E+00  0.58167042016E+02  0.58167042016E+02  0.00000000000E+00 0. -1.
         -3   -1    0    0    0  501 -0.00000000000E+00 -0.00000000000E+00 -0.14182889509E+02  0.14182889509E+02  0.00000000000E+00 0.  1.
        -13    1    1    2    0    0  0.19814964816E+02  0.16220237679E+02  0.56069881344E+01  0.26213875275E+02  0.00000000000E+00 0. -1.
         13    1    1    2    0    0 -0.19814964816E+02 -0.16220237679E+02  0.38377164372E+02  0.46136056249E+02  0.00000000000E+00 0.  1.
<mgrwt>
<rscale>  0 0.57444816E+02</rscale>
<asrwt>0</asrwt>
<pdfrwt beam="1">  1        3 0.89487756E-02 0.57444816E+02</pdfrwt>
<pdfrwt beam="2">  1       -3 0.21819830E-02 0.57444816E+02</pdfrwt>
<totfact> 0.12534086E+05</totfact>
</mgrwt>
</event>
<event>
 4    1  0.4118611E+000  0.3030857E+02  0.7546771E-02  0.1594703E+00
         -2   -1    0    0    0  501 -0.00000000000E+00  0.00000000000E+00  0.22203735050E+02  0.22203735050E+02  0.00000000000E+00 0.  1.
          2   -1    0    0  501    0  0.00000000000E+00 -0.00000000000E+00 -0.10342962191E+02  0.10342962191E+02  0.00000000000E+00 0. -1.
        -13    1    1    2    0    0 -0.80701818528E+01 -0.12277786410E+02  0.19440475906E+01  0.14820634106E+02  0.00000000000E+00 0. -1.
         13    1    1    2    0    0  0.80701818528E+01  0.12277786410E+02  0.99167252682E+01  0.17726063136E+02  0.00000000000E+00 0.  1.
<mgrwt>
<rscale>  0 0.30308573E+02</rscale>
<asrwt>0</asrwt>
<pdfrwt beam="2">  1        2 0.15912250E-02 0.30308573E+02</pdfrwt>
<pdfrwt beam="1">  1       -2 0.34159592E-02 0.30308573E+02</pdfrwt>
<totfact> 0.14690564E+06</totfact>
</mgrwt>
</event>
<event>
 4    1  0.4118611E+000  0.4832237E+02  0.7546771E-02  0.1454606E+00
          4   -1    0    0  501    0  0.00000000000E+00  0.00000000000E+00  0.14310508374E+02  0.14310508374E+02  0.00000000000E+00 0.  1.
         -4   -1    0    0    0  501 -0.00000000000E+00 -0.00000000000E+00 -0.40792595002E+02  0.40792595002E+02  0.00000000000E+00 0. -1.
        -13    1    1    2    0    0  0.16063828558E+02 -0.30802549958E+01  0.70370992755E+01  0.17806047428E+02  0.00000000000E+00 0.  1.
         13    1    1    2    0    0 -0.16063828558E+02  0.30802549958E+01 -0.33519185904E+02  0.37297055949E+02  0.00000000000E+00 0. -1.
<mgrwt>
<rscale>  0 0.48322366E+02</rscale>
<asrwt>0</asrwt>
<pdfrwt beam="1">  1        4 0.22016167E-02 0.48322366E+02</pdfrwt>
<pdfrwt beam="2">  1       -4 0.62757839E-02 0.48322366E+02</pdfrwt>
<totfact> 0.15444384E+05</totfact>
</mgrwt>
</event>
<event>
 4    1  0.4118611E+000  0.6955569E+02  0.7546771E-02  0.1361610E+00
          2   -1    0    0  501    0  0.00000000000E+00  0.00000000000E+00  0.51311403770E+02  0.51311403770E+02  0.00000000000E+00 0. -1.
         -2   -1    0    0    0  501 -0.00000000000E+00 -0.00000000000E+00 -0.23571728620E+02  0.23571728620E+02  0.00000000000E+00 0.  1.
        -13    1    1    2    0    0 -0.30021985686E+00 -0.18785218125E+02  0.45377856239E+02  0.49113382991E+02  0.00000000000E+00 0. -1.
         13    1    1    2    0    0  0.30021985686E+00  0.18785218125E+02 -0.17638181089E+02  0.25769749399E+02  0.00000000000E+00 0.  1.
<mgrwt>
<rscale>  0 0.69555689E+02</rscale>
<asrwt>0</asrwt>
<pdfrwt beam="1">  1        2 0.78940621E-02 0.69555689E+02</pdfrwt>
<pdfrwt beam="2">  1       -2 0.36264198E-02 0.69555689E+02</pdfrwt>
<totfact> 0.21572030E+05</totfact>
</mgrwt>
</event>
<event>
 4    1  0.4118611E+000  0.2377994E+02  0.7546771E-02  0.1679171E+00
         -2   -1    0    0    0  501 -0.00000000000E+00  0.00000000000E+00  0.71336808938E+01  0.71336808938E+01  0.00000000000E+00 0. -1.
          2   -1    0    0  501    0  0.00000000000E+00 -0.00000000000E+00 -0.19817455303E+02  0.19817455303E+02  0.00000000000E+00 0.  1.
        -11    1    1    2    0    0 -0.51908324849E+01 -0.10557747807E+02 -0.43917832968E+01  0.12557807976E+02  0.00000000000E+00 0. -1.
         11    1    1    2    0    0  0.51908324849E+01  0.10557747807E+02 -0.82919911121E+01  0.14393328220E+02  0.00000000000E+00 0.  1.
<mgrwt>
<rscale>  0 0.23779941E+02</rscale>
<asrwt>0</asrwt>
<pdfrwt beam="2">  1        2 0.30488393E-02 0.23779941E+02</pdfrwt>
<pdfrwt beam="1">  1       -2 0.10974894E-02 0.23779941E+02</pdfrwt>
<totfact> 0.28002240E+06</totfact>
</mgrwt>
</event>
<event>
 4    1  0.4118611E+000  0.2687063E+02  0.7546771E-02  0.1635501E+00
          3   -1    0    0  501    0  0.00000000000E+00  0.00000000000E+00  0.69079819777E+01  0.69079819777E+01  0.00000000000E+00 0.  1.
         -3   -1    0    0    0  501 -0.00000000000E+00 -0.00000000000E+00 -0.26130312821E+02  0.26130312821E+02  0.00000000000E+00 0. -1.
        -13    1    1    2    0    0 -0.11711637947E+01 -0.13256476268E+02 -0.73433735148E+01  0.15199701387E+02  0.00000000000E+00 0.  1.
         13    1    1    2    0    0  0.11711637947E+01  0.13256476268E+02 -0.11878957328E+02  0.17838593411E+02  0.00000000000E+00 0. -1.
<mgrwt>
<rscale>  0 0.26870633E+02</rscale>
<asrwt>0</asrwt>
<pdfrwt beam="1">  1        3 0.10627664E-02 0.26870633E+02</pdfrwt>
<pdfrwt beam="2">  1       -3 0.40200482E-02 0.26870633E+02</pdfrwt>
<totfact> 0.88693028E+05</totfact>
</mgrwt>
</event>
<event>
 4    1  0.4118611E+000  0.2741594E+02  0.7546771E-02  0.1628544E+00
          2   -1    0    0  501    0  0.00000000000E+00  0.00000000000E+00  0.97566161598E+01  0.97566161598E+01  0.00000000000E+00 0. -1.
         -2   -1    0    0    0  501 -0.00000000000E+00 -0.00000000000E+00 -0.19259597952E+02  0.19259597952E+02  0.00000000000E+00 0.  1.
        -13    1    1    2    0    0  0.10677771068E+02 -0.75092613643E+01 -0.91795653203E+01  0.15958327628E+02  0.00000000000E+00 0. -1.
         13    1    1    2    0    0 -0.10677771068E+02  0.75092613643E+01 -0.32341647215E+00  0.13057886484E+02  0.00000000000E+00 0.  1.
<mgrwt>
<rscale>  0 0.27415945E+02</rscale>
<asrwt>0</asrwt>
<pdfrwt beam="1">  1        2 0.15010179E-02 0.27415945E+02</pdfrwt>
<pdfrwt beam="2">  1       -2 0.29630151E-02 0.27415945E+02</pdfrwt>
<totfact> 0.18694713E+06</totfact>
</mgrwt>
</event>
<event>
 4    1  0.4118611E+000  0.1072562E+03  0.7546771E-02  0.1265737E+00
         -2   -1    0    0    0  501 -0.00000000000E+00  0.00000000000E+00  0.12467419125E+03  0.12467419125E+03  0.00000000000E+00 0.  1.
          2   -1    0    0  501    0  0.00000000000E+00 -0.00000000000E+00 -0.23067911605E+02  0.23067911605E+02  0.00000000000E+00 0. -1.
        -13    1    1    2    0    0  0.37199623815E+02  0.97589423814E+01  0.10228666669E+03  0.10927767910E+03  0.00000000000E+00 0.  1.
         13    1    1    2    0    0 -0.37199623815E+02 -0.97589423814E+01 -0.68038703814E+00  0.38464423756E+02  0.00000000000E+00 0. -1.
<mgrwt>
<rscale>  0 0.10725620E+03</rscale>
<asrwt>0</asrwt>
<pdfrwt beam="2">  1        2 0.35489096E-02 0.10725620E+03</pdfrwt>
<pdfrwt beam="1">  1       -2 0.19180644E-01 0.10725620E+03</pdfrwt>
<totfact> 0.49526606E+04</totfact>
</mgrwt>
</event>
<event>
 4    1  0.4118611E+000  0.6326920E+02  0.7546771E-02  0.1384603E+00
          1   -1    0    0  501    0  0.00000000000E+00  0.00000000000E+00  0.16761227717E+03  0.16761227717E+03  0.00000000000E+00 0. -1.
         -1   -1    0    0    0  501 -0.00000000000E+00 -0.00000000000E+00 -0.59706114507E+01  0.59706114507E+01  0.00000000000E+00 0.  1.
        -11    1    1    2    0    0 -0.15120853012E+02 -0.24987024180E+02  0.11417018997E+03  0.11784661154E+03  0.00000000000E+00 0. -1.
         11    1    1    2    0    0  0.15120853012E+02  0.24987024180E+02  0.47471475744E+02  0.55736277078E+02  0.00000000000E+00 0.  1.
<mgrwt>
<rscale>  0 0.63269196E+02</rscale>
<asrwt>0</asrwt>
<pdfrwt beam="1">  1        1 0.25786501E-01 0.63269196E+02</pdfrwt>
<pdfrwt beam="2">  1       -1 0.91855574E-03 0.63269196E+02</pdfrwt>
<totfact> 0.29976352E+05</totfact>
</mgrwt>
</event>
<event>
 4    1  0.4118611E+000  0.2197620E+02  0.7546771E-02  0.1708664E+00
         -4   -1    0    0    0  501 -0.00000000000E+00  0.00000000000E+00  0.49798211923E+02  0.49798211923E+02  0.00000000000E+00 0.  1.
          4   -1    0    0  501    0  0.00000000000E+00 -0.00000000000E+00 -0.24245520678E+01  0.24245520678E+01  0.00000000000E+00 0. -1.
        -13    1    1    2    0    0  0.10668129295E+02  0.15041304552E+01  0.28820460030E+02  0.30768332867E+02  0.00000000000E+00 0.  1.
         13    1    1    2    0    0 -0.10668129295E+02 -0.15041304552E+01  0.18553199826E+02  0.21454431124E+02  0.00000000000E+00 0. -1.
<mgrwt>
<rscale>  0 0.21976201E+02</rscale>
<asrwt>0</asrwt>
<pdfrwt beam="2">  1        4 0.37300805E-03 0.21976201E+02</pdfrwt>
<pdfrwt beam="1">  1       -4 0.76612626E-02 0.21976201E+02</pdfrwt>
<totfact> 0.94196505E+05</totfact>
</mgrwt>
</event>
<event>
 4    1  0.4118611E+000  0.5816323E+02  0.7546771E-02  0.1405706E+00
         -4   -1    0    0    0  501 -0.00000000000E+00  0.00000000000E+00  0.59488649933E+02  0.59488649933E+02  0.00000000000E+00 0.  1.
          4   -1    0    0  501    0  0.00000000000E+00 -0.00000000000E+00 -0.14216833654E+02  0.14216833654E+02  0.00000000000E+00 0. -1.
        -11    1    1    2    0    0 -0.28695129466E+02  0.22709320669E+01  0.27887246505E+02  0.40078249776E+02  0.00000000000E+00 0. -1.
         11    1    1    2    0    0  0.28695129466E+02 -0.22709320669E+01  0.17384569774E+02  0.33627233811E+02  0.00000000000E+00 0.  1.
<mgrwt>
<rscale>  0 0.58163227E+02</rscale>
<asrwt>0</asrwt>
<pdfrwt beam="2">  1        4 0.21872052E-02 0.58163227E+02</pdfrwt>
<pdfrwt beam="1">  1       -4 0.91520999E-02 0.58163227E+02</pdfrwt>
<totfact> 0.92016576E+04</totfact>
</mgrwt>
</event>
<event>
 4    1  0.4118611E+000  0.2726278E+02  0.7546771E-02  0.1630478E+00
         -2   -1    0    0    0  501 -0.00000000000E+00  0.00000000000E+00  0.71843737505E+01  0.71843737505E+01  0.00000000000E+00 0.  1.
          2   -1    0    0  501    0  0.00000000000E+00 -0.00000000000E+00 -0.25863745225E+02  0.25863745225E+02  0.00000000000E+00 0. -1.
        -11    1    1    2    0    0 -0.12723255308E+02 -0.32339814680E+01 -0.13789482482E+02  0.19039161980E+02  0.00000000000E+00 0. -1.
         11    1    1    2    0    0  0.12723255308E+02  0.32339814680E+01 -0.48898889920E+01  0.14008956996E+02  0.00000000000E+00 0.  1.
<mgrwt>
<rscale>  0 0.27262781E+02</rscale>
<asrwt>0</asrwt>
<pdfrwt beam="2">  1        2 0.39790377E-02 0.27262781E+02</pdfrwt>
<pdfrwt beam="1">  1       -2 0.11052883E-02 0.27262781E+02</pdfrwt>
<totfact> 0.20872352E+06</totfact>
</mgrwt>
</event>
<event>
 4    1  0.4118611E+000  0.3339138E+02  0.7546771E-02  0.1563368E+00
         -2   -1    0    0    0  501 -0.00000000000E+00  0.00000000000E+00  0.54124850552E+02  0.54124850552E+02  0.00000000000E+00 0.  1.
          2   -1    0    0  501    0  0.00000000000E+00 -0.00000000000E+00 -0.51500564018E+01  0.51500564018E+01  0.00000000000E+00 0. -1.
        -13    1    1    2    0    0  0.84746419407E+01  0.14047268871E+02  0.18987072585E+02  0.25092912228E+02  0.00000000000E+00 0. -1.
         13    1    1    2    0    0 -0.84746419407E+01 -0.14047268871E+02  0.29987721565E+02  0.34181994726E+02  0.00000000000E+00 0.  1.
<mgrwt>
<rscale>  0 0.33391378E+02</rscale>
<asrwt>0</asrwt>
<pdfrwt beam="2">  1        2 0.79231641E-03 0.33391378E+02</pdfrwt>
<pdfrwt beam="1">  1       -2 0.83268997E-02 0.33391378E+02</pdfrwt>
<totfact> 0.10485908E+06</totfact>
</mgrwt>
</event>
<event>
 4    1  0.4118611E+000  0.2285894E+02  0.7546771E-02  0.1693807E+00
          2   -1    0    0  501    0  0.00000000000E+00  0.00000000000E+00  0.99186293082E+01  0.99186293082E+01  0.00000000000E+00 0. -1.
         -2   -1    0    0    0  501 -0.00000000000E+00 -0.00000000000E+00 -0.13170451718E+02  0.13170451718E+02  0.00000000000E+00 0.  1.
        -13    1    1    2    0    0  0.15420275623E+01  0.10581848532E+02  0.24494912107E+01  0.10970568561E+02  0.00000000000E+00 0. -1.
         13    1    1    2    0    0 -0.15420275623E+01 -0.10581848532E+02 -0.57013136208E+01  0.12118512465E+02  0.00000000000E+00 0.  1.
<mgrwt>
<rscale>  0 0.22858944E+02</rscale>
<asrwt>0</asrwt>
<pdfrwt beam="1">  1        2 0.15259430E-02 0.22858944E+02</pdfrwt>
<pdfrwt beam="2">  1       -2 0.20262233E-02 0.22858944E+02</pdfrwt>
<totfact> 0.28931946E+06</totfact>
</mgrwt>
</event>
<event>
 4    1  0.4118611E+000  0.2182069E+02  0.7546771E-02  0.1711372E+00
          4   -1    0    0  501    0  0.00000000000E+00  0.00000000000E+00  0.23025064406E+02  0.23025064406E+02  0.00000000000E+00 0.  1.
         -4   -1    0    0    0  501 -0.00000000000E+00 -0.00000000000E+00 -0.51698292622E+01  0.51698292622E+01  0.00000000000E+00 0. -1.
        -13    1    1    2    0    0 -0.10450857940E+02 -0.30893816361E+01  0.96001905748E+01  0.14523373219E+02  0.00000000000E+00 0. -1.
         13    1    1    2    0    0  0.10450857940E+02  0.30893816361E+01  0.82550445693E+01  0.13671520450E+02  0.00000000000E+00 0.  1.
<mgrwt>
<rscale>  0 0.21820692E+02</rscale>
<asrwt>0</asrwt>
<pdfrwt beam="1">  1        4 0.35423176E-02 0.21820692E+02</pdfrwt>
<pdfrwt beam="2">  1       -4 0.79535836E-03 0.21820692E+02</pdfrwt>
<totfact> 0.10482994E+06</totfact>
</mgrwt>
</event>
<event>
 4    1  0.4118611E+000  0.3310856E+02  0.7546771E-02  0.1566068E+00
          4   -1    0    0  501    0  0.00000000000E+00  0.00000000000E+00  0.31232218656E+02  0.31232218656E+02  0.00000000000E+00 0. -1.
         -4   -1    0    0    0  501 -0.00000000000E+00 -0.00000000000E+00 -0.87744054827E+01  0.87744054827E+01  0.00000000000E+00 0.  1.
        -11    1    1    2    0    0 -0.74883118639E+01  0.12151697752E+02  0.10971083457E+01  0.14315803140E+02  0.00000000000E+00 0.  1.
         11    1    1    2    0    0  0.74883118639E+01 -0.12151697752E+02  0.21360704827E+02  0.25690820998E+02  0.00000000000E+00 0. -1.
<mgrwt>
<rscale>  0 0.33108558E+02</rscale>
<asrwt>0</asrwt>
<pdfrwt beam="1">  1        4 0.48049567E-02 0.33108558E+02</pdfrwt>
<pdfrwt beam="2">  1       -4 0.13499086E-02 0.33108558E+02</pdfrwt>
<totfact> 0.40030435E+05</totfact>
</mgrwt>
</event>
<event>
 4    1  0.4118611E+000  0.3934963E+02  0.7546771E-02  0.1513053E+00
          2   -1    0    0  501    0  0.00000000000E+00  0.00000000000E+00  0.11897166593E+03  0.11897166593E+03  0.00000000000E+00 0.  1.
         -2   -1    0    0    0  501 -0.00000000000E+00 -0.00000000000E+00 -0.32537013893E+01  0.32537013893E+01  0.00000000000E+00 0. -1.
        -13    1    1    2    0    0  0.42881412055E+01  0.18767665198E+02  0.70470385315E+02  0.73052642788E+02  0.00000000000E+00 0.  1.
         13    1    1    2    0    0 -0.42881412055E+01 -0.18767665198E+02  0.45247579227E+02  0.49172724531E+02  0.00000000000E+00 0. -1.
<mgrwt>
<rscale>  0 0.39349626E+02</rscale>
<asrwt>0</asrwt>
<pdfrwt beam="1">  1        2 0.18303330E-01 0.39349626E+02</pdfrwt>
<pdfrwt beam="2">  1       -2 0.50056954E-03 0.39349626E+02</pdfrwt>
<totfact> 0.11379880E+06</totfact>
</mgrwt>
</event>
<event>
 4    1  0.4118611E+000  0.4381321E+02  0.7546771E-02  0.1481889E+00
          2   -1    0    0  501    0  0.00000000000E+00  0.00000000000E+00  0.33581717411E+01  0.33581717411E+01  0.00000000000E+00 0.  1.
         -2   -1    0    0    0  501 -0.00000000000E+00 -0.00000000000E+00 -0.14290491849E+03  0.14290491849E+03  0.00000000000E+00 0. -1.
        -11    1    1    2    0    0  0.15932229390E+02 -0.11084833398E+02 -0.10368495789E+03  0.10548592303E+03  0.00000000000E+00 0. -1.
         11    1    1    2    0    0 -0.15932229390E+02  0.11084833398E+02 -0.35861788860E+02  0.40777167202E+02  0.00000000000E+00 0.  1.
<mgrwt>
<rscale>  0 0.43813206E+02</rscale>
<asrwt>0</asrwt>
<pdfrwt beam="1">  1        2 0.51664201E-03 0.43813206E+02</pdfrwt>
<pdfrwt beam="2">  1       -2 0.21985363E-01 0.43813206E+02</pdfrwt>
<totfact> 0.43979008E+05</totfact>
</mgrwt>
</event>
<event>
 4    1  0.4118611E+000  0.4911732E+02  0.7546771E-02  0.1450161E+00
          2   -1    0    0  501    0  0.00000000000E+00  0.00000000000E+00  0.33351030849E+02  0.33351030849E+02  0.00000000000E+00 0.  1.
         -2   -1    0    0    0  501 -0.00000000000E+00 -0.00000000000E+00 -0.18084234108E+02  0.18084234108E+02  0.00000000000E+00 0. -1.
        -11    1    1    2    0    0  0.10055496515E+02 -0.21439035927E+02  0.81597948482E+00  0.23694115180E+02  0.00000000000E+00 0. -1.
         11    1    1    2    0    0 -0.10055496515E+02  0.21439035927E+02  0.14450817256E+02  0.27741149778E+02  0.00000000000E+00 0.  1.
<mgrwt>
<rscale>  0 0.49117323E+02</rscale>
<asrwt>0</asrwt>
<pdfrwt beam="1">  1        2 0.51309278E-02 0.49117323E+02</pdfrwt>
<pdfrwt beam="2">  1       -2 0.27821899E-02 0.49117323E+02</pdfrwt>
<totfact> 0.50027846E+05</totfact>
</mgrwt>
</event>
<event>
 4    1  0.4118611E+000  0.4228853E+02  0.7546771E-02  0.1492015E+00
          2   -1    0    0  501    0  0.00000000000E+00  0.00000000000E+00  0.25017422230E+02  0.25017422230E+02  0.00000000000E+00 0. -1.
         -2   -1    0    0    0  501 -0.00000000000E+00 -0.00000000000E+00 -0.17870739884E+02  0.17870739884E+02  0.00000000000E+00 0.  1.
        -13    1    1    2    0    0 -0.13756129080E+02  0.15860085546E+02  0.61202135411E+01  0.21868479933E+02  0.00000000000E+00 0. -1.
         13    1    1    2    0    0  0.13756129080E+02 -0.15860085546E+02  0.10264688043E+01  0.21019682181E+02  0.00000000000E+00 0.  1.
<mgrwt>
<rscale>  0 0.42288525E+02</rscale>
<asrwt>0</asrwt>
<pdfrwt beam="1">  1        2 0.38488342E-02 0.42288525E+02</pdfrwt>
<pdfrwt beam="2">  1       -2 0.27493446E-02 0.42288525E+02</pdfrwt>
<totfact> 0.70479554E+05</totfact>
</mgrwt>
</event>
<event>
 4    1  0.4118611E+000  0.6389163E+02  0.7546771E-02  0.1382190E+00
          2   -1    0    0  501    0  0.00000000000E+00  0.00000000000E+00  0.79784794993E+01  0.79784794993E+01  0.00000000000E+00 0.  1.
         -2   -1    0    0    0  501 -0.00000000000E+00 -0.00000000000E+00 -0.12791099040E+03  0.12791099040E+03  0.00000000000E+00 0. -1.
        -11    1    1    2    0    0  0.94992945020E+00 -0.23060159374E+02 -0.12988716432E+02  0.26483581156E+02  0.00000000000E+00 0.  1.
         11    1    1    2    0    0 -0.94992945020E+00  0.23060159374E+02 -0.10694379447E+03  0.10940588874E+03  0.00000000000E+00 0. -1.
<mgrwt>
<rscale>  0 0.63891634E+02</rscale>
<asrwt>0</asrwt>
<pdfrwt beam="1">  1        2 0.12274585E-02 0.63891634E+02</pdfrwt>
<pdfrwt beam="2">  1       -2 0.19678612E-01 0.63891634E+02</pdfrwt>
<totfact> 0.18007082E+05</totfact>
</mgrwt>
</event>
<event>
 4    1  0.4118611E+000  0.4073938E+02  0.7546771E-02  0.1502840E+00
         -1   -1    0    0    0  501 -0.00000000000E+00  0.00000000000E+00  0.32791261587E+01  0.32791261587E+01  0.00000000000E+00 0. -1.
          1   -1    0    0  501    0  0.00000000000E+00 -0.00000000000E+00 -0.12653501442E+03  0.12653501442E+03  0.00000000000E+00 0.  1.
        -13    1    1    2    0    0 -0.14017872944E+02 -0.14121721448E+02 -0.47738333610E+02  0.51719167379E+02  0.00000000000E+00 0.  1.
         13    1    1    2    0    0  0.14017872944E+02  0.14121721448E+02 -0.75517554655E+02  0.78094973203E+02  0.00000000000E+00 0. -1.
<mgrwt>
<rscale>  0 0.40739380E+02</rscale>
<asrwt>0</asrwt>
<pdfrwt beam="2">  1        1 0.19466928E-01 0.40739380E+02</pdfrwt>
<pdfrwt beam="1">  1       -1 0.50448087E-03 0.40739380E+02</pdfrwt>
<totfact> 0.86831621E+05</totfact>
</mgrwt>
</event>
<event>
 4    1  0.4118611E+000  0.2761104E+02  0.7546771E-02  0.1626103E+00
         -2   -1    0    0    0  501 -0.00000000000E+00  0.00000000000E+00  0.54384390686E+01  0.54384390686E+01  0.00000000000E+00 0. -1.
          2   -1    0    0  501    0  0.00000000000E+00 -0.00000000000E+00 -0.35045416431E+02  0.35045416431E+02  0.00000000000E+00 0.  1.
        -13    1    1    2    0    0  0.13542786733E+02 -0.25660375607E+01 -0.15939918537E+02  0.21073030731E+02  0.00000000000E+00 0. -1.
         13    1    1    2    0    0 -0.13542786733E+02  0.25660375607E+01 -0.13667058826E+02  0.19410824769E+02  0.00000000000E+00 0.  1.
<mgrwt>
<rscale>  0 0.27611039E+02</rscale>
<asrwt>0</asrwt>
<pdfrwt beam="2">  1        2 0.53916027E-02 0.27611039E+02</pdfrwt>
<pdfrwt beam="1">  1       -2 0.83668291E-03 0.27611039E+02</pdfrwt>
<totfact> 0.21014378E+06</totfact>
</mgrwt>
</event>
<event>
 4    1  0.4118611E+000  0.2581567E+02  0.7546771E-02  0.1649555E+00
          4   -1    0    0  501    0  0.00000000000E+00  0.00000000000E+00  0.12769045987E+02  0.12769045987E+02  0.00000000000E+00 0. -1.
         -4   -1    0    0    0  501 -0.00000000000E+00 -0.00000000000E+00 -0.13048128625E+02  0.13048128625E+02  0.00000000000E+00 0.  1.
        -13    1    1    2    0    0  0.94728057615E+01 -0.64079495051E+01  0.58454795178E+01  0.12843889467E+02  0.00000000000E+00 0. -1.
         13    1    1    2    0    0 -0.94728057615E+01  0.64079495051E+01 -0.61245621551E+01  0.12973285145E+02  0.00000000000E+00 0.  1.
<mgrwt>
<rscale>  0 0.25815666E+02</rscale>
<asrwt>0</asrwt>
<pdfrwt beam="1">  1        4 0.19644686E-02 0.25815666E+02</pdfrwt>
<pdfrwt beam="2">  1       -4 0.20074044E-02 0.25815666E+02</pdfrwt>
<totfact> 0.73891443E+05</totfact>
</mgrwt>
</event>
<event>
 4    1  0.4118611E+000  0.1173978E+03  0.7546771E-02  0.1247453E+00
         -3   -1    0    0    0  501 -0.00000000000E+00  0.00000000000E+00  0.52162859479E+02  0.52162859479E+02  0.00000000000E+00 0.  1.
          3   -1    0    0  501    0  0.00000000000E+00 -0.00000000000E+00 -0.66053906167E+02  0.66053906167E+02  0.00000000000E+00 0. -1.
        -13    1    1    2    0    0 -0.15827297237E+01 -0.38279843476E+02 -0.51727199371E+02  0.64370448225E+02  0.00000000000E+00 0. -1.
         13    1    1    2    0    0  0.15827297237E+01  0.38279843476E+02  0.37836152684E+02  0.53846317421E+02  0.00000000000E+00 0.  1.
<mgrwt>
<rscale>  0 0.11739780E+03</rscale>
<asrwt>0</asrwt>
<pdfrwt beam="2">  1        3 0.10162139E-01 0.11739780E+03</pdfrwt>
<pdfrwt beam="1">  1       -3 0.80250553E-02 0.11739780E+03</pdfrwt>
<totfact> 0.16608141E+04</totfact>
</mgrwt>
</event>
<event>
 4    1  0.4118611E+000  0.2823272E+02  0.7546771E-02  0.1618487E+00
          2   -1    0    0  501    0  0.00000000000E+00  0.00000000000E+00  0.67099578139E+02  0.67099578139E+02  0.00000000000E+00 0.  1.
         -2   -1    0    0    0  501 -0.00000000000E+00 -0.00000000000E+00 -0.29697885557E+01  0.29697885557E+01  0.00000000000E+00 0. -1.
        -11    1    1    2    0    0  0.93896087964E+01 -0.46495815301E+01  0.55542749856E+02  0.56522388691E+02  0.00000000000E+00 0.  1.
         11    1    1    2    0    0 -0.93896087964E+01  0.46495815301E+01  0.85870397267E+01  0.13546978003E+02  0.00000000000E+00 0. -1.
<mgrwt>
<rscale>  0 0.28232716E+02</rscale>
<asrwt>0</asrwt>
<pdfrwt beam="1">  1        2 0.10323011E-01 0.28232716E+02</pdfrwt>
<pdfrwt beam="2">  1       -2 0.45689060E-03 0.28232716E+02</pdfrwt>
<totfact> 0.22116356E+06</totfact>
</mgrwt>
</event>
<event>
 4    1  0.4118611E+000  0.2288756E+02  0.7546771E-02  0.1693339E+00
         -4   -1    0    0    0  501 -0.00000000000E+00  0.00000000000E+00  0.93765774713E+01  0.93765774713E+01  0.00000000000E+00 0.  1.
          4   -1    0    0  501    0  0.00000000000E+00 -0.00000000000E+00 -0.13966721368E+02  0.13966721368E+02  0.00000000000E+00 0. -1.
        -13    1    1    2    0    0 -0.10032489515E+02  0.50843024590E+01 -0.44487701871E+01  0.12095145040E+02  0.00000000000E+00 0.  1.
         13    1    1    2    0    0  0.10032489515E+02 -0.50843024590E+01 -0.14137370983E+00  0.11248153799E+02  0.00000000000E+00 0. -1.
<mgrwt>
<rscale>  0 0.22887555E+02</rscale>
<asrwt>0</asrwt>
<pdfrwt beam="2">  1        4 0.21487263E-02 0.22887555E+02</pdfrwt>
<pdfrwt beam="1">  1       -4 0.14425504E-02 0.22887555E+02</pdfrwt>
<totfact> 0.96777941E+05</totfact>
</mgrwt>
</event>
<event>
 4    1  0.4118611E+000  0.3202739E+02  0.7546771E-02  0.1576702E+00
          2   -1    0    0  501    0  0.00000000000E+00  0.00000000000E+00  0.15899997815E+01  0.15899997815E+01  0.00000000000E+00 0.  1.
         -2   -1    0    0    0  501 -0.00000000000E+00 -0.00000000000E+00 -0.16128202374E+03  0.16128202374E+03  0.00000000000E+00 0. -1.
        -11    1    1    2    0    0 -0.15446089945E+02  0.41513408427E+01 -0.83860118679E+02  0.85371744917E+02  0.00000000000E+00 0.  1.
         11    1    1    2    0    0  0.15446089945E+02 -0.41513408427E+01 -0.75831905279E+02  0.77500278603E+02  0.00000000000E+00 0. -1.
<mgrwt>
<rscale>  0 0.32027387E+02</rscale>
<asrwt>0</asrwt>
<pdfrwt beam="1">  1        2 0.24461533E-03 0.32027387E+02</pdfrwt>
<pdfrwt beam="2">  1       -2 0.24812621E-01 0.32027387E+02</pdfrwt>
<totfact> 0.89079437E+05</totfact>
</mgrwt>
</event>
<event>
 4    1  0.4118611E+000  0.4655747E+02  0.7546771E-02  0.1464846E+00
         -4   -1    0    0    0  501 -0.00000000000E+00  0.00000000000E+00  0.89455860452E+02  0.89455860452E+02  0.00000000000E+00 0.  1.
          4   -1    0    0  501    0  0.00000000000E+00 -0.00000000000E+00 -0.60577314675E+01  0.60577314675E+01  0.00000000000E+00 0. -1.
        -11    1    1    2    0    0  0.20367282125E+02 -0.69824598156E+01  0.59854571588E+02  0.63609359894E+02  0.00000000000E+00 0.  1.
         11    1    1    2    0    0 -0.20367282125E+02  0.69824598156E+01  0.23543557397E+02  0.31904232025E+02  0.00000000000E+00 0. -1.
<mgrwt>
<rscale>  0 0.46557473E+02</rscale>
<asrwt>0</asrwt>
<pdfrwt beam="2">  1        4 0.93195875E-03 0.46557473E+02</pdfrwt>
<pdfrwt beam="1">  1       -4 0.13762439E-01 0.46557473E+02</pdfrwt>
<totfact> 0.15087925E+05</totfact>
</mgrwt>
</event>
<event>
 4    1  0.4118611E+000  0.2128947E+02  0.7546771E-02  0.1720838E+00
          2   -1    0    0  501    0  0.00000000000E+00  0.00000000000E+00  0.96994912048E+02  0.96994912048E+02  0.00000000000E+00 0. -1.
         -2   -1    0    0    0  501 -0.00000000000E+00 -0.00000000000E+00 -0.11682097472E+01  0.11682097472E+01  0.00000000000E+00 0.  1.
        -13    1    1    2    0    0  0.98964429216E+01 -0.38275576245E+01  0.51827498560E+02  0.52902546128E+02  0.00000000000E+00 0. -1.
         13    1    1    2    0    0 -0.98964429216E+01  0.38275576245E+01  0.43999203741E+02  0.45260575667E+02  0.00000000000E+00 0.  1.
<mgrwt>
<rscale>  0 0.21289472E+02</rscale>
<asrwt>0</asrwt>
<pdfrwt beam="1">  1        2 0.14922288E-01 0.21289472E+02</pdfrwt>
<pdfrwt beam="2">  1       -2 0.17972465E-03 0.21289472E+02</pdfrwt>
<totfact> 0.45610552E+06</totfact>
</mgrwt>
</event>
<event>
 4    1  0.4118611E+000  0.3460064E+02  0.7546771E-02  0.1552176E+00
         -4   -1    0    0    0  501 -0.00000000000E+00  0.00000000000E+00  0.35501494726E+02  0.35501494726E+02  0.00000000000E+00 0. -1.
          4   -1    0    0  501    0  0.00000000000E+00 -0.00000000000E+00 -0.84306601007E+01  0.84306601007E+01  0.00000000000E+00 0.  1.
        -11    1    1    2    0    0 -0.78851214260E+01  0.14020057269E+02  0.54487757206E+01  0.16983118165E+02  0.00000000000E+00 0. -1.
         11    1    1    2    0    0  0.78851214260E+01 -0.14020057269E+02  0.21622058905E+02  0.26949036662E+02  0.00000000000E+00 0.  1.
<mgrwt>
<rscale>  0 0.34600638E+02</rscale>
<asrwt>0</asrwt>
<pdfrwt beam="2">  1        4 0.12970246E-02 0.34600638E+02</pdfrwt>
<pdfrwt beam="1">  1       -4 0.54617683E-02 0.34600638E+02</pdfrwt>
<totfact> 0.35663207E+05</totfact>
</mgrwt>
</event>
<event>
 4    1  0.4118611E+000  0.7848612E+02  0.7546771E-02  0.1333403E+00
         -2   -1    0    0    0  501 -0.00000000000E+00  0.00000000000E+00  0.49520917097E+02  0.49520917097E+02  0.00000000000E+00 0. -1.
          2   -1    0    0  501    0  0.00000000000E+00 -0.00000000000E+00 -0.31098327322E+02  0.31098327322E+02  0.00000000000E+00 0.  1.
        -13    1    1    2    0    0 -0.29475261317E+01  0.33068427065E+02  0.30703856048E+02  0.45220963668E+02  0.00000000000E+00 0.  1.
         13    1    1    2    0    0  0.29475261317E+01 -0.33068427065E+02 -0.12281266273E+02  0.35398280751E+02  0.00000000000E+00 0. -1.
<mgrwt>
<rscale>  0 0.78486118E+02</rscale>
<asrwt>0</asrwt>
<pdfrwt beam="2">  1        2 0.47843581E-02 0.78486118E+02</pdfrwt>
<pdfrwt beam="1">  1       -2 0.76186026E-02 0.78486118E+02</pdfrwt>
<totfact> 0.13803331E+05</totfact>
</mgrwt>
</event>
<event>
 4    1  0.4118611E+000  0.2661211E+02  0.7546771E-02  0.1638871E+00
          2   -1    0    0  501    0  0.00000000000E+00  0.00000000000E+00  0.48110052746E+02  0.48110052746E+02  0.00000000000E+00 0. -1.
         -2   -1    0    0    0  501 -0.00000000000E+00 -0.00000000000E+00 -0.36801282651E+01  0.36801282651E+01  0.00000000000E+00 0.  1.
        -13    1    1    2    0    0  0.10197250588E+02 -0.83816245252E+01  0.25480500140E+02  0.28696540499E+02  0.00000000000E+00 0. -1.
         13    1    1    2    0    0 -0.10197250588E+02  0.83816245252E+01  0.18949424341E+02  0.23093640512E+02  0.00000000000E+00 0.  1.
<mgrwt>
<rscale>  0 0.26612115E+02</rscale>
<asrwt>0</asrwt>
<pdfrwt beam="1">  1        2 0.74015461E-02 0.26612115E+02</pdfrwt>
<pdfrwt beam="2">  1       -2 0.56617361E-03 0.26612115E+02</pdfrwt>
<totfact> 0.23979262E+06</totfact>
</mgrwt>
</event>
<event>
 4    1  0.4118611E+000  0.2141434E+02  0.7546771E-02  0.1718582E+00
          2   -1    0    0  501    0  0.00000000000E+00  0.00000000000E+00  0.50672802245E+02  0.50672802245E+02  0.00000000000E+00 0.  1.
         -2   -1    0    0    0  501 -0.00000000000E+00 -0.00000000000E+00 -0.22624258351E+01  0.22624258351E+01  0.00000000000E+00 0. -1.
        -11    1    1    2    0    0  0.98075075891E+01  0.38376013615E+01  0.19431651291E+02  0.22102114406E+02  0.00000000000E+00 0. -1.
         11    1    1    2    0    0 -0.98075075891E+01 -0.38376013615E+01  0.28978725118E+02  0.30833113674E+02  0.00000000000E+00 0.  1.
<mgrwt>
<rscale>  0 0.21414337E+02</rscale>
<asrwt>0</asrwt>
<pdfrwt beam="1">  1        2 0.77958148E-02 0.21414337E+02</pdfrwt>
<pdfrwt beam="2">  1       -2 0.34806555E-03 0.21414337E+02</pdfrwt>
<totfact> 0.39827835E+06</totfact>
</mgrwt>
</event>
<event>
 4    1  0.4118611E+000  0.5376577E+02  0.7546771E-02  0.1426027E+00
         -2   -1    0    0    0  501 -0.00000000000E+00  0.00000000000E+00  0.42847980084E+02  0.42847980084E+02  0.00000000000E+00 0. -1.
          2   -1    0    0  501    0  0.00000000000E+00 -0.00000000000E+00 -0.16866359748E+02  0.16866359748E+02  0.00000000000E+00 0.  1.
        -11    1    1    2    0    0 -0.11586619525E+02  0.15327281414E+02 -0.78913863002E+01  0.20771357329E+02  0.00000000000E+00 0.  1.
         11    1    1    2    0    0  0.11586619525E+02 -0.15327281414E+02  0.33873006636E+02  0.38942982502E+02  0.00000000000E+00 0. -1.
<mgrwt>
<rscale>  0 0.53765768E+02</rscale>
<asrwt>0</asrwt>
<pdfrwt beam="2">  1        2 0.25948246E-02 0.53765768E+02</pdfrwt>
<pdfrwt beam="1">  1       -2 0.65919969E-02 0.53765768E+02</pdfrwt>
<totfact> 0.35189952E+05</totfact>
</mgrwt>
</event>
<event>
 4    1  0.4118611E+000  0.5664156E+02  0.7546771E-02  0.1412492E+00
         -2   -1    0    0    0  501 -0.00000000000E+00  0.00000000000E+00  0.64353530410E+01  0.64353530410E+01  0.00000000000E+00 0.  1.
          2   -1    0    0  501    0  0.00000000000E+00 -0.00000000000E+00 -0.12463441818E+03  0.12463441818E+03  0.00000000000E+00 0. -1.
        -11    1    1    2    0    0  0.17993570676E+02 -0.98305241323E+01 -0.10430645479E+03  0.10630260722E+03  0.00000000000E+00 0. -1.
         11    1    1    2    0    0 -0.17993570676E+02  0.98305241323E+01 -0.13892610347E+02  0.24767164001E+02  0.00000000000E+00 0.  1.
<mgrwt>
<rscale>  0 0.56641557E+02</rscale>
<asrwt>0</asrwt>
<pdfrwt beam="2">  1        2 0.19174526E-01 0.56641557E+02</pdfrwt>
<pdfrwt beam="1">  1       -2 0.99005430E-03 0.56641557E+02</pdfrwt>
<totfact> 0.46296402E+05</totfact>
</mgrwt>
</event>
<event>
 4    1  0.4118611E+000  0.3533153E+02  0.7546771E-02  0.1545676E+00
         -3   -1    0    0    0  501 -0.00000000000E+00  0.00000000000E+00  0.22147381758E+01  0.22147381758E+01  0.00000000000E+00 0. -1.
          3   -1    0    0  501    0  0.00000000000E+00 -0.00000000000E+00 -0.14091025769E+03  0.14091025769E+03  0.00000000000E+00 0.  1.
        -13    1    1    2    0    0  0.16949679597E+02 -0.46274341389E+01 -0.61906261121E+02  0.64351301084E+02  0.00000000000E+00 0. -1.
         13    1    1    2    0    0 -0.16949679597E+02  0.46274341389E+01 -0.76789258397E+02  0.78773694787E+02  0.00000000000E+00 0.  1.
<mgrwt>
<rscale>  0 0.35331534E+02</rscale>
<asrwt>0</asrwt>
<pdfrwt beam="2">  1        3 0.21678496E-01 0.35331534E+02</pdfrwt>
<pdfrwt beam="1">  1       -3 0.34072902E-03 0.35331534E+02</pdfrwt>
<totfact> 0.35411724E+05</totfact>
</mgrwt>
</event>
<event>
 4    1  0.4118611E+000  0.2343830E+02  0.7546771E-02  0.1684502E+00
         -2   -1    0    0    0  501 -0.00000000000E+00  0.00000000000E+00  0.18880520955E+02  0.18880520955E+02  0.00000000000E+00 0.  1.
          2   -1    0    0  501    0  0.00000000000E+00 -0.00000000000E+00 -0.72740829864E+01  0.72740829864E+01  0.00000000000E+00 0. -1.
        -13    1    1    2    0    0  0.25037939107E+01 -0.98874251640E+01 -0.63696652781E+00  0.10219387784E+02  0.00000000000E+00 0.  1.
         13    1    1    2    0    0 -0.25037939107E+01  0.98874251640E+01  0.12243404497E+02  0.15935216158E+02  0.00000000000E+00 0. -1.
<mgrwt>
<rscale>  0 0.23438300E+02</rscale>
<asrwt>0</asrwt>
<pdfrwt beam="2">  1        2 0.11190897E-02 0.23438300E+02</pdfrwt>
<pdfrwt beam="1">  1       -2 0.29046955E-02 0.23438300E+02</pdfrwt>
<totfact> 0.26565335E+06</totfact>
</mgrwt>
</event>
<event>
 4    1  0.4118611E+000  0.3039901E+02  0.7546771E-02  0.1593720E+00
          2   -1    0    0  501    0  0.00000000000E+00  0.00000000000E+00  0.35434970881E+01  0.35434970881E+01  0.00000000000E+00 0.  1.
         -2   -1    0    0    0  501 -0.00000000000E+00 -0.00000000000E+00 -0.65196861251E+02  0.65196861251E+02  0.00000000000E+00 0. -1.
        -13    1    1    2    0    0 -0.72078658172E+01  0.13088911171E+02 -0.24530775876E+02  0.28723368368E+02  0.00000000000E+00 0.  1.
         13    1    1    2    0    0  0.72078658172E+01 -0.13088911171E+02 -0.37122588287E+02  0.40016989972E+02  0.00000000000E+00 0. -1.
<mgrwt>
<rscale>  0 0.30399006E+02</rscale>
<asrwt>0</asrwt>
<pdfrwt beam="1">  1        2 0.54515339E-03 0.30399006E+02</pdfrwt>
<pdfrwt beam="2">  1       -2 0.10030286E-01 0.30399006E+02</pdfrwt>
<totfact> 0.12644222E+06</totfact>
</mgrwt>
</event>
<event>
 4    1  0.4118611E+000  0.3404134E+02  0.7546771E-02  0.1557282E+00
          2   -1    0    0  501    0  0.00000000000E+00  0.00000000000E+00  0.27211743353E+02  0.27211743353E+02  0.00000000000E+00 0.  1.
         -2   -1    0    0    0  501 -0.00000000000E+00 -0.00000000000E+00 -0.10646258460E+02  0.10646258460E+02  0.00000000000E+00 0. -1.
        -13    1    1    2    0    0 -0.48783101196E+01 -0.10088656940E+02 -0.59647195886E+01  0.12694754359E+02  0.00000000000E+00 0. -1.
         13    1    1    2    0    0  0.48783101196E+01  0.10088656940E+02  0.22530204482E+02  0.25163247455E+02  0.00000000000E+00 0.  1.
<mgrwt>
<rscale>  0 0.34041343E+02</rscale>
<asrwt>0</asrwt>
<pdfrwt beam="1">  1        2 0.41864220E-02 0.34041343E+02</pdfrwt>
<pdfrwt beam="2">  1       -2 0.16378859E-02 0.34041343E+02</pdfrwt>
<totfact> 0.12280568E+06</totfact>
</mgrwt>
</event>
<event>
 4    1  0.4118611E+000  0.2884924E+02  0.7546771E-02  0.1611169E+00
         -2   -1    0    0    0  501 -0.00000000000E+00  0.00000000000E+00  0.10162705925E+02  0.10162705925E+02  0.00000000000E+00 0.  1.
          2   -1    0    0  501    0  0.00000000000E+00 -0.00000000000E+00 -0.20473845602E+02  0.20473845602E+02  0.00000000000E+00 0. -1.
        -11    1    1    2    0    0 -0.13060297937E+01 -0.14118336120E+02 -0.23385806684E+01  0.14370180520E+02  0.00000000000E+00 0.  1.
         11    1    1    2    0    0  0.13060297937E+01  0.14118336120E+02 -0.79725590088E+01  0.16266371008E+02  0.00000000000E+00 0. -1.
<mgrwt>
<rscale>  0 0.28849241E+02</rscale>
<asrwt>0</asrwt>
<pdfrwt beam="2">  1        2 0.31498223E-02 0.28849241E+02</pdfrwt>
<pdfrwt beam="1">  1       -2 0.15634932E-02 0.28849241E+02</pdfrwt>
<totfact> 0.17777742E+06</totfact>
</mgrwt>
</event>
<event>
 4    1  0.4118611E+000  0.1201285E+03  0.7546771E-02  0.1242885E+00
          2   -1    0    0  501    0  0.00000000000E+00  0.00000000000E+00  0.28326757700E+03  0.28326757700E+03  0.00000000000E+00 0. -1.
         -2   -1    0    0    0  501 -0.00000000000E+00 -0.00000000000E+00 -0.12736062319E+02  0.12736062319E+02  0.00000000000E+00 0.  1.
        -13    1    1    2    0    0 -0.44781317614E+02  0.95706281391E+01  0.39491815751E+02  0.60469553013E+02  0.00000000000E+00 0.  1.
         13    1    1    2    0    0  0.44781317614E+02 -0.95706281391E+01  0.23103969893E+03  0.23553408630E+03  0.00000000000E+00 0. -1.
<mgrwt>
<rscale>  0 0.12012849E+03</rscale>
<asrwt>0</asrwt>
<pdfrwt beam="1">  1        2 0.43579623E-01 0.12012849E+03</pdfrwt>
<pdfrwt beam="2">  1       -2 0.19593944E-02 0.12012849E+03</pdfrwt>
<totfact> 0.83182084E+04</totfact>
</mgrwt>
</event>
<event>
 4    1  0.4118611E+000  0.5502708E+02  0.7546771E-02  0.1419971E+00
          2   -1    0    0  501    0  0.00000000000E+00  0.00000000000E+00  0.29116983171E+02  0.29116983171E+02  0.00000000000E+00 0.  1.
         -2   -1    0    0    0  501 -0.00000000000E+00 -0.00000000000E+00 -0.25998397612E+02  0.25998397612E+02  0.00000000000E+00 0. -1.
        -13    1    1    2    0    0  0.35041679463E+01  0.22749949451E+02  0.16655156919E+02  0.28411857472E+02  0.00000000000E+00 0.  1.
         13    1    1    2    0    0 -0.35041679463E+01 -0.22749949451E+02 -0.13536571360E+02  0.26703523310E+02  0.00000000000E+00 0. -1.
<mgrwt>
<rscale>  0 0.55027081E+02</rscale>
<asrwt>0</asrwt>
<pdfrwt beam="1">  1        2 0.44795359E-02 0.55027081E+02</pdfrwt>
<pdfrwt beam="2">  1       -2 0.39997535E-02 0.55027081E+02</pdfrwt>
<totfact> 0.36264135E+05</totfact>
</mgrwt>
</event>
<event>
 4    1  0.4118611E+000  0.2506727E+02  0.7546771E-02  0.1660038E+00
         -3   -1    0    0    0  501 -0.00000000000E+00  0.00000000000E+00  0.92942483016E+02  0.92942483016E+02  0.00000000000E+00 0.  1.
          3   -1    0    0  501    0  0.00000000000E+00 -0.00000000000E+00 -0.16902062389E+01  0.16902062389E+01  0.00000000000E+00 0. -1.
        -11    1    1    2    0    0  0.98314806959E+01 -0.71477841234E+01  0.57165465693E+02  0.58443470965E+02  0.00000000000E+00 0. -1.
         11    1    1    2    0    0 -0.98314806959E+01  0.71477841234E+01  0.34086811083E+02  0.36189218289E+02  0.00000000000E+00 0.  1.
<mgrwt>
<rscale>  0 0.25067267E+02</rscale>
<asrwt>0</asrwt>
<pdfrwt beam="2">  1        3 0.26003180E-03 0.25067267E+02</pdfrwt>
<pdfrwt beam="1">  1       -3 0.14298840E-01 0.25067267E+02</pdfrwt>
<totfact> 0.87481045E+05</totfact>
</mgrwt>
</event>
<event>
 4    1  0.4118611E+000  0.3042328E+02  0.7546771E-02  0.1593456E+00
         -4   -1    0    0    0  501 -0.00000000000E+00  0.00000000000E+00  0.27091336412E+01  0.27091336412E+01  0.00000000000E+00 0.  1.
          4   -1    0    0  501    0  0.00000000000E+00 -0.00000000000E+00 -0.85412549145E+02  0.85412549145E+02  0.00000000000E+00 0. -1.
        -13    1    1    2    0    0  0.12502723344E+02 -0.33150348650E+01 -0.64539525682E+02  0.65822928547E+02  0.00000000000E+00 0. -1.
         13    1    1    2    0    0 -0.12502723344E+02  0.33150348650E+01 -0.18163889822E+02  0.22298754240E+02  0.00000000000E+00 0.  1.
<mgrwt>
<rscale>  0 0.30423281E+02</rscale>
<asrwt>0</asrwt>
<pdfrwt beam="2">  1        4 0.13140394E-01 0.30423281E+02</pdfrwt>
<pdfrwt beam="1">  1       -4 0.41678973E-03 0.30423281E+02</pdfrwt>
<totfact> 0.41648324E+05</totfact>
</mgrwt>
</event>
<event>
 4    1  0.4118611E+000  0.2359143E+02  0.7546771E-02  0.1682099E+00
         -2   -1    0    0    0  501 -0.00000000000E+00  0.00000000000E+00  0.21441259917E+01  0.21441259917E+01  0.00000000000E+00 0.  1.
          2   -1    0    0  501    0  0.00000000000E+00 -0.00000000000E+00 -0.64893056220E+02  0.64893056220E+02  0.00000000000E+00 0. -1.
        -13    1    1    2    0    0 -0.10135499183E+02 -0.51260801262E+01 -0.40420300286E+02  0.41985779930E+02  0.00000000000E+00 0. -1.
         13    1    1    2    0    0  0.10135499183E+02  0.51260801262E+01 -0.22328629943E+02  0.25051402282E+02  0.00000000000E+00 0.  1.
<mgrwt>
<rscale>  0 0.23591430E+02</rscale>
<asrwt>0</asrwt>
<pdfrwt beam="2">  1        2 0.99835465E-02 0.23591430E+02</pdfrwt>
<pdfrwt beam="1">  1       -2 0.32986556E-03 0.23591430E+02</pdfrwt>
<totfact> 0.33327352E+06</totfact>
</mgrwt>
</event>
<event>
 4    1  0.4118611E+000  0.3087076E+02  0.7546771E-02  0.1588658E+00
         -4   -1    0    0    0  501 -0.00000000000E+00  0.00000000000E+00  0.37216199388E+02  0.37216199388E+02  0.00000000000E+00 0. -1.
          4   -1    0    0  501    0  0.00000000000E+00 -0.00000000000E+00 -0.64018060170E+01  0.64018060170E+01  0.00000000000E+00 0.  1.
        -13    1    1    2    0    0 -0.14789860640E+02 -0.16185046482E+01  0.96002107441E+01  0.17706597115E+02  0.00000000000E+00 0.  1.
         13    1    1    2    0    0  0.14789860640E+02  0.16185046482E+01  0.21214182627E+02  0.25911408290E+02  0.00000000000E+00 0. -1.
<mgrwt>
<rscale>  0 0.30870756E+02</rscale>
<asrwt>0</asrwt>
<pdfrwt beam="2">  1        4 0.98489326E-03 0.30870756E+02</pdfrwt>
<pdfrwt beam="1">  1       -4 0.57255690E-02 0.30870756E+02</pdfrwt>
<totfact> 0.46380920E+05</totfact>
</mgrwt>
</event>
<event>
 4    1  0.4118611E+000  0.2733177E+02  0.7546771E-02  0.1629605E+00
          4   -1    0    0  501    0  0.00000000000E+00  0.00000000000E+00  0.38354717500E+02  0.38354717500E+02  0.00000000000E+00 0. -1.
         -4   -1    0    0    0  501 -0.00000000000E+00 -0.00000000000E+00 -0.48691914784E+01  0.48691914784E+01  0.00000000000E+00 0.  1.
        -13    1    1    2    0    0 -0.11922657463E+02 -0.13658138859E+00  0.61827256614E+01  0.13431102414E+02  0.00000000000E+00 0.  1.
         13    1    1    2    0    0  0.11922657463E+02  0.13658138859E+00  0.27302800360E+02  0.29792806564E+02  0.00000000000E+00 0. -1.
<mgrwt>
<rscale>  0 0.27331774E+02</rscale>
<asrwt>0</asrwt>
<pdfrwt beam="1">  1        4 0.59007256E-02 0.27331774E+02</pdfrwt>
<pdfrwt beam="2">  1       -4 0.74910641E-03 0.27331774E+02</pdfrwt>
<totfact> 0.60973687E+05</totfact>
</mgrwt>
</event>
<event>
 4    1  0.4118611E+000  0.3101684E+02  0.7546771E-02  0.1587113E+00
          1   -1    0    0  501    0  0.00000000000E+00  0.00000000000E+00  0.40971335694E+01  0.40971335694E+01  0.00000000000E+00 0.  1.
         -1   -1    0    0    0  501 -0.00000000000E+00 -0.00000000000E+00 -0.58702263903E+02  0.58702263903E+02  0.00000000000E+00 0. -1.
        -11    1    1    2    0    0 -0.12036144377E+02 -0.69026301758E+01 -0.41329418345E+02  0.43596283047E+02  0.00000000000E+00 0. -1.
         11    1    1    2    0    0  0.12036144377E+02  0.69026301758E+01 -0.13275711989E+02  0.19203114425E+02  0.00000000000E+00 0.  1.
<mgrwt>
<rscale>  0 0.31016835E+02</rscale>
<asrwt>0</asrwt>
<pdfrwt beam="1">  1        1 0.63032823E-03 0.31016835E+02</pdfrwt>
<pdfrwt beam="2">  1       -1 0.90311176E-02 0.31016835E+02</pdfrwt>
<totfact> 0.12658385E+06</totfact>
</mgrwt>
</event>
<event>
 4    1  0.4118611E+000  0.3920052E+02  0.7546771E-02  0.1514179E+00
          1   -1    0    0  501    0  0.00000000000E+00  0.00000000000E+00  0.87918237122E+02  0.87918237122E+02  0.00000000000E+00 0.  1.
         -1   -1    0    0    0  501 -0.00000000000E+00 -0.00000000000E+00 -0.43696299506E+01  0.43696299506E+01  0.00000000000E+00 0. -1.
        -11    1    1    2    0    0  0.62743248380E+01 -0.17271138886E+02  0.25718591576E+02  0.31608627671E+02  0.00000000000E+00 0. -1.
         11    1    1    2    0    0 -0.62743248380E+01  0.17271138886E+02  0.57830015596E+02  0.60679239402E+02  0.00000000000E+00 0.  1.
<mgrwt>
<rscale>  0 0.39200518E+02</rscale>
<asrwt>0</asrwt>
<pdfrwt beam="1">  1        1 0.13525881E-01 0.39200518E+02</pdfrwt>
<pdfrwt beam="2">  1       -1 0.67225083E-03 0.39200518E+02</pdfrwt>
<totfact> 0.90995477E+05</totfact>
</mgrwt>
</event>
<event>
 4    1  0.4118611E+000  0.2110946E+02  0.7546771E-02  0.1724125E+00
         -2   -1    0    0    0  501 -0.00000000000E+00  0.00000000000E+00  0.16373131209E+02  0.16373131209E+02  0.00000000000E+00 0.  1.
          2   -1    0    0  501    0  0.00000000000E+00 -0.00000000000E+00 -0.68039705470E+01  0.68039705470E+01  0.00000000000E+00 0. -1.
        -13    1    1    2    0    0 -0.18033707819E+01 -0.10190556904E+02  0.25071090945E+01  0.10648248316E+02  0.00000000000E+00 0. -1.
         13    1    1    2    0    0  0.18033707819E+01  0.10190556904E+02  0.70620515670E+01  0.12528853440E+02  0.00000000000E+00 0.  1.
<mgrwt>
<rscale>  0 0.21109458E+02</rscale>
<asrwt>0</asrwt>
<pdfrwt beam="2">  1        2 0.10467647E-02 0.21109458E+02</pdfrwt>
<pdfrwt beam="1">  1       -2 0.25189433E-02 0.21109458E+02</pdfrwt>
<totfact> 0.33828950E+06</totfact>
</mgrwt>
</event>
<event>
 4    1  0.4118611E+000  0.2664831E+02  0.7546771E-02  0.1638396E+00
          4   -1    0    0  501    0  0.00000000000E+00  0.00000000000E+00  0.20859280502E+02  0.20859280502E+02  0.00000000000E+00 0. -1.
         -4   -1    0    0    0  501 -0.00000000000E+00 -0.00000000000E+00 -0.85109918417E+01  0.85109918417E+01  0.00000000000E+00 0.  1.
        -11    1    1    2    0    0  0.49168544366E+01 -0.11972076948E+02  0.26841436166E+01  0.13217817935E+02  0.00000000000E+00 0.  1.
         11    1    1    2    0    0 -0.49168544366E+01  0.11972076948E+02  0.96641450437E+01  0.16152454409E+02  0.00000000000E+00 0. -1.
<mgrwt>
<rscale>  0 0.26648314E+02</rscale>
<asrwt>0</asrwt>
<pdfrwt beam="1">  1        4 0.32091201E-02 0.26648314E+02</pdfrwt>
<pdfrwt beam="2">  1       -4 0.13093834E-02 0.26648314E+02</pdfrwt>
<totfact> 0.67933529E+05</totfact>
</mgrwt>
</event>
<event>
 4    1  0.4118611E+000  0.2115433E+02  0.7546771E-02  0.1723302E+00
         -1   -1    0    0    0  501 -0.00000000000E+00  0.00000000000E+00  0.59682525430E+01  0.59682525430E+01  0.00000000000E+00 0.  1.
          1   -1    0    0  501    0  0.00000000000E+00 -0.00000000000E+00 -0.18745249455E+02  0.18745249455E+02  0.00000000000E+00 0. -1.
        -13    1    1    2    0    0 -0.60455907554E+01 -0.85109132096E+01 -0.83750601373E+01  0.13383812743E+02  0.00000000000E+00 0. -1.
         13    1    1    2    0    0  0.60455907554E+01  0.85109132096E+01 -0.44019367749E+01  0.11329689255E+02  0.00000000000E+00 0.  1.
<mgrwt>
<rscale>  0 0.21154327E+02</rscale>
<asrwt>0</asrwt>
<pdfrwt beam="2">  1        1 0.28838845E-02 0.21154327E+02</pdfrwt>
<pdfrwt beam="1">  1       -1 0.91819270E-03 0.21154327E+02</pdfrwt>
<totfact> 0.34884190E+06</totfact>
</mgrwt>
</event>
<event>
 4    1  0.4118611E+000  0.2258335E+02  0.7546771E-02  0.1698354E+00
         -2   -1    0    0    0  501 -0.00000000000E+00  0.00000000000E+00  0.21527711686E+02  0.21527711686E+02  0.00000000000E+00 0.  1.
          2   -1    0    0  501    0  0.00000000000E+00 -0.00000000000E+00 -0.59226867474E+01  0.59226867474E+01  0.00000000000E+00 0. -1.
        -13    1    1    2    0    0  0.67900416116E+01 -0.79990839828E+01  0.12874558797E+02  0.16608560259E+02  0.00000000000E+00 0.  1.
         13    1    1    2    0    0 -0.67900416116E+01  0.79990839828E+01  0.27304661413E+01  0.10841838174E+02  0.00000000000E+00 0. -1.
<mgrwt>
<rscale>  0 0.22583347E+02</rscale>
<asrwt>0</asrwt>
<pdfrwt beam="2">  1        2 0.91118259E-03 0.22583347E+02</pdfrwt>
<pdfrwt beam="1">  1       -2 0.33119556E-02 0.22583347E+02</pdfrwt>
<totfact> 0.28503672E+06</totfact>
</mgrwt>
</event>
<event>
 4    1  0.4118611E+000  0.2402839E+02  0.7546771E-02  0.1675363E+00
          2   -1    0    0  501    0  0.00000000000E+00  0.00000000000E+00  0.15794521624E+02  0.15794521624E+02  0.00000000000E+00 0. -1.
         -2   -1    0    0    0  501 -0.00000000000E+00 -0.00000000000E+00 -0.91386653945E+01  0.91386653945E+01  0.00000000000E+00 0.  1.
        -11    1    1    2    0    0 -0.19359024857E+01 -0.10109732623E+02  0.97569080238E+01  0.14182794729E+02  0.00000000000E+00 0. -1.
         11    1    1    2    0    0  0.19359024857E+01  0.10109732623E+02 -0.31010517940E+01  0.10750392289E+02  0.00000000000E+00 0.  1.
<mgrwt>
<rscale>  0 0.24028387E+02</rscale>
<asrwt>0</asrwt>
<pdfrwt beam="1">  1        2 0.24299264E-02 0.24028387E+02</pdfrwt>
<pdfrwt beam="2">  1       -2 0.14059485E-02 0.24028387E+02</pdfrwt>
<totfact> 0.26768846E+06</totfact>
</mgrwt>
</event>
<event>
 4    1  0.4118611E+000  0.2125828E+02  0.7546771E-02  0.1721405E+00
         -3   -1    0    0    0  501 -0.00000000000E+00  0.00000000000E+00  0.17977145274E+01  0.17977145274E+01  0.00000000000E+00 0. -1.
          3   -1    0    0  501    0  0.00000000000E+00 -0.00000000000E+00 -0.62845704808E+02  0.62845704808E+02  0.00000000000E+00 0.  1.
        -13    1    1    2    0    0  0.89095291394E+01 -0.50743906026E+01 -0.22004442341E+02  0.24276009396E+02  0.00000000000E+00 0.  1.
         13    1    1    2    0    0 -0.89095291394E+01  0.50743906026E+01 -0.39043547940E+02  0.40367409939E+02  0.00000000000E+00 0. -1.
<mgrwt>
<rscale>  0 0.21258282E+02</rscale>
<asrwt>0</asrwt>
<pdfrwt beam="2">  1        3 0.96685709E-02 0.21258282E+02</pdfrwt>
<pdfrwt beam="1">  1       -3 0.27657144E-03 0.21258282E+02</pdfrwt>
<totfact> 0.13616623E+06</totfact>
</mgrwt>
</event>
<event>
 4    1  0.4118611E+000  0.6877476E+02  0.7546771E-02  0.1364310E+00
         -2   -1    0    0    0  501 -0.00000000000E+00  0.00000000000E+00  0.12192741799E+03  0.12192741799E+03  0.00000000000E+00 0.  1.
          2   -1    0    0  501    0  0.00000000000E+00 -0.00000000000E+00 -0.96983277452E+01  0.96983277452E+01  0.00000000000E+00 0. -1.
        -11    1    1    2    0    0 -0.26764365430E+02 -0.13622031439E+02  0.24055071420E+02  0.38477752772E+02  0.00000000000E+00 0. -1.
         11    1    1    2    0    0  0.26764365430E+02  0.13622031439E+02  0.88174018829E+02  0.93147992967E+02  0.00000000000E+00 0.  1.
<mgrwt>
<rscale>  0 0.68774765E+02</rscale>
<asrwt>0</asrwt>
<pdfrwt beam="2">  1        2 0.14920505E-02 0.68774765E+02</pdfrwt>
<pdfrwt beam="1">  1       -2 0.18758063E-01 0.68774765E+02</pdfrwt>
<totfact> 0.15206964E+05</totfact>
</mgrwt>
</event>
<event>
 4    1  0.4118611E+000  0.2968449E+02  0.7546771E-02  0.1601603E+00
         -2   -1    0    0    0  501 -0.00000000000E+00  0.00000000000E+00  0.22498716029E+01  0.22498716029E+01  0.00000000000E+00 0.  1.
          2   -1    0    0  501    0  0.00000000000E+00 -0.00000000000E+00 -0.97913272825E+02  0.97913272825E+02  0.00000000000E+00 0. -1.
        -11    1    1    2    0    0 -0.14003393072E+02 -0.17430762068E+00 -0.31243904117E+02  0.34238968225E+02  0.00000000000E+00 0. -1.
         11    1    1    2    0    0  0.14003393072E+02  0.17430762068E+00 -0.64419497106E+02  0.65924176203E+02  0.00000000000E+00 0.  1.
<mgrwt>
<rscale>  0 0.29684494E+02</rscale>
<asrwt>0</asrwt>
<pdfrwt beam="2">  1        2 0.15063579E-01 0.29684494E+02</pdfrwt>
<pdfrwt beam="1">  1       -2 0.34613412E-03 0.29684494E+02</pdfrwt>
<totfact> 0.21314977E+06</totfact>
</mgrwt>
</event>
<event>
 4    1  0.4118611E+000  0.4007396E+02  0.7546771E-02  0.1507668E+00
          4   -1    0    0  501    0  0.00000000000E+00  0.00000000000E+00  0.82011585902E+01  0.82011585902E+01  0.00000000000E+00 0. -1.
         -4   -1    0    0    0  501 -0.00000000000E+00 -0.00000000000E+00 -0.48954124257E+02  0.48954124257E+02  0.00000000000E+00 0.  1.
        -11    1    1    2    0    0 -0.11746235176E+01 -0.15385737735E+02 -0.21461999179E+01  0.15579051324E+02  0.00000000000E+00 0. -1.
         11    1    1    2    0    0  0.11746235176E+01  0.15385737735E+02 -0.38606765749E+02  0.41576231523E+02  0.00000000000E+00 0.  1.
<mgrwt>
<rscale>  0 0.40073958E+02</rscale>
<asrwt>0</asrwt>
<pdfrwt beam="1">  1        4 0.12617167E-02 0.40073958E+02</pdfrwt>
<pdfrwt beam="2">  1       -4 0.75314038E-02 0.40073958E+02</pdfrwt>
<totfact> 0.24169584E+05</totfact>
</mgrwt>
</event>
<event>
 4    1  0.4118611E+000  0.1212372E+03  0.7546771E-02  0.1241070E+00
          2   -1    0    0  501    0  0.00000000000E+00  0.00000000000E+00  0.14690442105E+03  0.14690442105E+03  0.00000000000E+00 0. -1.
         -2   -1    0    0    0  501 -0.00000000000E+00 -0.00000000000E+00 -0.25013636020E+02  0.25013636020E+02  0.00000000000E+00 0.  1.
        -11    1    1    2    0    0  0.48799098866E+02 -0.21854646940E-01  0.11194053096E+03  0.12211484348E+03  0.00000000000E+00 0. -1.
         11    1    1    2    0    0 -0.48799098866E+02  0.21854646940E-01  0.99502540773E+01  0.49803213591E+02  0.00000000000E+00 0.  1.
<mgrwt>
<rscale>  0 0.12123718E+03</rscale>
<asrwt>0</asrwt>
<pdfrwt beam="1">  1        2 0.22600680E-01 0.12123718E+03</pdfrwt>
<pdfrwt beam="2">  1       -2 0.38482518E-02 0.12123718E+03</pdfrwt>
<totfact> 0.63030129E+04</totfact>
</mgrwt>
</event>
<event>
 4    1  0.4118611E+000  0.5604110E+02  0.7546771E-02  0.1415239E+00
         -2   -1    0    0    0  501 -0.00000000000E+00  0.00000000000E+00  0.63078214654E+01  0.63078214654E+01  0.00000000000E+00 0. -1.
          2   -1    0    0  501    0  0.00000000000E+00 -0.00000000000E+00 -0.12447264599E+03  0.12447264599E+03  0.00000000000E+00 0.  1.
        -11    1    1    2    0    0 -0.16207577491E+02  0.18298354960E+02 -0.91048843968E+02  0.94273046786E+02  0.00000000000E+00 0.  1.
         11    1    1    2    0    0  0.16207577491E+02 -0.18298354960E+02 -0.27115980554E+02  0.36507420667E+02  0.00000000000E+00 0. -1.
<mgrwt>
<rscale>  0 0.56041100E+02</rscale>
<asrwt>0</asrwt>
<pdfrwt beam="2">  1        2 0.19149638E-01 0.56041100E+02</pdfrwt>
<pdfrwt beam="1">  1       -2 0.97043407E-03 0.56041100E+02</pdfrwt>
<totfact> 0.47559981E+05</totfact>
</mgrwt>
</event>
<event>
 4    1  0.4118611E+000  0.2654410E+02  0.7546771E-02  0.1639765E+00
         -1   -1    0    0    0  501 -0.00000000000E+00  0.00000000000E+00  0.57847248493E+02  0.57847248493E+02  0.00000000000E+00 0.  1.
          1   -1    0    0  501    0  0.00000000000E+00 -0.00000000000E+00 -0.30450428672E+01  0.30450428672E+01  0.00000000000E+00 0. -1.
        -11    1    1    2    0    0  0.11290254737E+01 -0.13193063811E+02  0.25329221560E+02  0.28581481699E+02  0.00000000000E+00 0. -1.
         11    1    1    2    0    0 -0.11290254737E+01  0.13193063811E+02  0.29472984066E+02  0.32310809662E+02  0.00000000000E+00 0.  1.
<mgrwt>
<rscale>  0 0.26544103E+02</rscale>
<asrwt>0</asrwt>
<pdfrwt beam="2">  1        1 0.46846817E-03 0.26544103E+02</pdfrwt>
<pdfrwt beam="1">  1       -1 0.88995759E-02 0.26544103E+02</pdfrwt>
<totfact> 0.18196202E+06</totfact>
</mgrwt>
</event>
<event>
 4    1  0.4118611E+000  0.2576922E+03  0.7546771E-02  0.1108538E+00
         -1   -1    0    0    0  501 -0.00000000000E+00  0.00000000000E+00  0.19605884032E+03  0.19605884032E+03  0.00000000000E+00 0.  1.
          1   -1    0    0  501    0  0.00000000000E+00 -0.00000000000E+00 -0.84675148666E+02  0.84675148666E+02  0.00000000000E+00 0. -1.
        -13    1    1    2    0    0  0.15369931211E+02 -0.48526295798E+02  0.18464059586E+03  0.19152855090E+03  0.00000000000E+00 0.  1.
         13    1    1    2    0    0 -0.15369931211E+02  0.48526295798E+02 -0.73256904210E+02  0.89205438084E+02  0.00000000000E+00 0. -1.
<mgrwt>
<rscale>  0 0.25769215E+03</rscale>
<asrwt>0</asrwt>
<pdfrwt beam="2">  1        1 0.13026946E-01 0.25769215E+03</pdfrwt>
<pdfrwt beam="1">  1       -1 0.30162899E-01 0.25769215E+03</pdfrwt>
<totfact> 0.45087643E+03</totfact>
</mgrwt>
</event>
<event>
 4    1  0.4118611E+000  0.2225110E+02  0.7546771E-02  0.1703945E+00
          2   -1    0    0  501    0  0.00000000000E+00  0.00000000000E+00  0.21635488751E+02  0.21635488751E+02  0.00000000000E+00 0. -1.
         -2   -1    0    0    0  501 -0.00000000000E+00 -0.00000000000E+00 -0.57210589913E+01  0.57210589913E+01  0.00000000000E+00 0.  1.
        -11    1    1    2    0    0  0.22894712942E+01 -0.10831726703E+02  0.93095645522E+01  0.14464991335E+02  0.00000000000E+00 0. -1.
         11    1    1    2    0    0 -0.22894712942E+01  0.10831726703E+02  0.66048652074E+01  0.12891556407E+02  0.00000000000E+00 0.  1.
<mgrwt>
<rscale>  0 0.22251104E+02</rscale>
<asrwt>0</asrwt>
<pdfrwt beam="1">  1        2 0.33285367E-02 0.22251104E+02</pdfrwt>
<pdfrwt beam="2">  1       -2 0.88016293E-03 0.22251104E+02</pdfrwt>
<totfact> 0.32925921E+06</totfact>
</mgrwt>
</event>
<event>
 4    1  0.4118611E+000  0.5674643E+02  0.7546771E-02  0.1412016E+00
          4   -1    0    0  501    0  0.00000000000E+00  0.00000000000E+00  0.60808674684E+02  0.60808674684E+02  0.00000000000E+00 0. -1.
         -4   -1    0    0    0  501 -0.00000000000E+00 -0.00000000000E+00 -0.13238890541E+02  0.13238890541E+02  0.00000000000E+00 0.  1.
        -11    1    1    2    0    0  0.27819836247E+02 -0.46516139511E+01  0.27798041698E+02  0.39601918179E+02  0.00000000000E+00 0. -1.
         11    1    1    2    0    0 -0.27819836247E+02  0.46516139511E+01  0.19771742445E+02  0.34445647047E+02  0.00000000000E+00 0.  1.
<mgrwt>
<rscale>  0 0.56746432E+02</rscale>
<asrwt>0</asrwt>
<pdfrwt beam="1">  1        4 0.93551805E-02 0.56746432E+02</pdfrwt>
<pdfrwt beam="2">  1       -4 0.20367524E-02 0.56746432E+02</pdfrwt>
<totfact> 0.97855152E+04</totfact>
</mgrwt>
</event>
<event>
 4    1  0.4118611E+000  0.4311219E+02  0.7546771E-02  0.1486483E+00
          2   -1    0    0  501    0  0.00000000000E+00  0.00000000000E+00  0.10281201794E+03  0.10281201794E+03  0.00000000000E+00 0. -1.
         -2   -1    0    0    0  501 -0.00000000000E+00 -0.00000000000E+00 -0.45195617808E+01  0.45195617808E+01  0.00000000000E+00 0.  1.
        -13    1    1    2    0    0 -0.18284108851E+02  0.62452983464E+01  0.72941383164E+02  0.75456992822E+02  0.00000000000E+00 0. -1.
         13    1    1    2    0    0  0.18284108851E+02 -0.62452983464E+01  0.25351072993E+02  0.31874586897E+02  0.00000000000E+00 0.  1.
<mgrwt>
<rscale>  0 0.43112192E+02</rscale>
<asrwt>0</asrwt>
<pdfrwt beam="1">  1        2 0.15817232E-01 0.43112192E+02</pdfrwt>
<pdfrwt beam="2">  1       -2 0.69531727E-03 0.43112192E+02</pdfrwt>
<totfact> 0.87451791E+05</totfact>
</mgrwt>
</event>
<event>
 4    1  0.4118611E+000  0.2735060E+02  0.7546771E-02  0.1629367E+00
          4   -1    0    0  501    0  0.00000000000E+00  0.00000000000E+00  0.25057661527E+02  0.25057661527E+02  0.00000000000E+00 0.  1.
         -4   -1    0    0    0  501 -0.00000000000E+00 -0.00000000000E+00 -0.74633417149E+01  0.74633417149E+01  0.00000000000E+00 0. -1.
        -13    1    1    2    0    0 -0.64246939376E+00 -0.13570496101E+02  0.69387678727E+01  0.15255085413E+02  0.00000000000E+00 0.  1.
         13    1    1    2    0    0  0.64246939376E+00  0.13570496101E+02  0.10655551940E+02  0.17265917829E+02  0.00000000000E+00 0. -1.
<mgrwt>
<rscale>  0 0.27350604E+02</rscale>
<asrwt>0</asrwt>
<pdfrwt beam="1">  1        4 0.38550248E-02 0.27350604E+02</pdfrwt>
<pdfrwt beam="2">  1       -4 0.11482064E-02 0.27350604E+02</pdfrwt>
<totfact> 0.63357695E+05</totfact>
</mgrwt>
</event>
<event>
 4    1  0.4118611E+000  0.2149683E+02  0.7546771E-02  0.1717102E+00
         -1   -1    0    0    0  501 -0.00000000000E+00  0.00000000000E+00  0.32328632897E+01  0.32328632897E+01  0.00000000000E+00 0.  1.
          1   -1    0    0  501    0  0.00000000000E+00 -0.00000000000E+00 -0.35735644852E+02  0.35735644852E+02  0.00000000000E+00 0. -1.
        -11    1    1    2    0    0  0.96240128881E+01  0.47815768064E+01 -0.15873947556E+02  0.19169436920E+02  0.00000000000E+00 0. -1.
         11    1    1    2    0    0 -0.96240128881E+01 -0.47815768064E+01 -0.16628834007E+02  0.19799071222E+02  0.00000000000E+00 0.  1.
<mgrwt>
<rscale>  0 0.21496833E+02</rscale>
<asrwt>0</asrwt>
<pdfrwt beam="2">  1        1 0.54977917E-02 0.21496833E+02</pdfrwt>
<pdfrwt beam="1">  1       -1 0.49736357E-03 0.21496833E+02</pdfrwt>
<totfact> 0.34727297E+06</totfact>
</mgrwt>
</event>
<event>
 4    1  0.4118611E+000  0.2682818E+02  0.7546771E-02  0.1636051E+00
          2   -1    0    0  501    0  0.00000000000E+00  0.00000000000E+00  0.12185002255E+03  0.12185002255E+03  0.00000000000E+00 0. -1.
         -2   -1    0    0    0  501 -0.00000000000E+00 -0.00000000000E+00 -0.14767158599E+01  0.14767158599E+01  0.00000000000E+00 0.  1.
        -11    1    1    2    0    0  0.33883490303E+01  0.12971563572E+02  0.62219143558E+02  0.63647185293E+02  0.00000000000E+00 0. -1.
         11    1    1    2    0    0 -0.33883490303E+01 -0.12971563572E+02  0.58154163135E+02  0.59679553120E+02  0.00000000000E+00 0.  1.
<mgrwt>
<rscale>  0 0.26828184E+02</rscale>
<asrwt>0</asrwt>
<pdfrwt beam="1">  1        2 0.18746149E-01 0.26828184E+02</pdfrwt>
<pdfrwt beam="2">  1       -2 0.22718715E-03 0.26828184E+02</pdfrwt>
<totfact> 0.28499890E+06</totfact>
</mgrwt>
</event>
<event>
 4    1  0.4118611E+000  0.9523866E+02  0.7546771E-02  0.1290639E+00
         -2   -1    0    0    0  501 -0.00000000000E+00  0.00000000000E+00  0.22732468776E+02  0.22732468776E+02  0.00000000000E+00 0.  1.
          2   -1    0    0  501    0  0.00000000000E+00 -0.00000000000E+00 -0.99751630496E+02  0.99751630496E+02  0.00000000000E+00 0. -1.
        -13    1    1    2    0    0 -0.24584365182E+02  0.37623019371E+02 -0.18267954876E+02  0.48513923500E+02  0.00000000000E+00 0.  1.
         13    1    1    2    0    0  0.24584365182E+02 -0.37623019371E+02 -0.58751206844E+02  0.73970175772E+02  0.00000000000E+00 0. -1.
<mgrwt>
<rscale>  0 0.95238665E+02</rscale>
<asrwt>0</asrwt>
<pdfrwt beam="2">  1        2 0.15346405E-01 0.95238665E+02</pdfrwt>
<pdfrwt beam="1">  1       -2 0.34973027E-02 0.95238665E+02</pdfrwt>
<totfact> 0.10866869E+05</totfact>
</mgrwt>
</event>
<event>
 4    1  0.4118611E+000  0.3922113E+02  0.7546771E-02  0.1514023E+00
         -2   -1    0    0    0  501 -0.00000000000E+00  0.00000000000E+00  0.70194493190E+01  0.70194493190E+01  0.00000000000E+00 0.  1.
          2   -1    0    0  501    0  0.00000000000E+00 -0.00000000000E+00 -0.54786961063E+02  0.54786961063E+02  0.00000000000E+00 0. -1.
        -11    1    1    2    0    0 -0.17903237457E+02  0.33868443573E+01 -0.12457233662E+02  0.22072138470E+02  0.00000000000E+00 0.  1.
         11    1    1    2    0    0  0.17903237457E+02 -0.33868443573E+01 -0.35310278082E+02  0.39734271912E+02  0.00000000000E+00 0. -1.
<mgrwt>
<rscale>  0 0.39221132E+02</rscale>
<asrwt>0</asrwt>
<pdfrwt beam="2">  1        2 0.84287630E-02 0.39221132E+02</pdfrwt>
<pdfrwt beam="1">  1       -2 0.10799153E-02 0.39221132E+02</pdfrwt>
<totfact> 0.96310092E+05</totfact>
</mgrwt>
</event>
<event>
 4    1  0.4118611E+000  0.2268161E+02  0.7546771E-02  0.1696724E+00
         -2   -1    0    0    0  501 -0.00000000000E+00  0.00000000000E+00  0.43113564345E+01  0.43113564345E+01  0.00000000000E+00 0. -1.
          2   -1    0    0  501    0  0.00000000000E+00 -0.00000000000E+00 -0.29831420576E+02  0.29831420576E+02  0.00000000000E+00 0.  1.
        -11    1    1    2    0    0 -0.62979300907E+01  0.94169042397E+01 -0.11975136140E+02  0.16484716997E+02  0.00000000000E+00 0.  1.
         11    1    1    2    0    0  0.62979300907E+01 -0.94169042397E+01 -0.13544928001E+02  0.17658060014E+02  0.00000000000E+00 0. -1.
<mgrwt>
<rscale>  0 0.22681613E+02</rscale>
<asrwt>0</asrwt>
<pdfrwt beam="2">  1        2 0.45894492E-02 0.22681613E+02</pdfrwt>
<pdfrwt beam="1">  1       -2 0.66328562E-03 0.22681613E+02</pdfrwt>
<totfact> 0.32579558E+06</totfact>
</mgrwt>
</event>
<event>
 4    1  0.4118611E+000  0.8928065E+02  0.7546771E-02  0.1304603E+00
          2   -1    0    0  501    0  0.00000000000E+00  0.00000000000E+00  0.31529708470E+02  0.31529708470E+02  0.00000000000E+00 0. -1.
         -2   -1    0    0    0  501 -0.00000000000E+00 -0.00000000000E+00 -0.63202575160E+02  0.63202575160E+02  0.00000000000E+00 0.  1.
        -13    1    1    2    0    0  0.28174893830E+02 -0.28932355487E+02  0.43475414427E+01  0.40617815709E+02  0.00000000000E+00 0.  1.
         13    1    1    2    0    0 -0.28174893830E+02  0.28932355487E+02 -0.36020408133E+02  0.54114467921E+02  0.00000000000E+00 0. -1.
<mgrwt>
<rscale>  0 0.89280653E+02</rscale>
<asrwt>0</asrwt>
<pdfrwt beam="1">  1        2 0.48507245E-02 0.89280653E+02</pdfrwt>
<pdfrwt beam="2">  1       -2 0.97234729E-02 0.89280653E+02</pdfrwt>
<totfact> 0.95366172E+04</totfact>
</mgrwt>
</event>
<event>
 4    1  0.4118611E+000  0.2631249E+02  0.7546771E-02  0.1642836E+00
          2   -1    0    0  501    0  0.00000000000E+00  0.00000000000E+00  0.10710613775E+02  0.10710613775E+02  0.00000000000E+00 0.  1.
         -2   -1    0    0    0  501 -0.00000000000E+00 -0.00000000000E+00 -0.16160302844E+02  0.16160302844E+02  0.00000000000E+00 0. -1.
        -11    1    1    2    0    0  0.11086437871E+02  0.50283628573E+01  0.23703543054E+01  0.12402101323E+02  0.00000000000E+00 0.  1.
         11    1    1    2    0    0 -0.11086437871E+02 -0.50283628573E+01 -0.78200433744E+01  0.14468815296E+02  0.00000000000E+00 0. -1.
<mgrwt>
<rscale>  0 0.26312488E+02</rscale>
<asrwt>0</asrwt>
<pdfrwt beam="1">  1        2 0.16477867E-02 0.26312488E+02</pdfrwt>
<pdfrwt beam="2">  1       -2 0.24862004E-02 0.26312488E+02</pdfrwt>
<totfact> 0.20835697E+06</totfact>
</mgrwt>
</event>
<event>
 4    1  0.4118611E+000  0.2945265E+02  0.7546771E-02  0.1604219E+00
          4   -1    0    0  501    0  0.00000000000E+00  0.00000000000E+00  0.13280979834E+02  0.13280979834E+02  0.00000000000E+00 0.  1.
         -4   -1    0    0    0  501 -0.00000000000E+00 -0.00000000000E+00 -0.16328960467E+02  0.16328960467E+02  0.00000000000E+00 0. -1.
        -13    1    1    2    0    0  0.10816752162E+02  0.27140794305E+01 -0.11192849796E+02  0.15800260791E+02  0.00000000000E+00 0. -1.
         13    1    1    2    0    0 -0.10816752162E+02 -0.27140794305E+01  0.81448691635E+01  0.13809679511E+02  0.00000000000E+00 0.  1.
<mgrwt>
<rscale>  0 0.29452646E+02</rscale>
<asrwt>0</asrwt>
<pdfrwt beam="1">  1        4 0.20432277E-02 0.29452646E+02</pdfrwt>
<pdfrwt beam="2">  1       -4 0.25121477E-02 0.29452646E+02</pdfrwt>
<totfact> 0.54328867E+05</totfact>
</mgrwt>
</event>
<event>
 4    1  0.4118611E+000  0.4350661E+02  0.7546771E-02  0.1483886E+00
         -2   -1    0    0    0  501 -0.00000000000E+00  0.00000000000E+00  0.10226767509E+02  0.10226767509E+02  0.00000000000E+00 0.  1.
          2   -1    0    0  501    0  0.00000000000E+00 -0.00000000000E+00 -0.46271350209E+02  0.46271350209E+02  0.00000000000E+00 0. -1.
        -13    1    1    2    0    0 -0.17507406841E+01 -0.20414933451E+02 -0.27509411206E+02  0.34301637069E+02  0.00000000000E+00 0. -1.
         13    1    1    2    0    0  0.17507406841E+01  0.20414933451E+02 -0.85351714946E+01  0.22196480649E+02  0.00000000000E+00 0.  1.
<mgrwt>
<rscale>  0 0.43506613E+02</rscale>
<asrwt>0</asrwt>
<pdfrwt beam="2">  1        2 0.71186695E-02 0.43506613E+02</pdfrwt>
<pdfrwt beam="1">  1       -2 0.15733488E-02 0.43506613E+02</pdfrwt>
<totfact> 0.72110879E+05</totfact>
</mgrwt>
</event>
<event>
 4    1  0.4118611E+000  0.7734898E+02  0.7546771E-02  0.1336748E+00
          1   -1    0    0  501    0  0.00000000000E+00  0.00000000000E+00  0.18761366390E+03  0.18761366390E+03  0.00000000000E+00 0. -1.
         -1   -1    0    0    0  501 -0.00000000000E+00 -0.00000000000E+00 -0.79723196917E+01  0.79723196917E+01  0.00000000000E+00 0.  1.
        -13    1    1    2    0    0 -0.30358489295E+02  0.16879352590E+02  0.13281949128E+03  0.13728644390E+03  0.00000000000E+00 0.  1.
         13    1    1    2    0    0  0.30358489295E+02 -0.16879352590E+02  0.46821852932E+02  0.58299539691E+02  0.00000000000E+00 0. -1.
<mgrwt>
<rscale>  0 0.77348978E+02</rscale>
<asrwt>0</asrwt>
<pdfrwt beam="1">  1        1 0.28863637E-01 0.77348978E+02</pdfrwt>
<pdfrwt beam="2">  1       -1 0.12265109E-02 0.77348978E+02</pdfrwt>
<totfact> 0.18112853E+05</totfact>
</mgrwt>
</event>
<event>
 4    1  0.4118611E+000  0.5847347E+02  0.7546771E-02  0.1404352E+00
          4   -1    0    0  501    0  0.00000000000E+00  0.00000000000E+00  0.18229888976E+02  0.18229888976E+02  0.00000000000E+00 0.  1.
         -4   -1    0    0    0  501 -0.00000000000E+00 -0.00000000000E+00 -0.46889297348E+02  0.46889297348E+02  0.00000000000E+00 0. -1.
        -13    1    1    2    0    0 -0.15548294284E+02 -0.17205293813E+02  0.54988051499E+01  0.23832927819E+02  0.00000000000E+00 0.  1.
         13    1    1    2    0    0  0.15548294284E+02  0.17205293813E+02 -0.34158213522E+02  0.41286258505E+02  0.00000000000E+00 0. -1.
<mgrwt>
<rscale>  0 0.58473470E+02</rscale>
<asrwt>0</asrwt>
<pdfrwt beam="1">  1        4 0.28045983E-02 0.58473470E+02</pdfrwt>
<pdfrwt beam="2">  1       -4 0.72137380E-02 0.58473470E+02</pdfrwt>
<totfact> 0.92975729E+04</totfact>
</mgrwt>
</event>
<event>
 4    1  0.4118611E+000  0.2238408E+02  0.7546771E-02  0.1701693E+00
          2   -1    0    0  501    0  0.00000000000E+00  0.00000000000E+00  0.22483747950E+02  0.22483747950E+02  0.00000000000E+00 0. -1.
         -2   -1    0    0    0  501 -0.00000000000E+00 -0.00000000000E+00 -0.55712111261E+01  0.55712111261E+01  0.00000000000E+00 0.  1.
        -11    1    1    2    0    0 -0.34279945014E+01  0.10138966065E+02  0.12558350011E+02  0.16500361638E+02  0.00000000000E+00 0. -1.
         11    1    1    2    0    0  0.34279945014E+01 -0.10138966065E+02  0.43541868129E+01  0.11554597439E+02  0.00000000000E+00 0.  1.
<mgrwt>
<rscale>  0 0.22384075E+02</rscale>
<asrwt>0</asrwt>
<pdfrwt beam="1">  1        2 0.34590381E-02 0.22384075E+02</pdfrwt>
<pdfrwt beam="2">  1       -2 0.85710941E-03 0.22384075E+02</pdfrwt>
<totfact> 0.32599090E+06</totfact>
</mgrwt>
</event>
<event>
 4    1  0.4118611E+000  0.3536769E+02  0.7546771E-02  0.1545359E+00
          4   -1    0    0  501    0  0.00000000000E+00  0.00000000000E+00  0.82650210862E+01  0.82650210862E+01  0.00000000000E+00 0. -1.
         -4   -1    0    0    0  501 -0.00000000000E+00 -0.00000000000E+00 -0.37836373114E+02  0.37836373114E+02  0.00000000000E+00 0.  1.
        -11    1    1    2    0    0 -0.14154958613E+02  0.61639881237E+01 -0.26026015093E+02  0.30260718176E+02  0.00000000000E+00 0. -1.
         11    1    1    2    0    0  0.14154958613E+02 -0.61639881237E+01 -0.35453369351E+01  0.15840676024E+02  0.00000000000E+00 0.  1.
<mgrwt>
<rscale>  0 0.35367693E+02</rscale>
<asrwt>0</asrwt>
<pdfrwt beam="1">  1        4 0.12715417E-02 0.35367693E+02</pdfrwt>
<pdfrwt beam="2">  1       -4 0.58209806E-02 0.35367693E+02</pdfrwt>
<totfact> 0.33643735E+05</totfact>
</mgrwt>
</event>
<event>
 4    1  0.4118611E+000  0.5833665E+02  0.7546771E-02  0.1404948E+00
         -2   -1    0    0    0  501 -0.00000000000E+00  0.00000000000E+00  0.44722271144E+02  0.44722271144E+02  0.00000000000E+00 0.  1.
          2   -1    0    0  501    0  0.00000000000E+00 -0.00000000000E+00 -0.19023880055E+02  0.19023880055E+02  0.00000000000E+00 0. -1.
        -13    1    1    2    0    0 -0.28667059721E+02  0.51598210276E+01  0.14530385395E+02  0.32550824350E+02  0.00000000000E+00 0.  1.
         13    1    1    2    0    0  0.28667059721E+02 -0.51598210276E+01  0.11168005694E+02  0.31195326850E+02  0.00000000000E+00 0. -1.
<mgrwt>
<rscale>  0 0.58336648E+02</rscale>
<asrwt>0</asrwt>
<pdfrwt beam="2">  1        2 0.29267508E-02 0.58336648E+02</pdfrwt>
<pdfrwt beam="1">  1       -2 0.68803494E-02 0.58336648E+02</pdfrwt>
<totfact> 0.28723415E+05</totfact>
</mgrwt>
</event>
<event>
 4    1  0.4118611E+000  0.7085682E+02  0.7546771E-02  0.1357203E+00
         -2   -1    0    0    0  501 -0.00000000000E+00  0.00000000000E+00  0.90479258261E+01  0.90479258261E+01  0.00000000000E+00 0.  1.
          2   -1    0    0  501    0  0.00000000000E+00 -0.00000000000E+00 -0.13872486072E+03  0.13872486072E+03  0.00000000000E+00 0. -1.
        -13    1    1    2    0    0 -0.23996285087E+01  0.25021242279E+02 -0.12769460384E+02  0.28193614537E+02  0.00000000000E+00 0. -1.
         13    1    1    2    0    0  0.23996285087E+01 -0.25021242279E+02 -0.11690747451E+03  0.11957917201E+03  0.00000000000E+00 0.  1.
<mgrwt>
<rscale>  0 0.70856820E+02</rscale>
<asrwt>0</asrwt>
<pdfrwt beam="2">  1        2 0.21342285E-01 0.70856820E+02</pdfrwt>
<pdfrwt beam="1">  1       -2 0.13919887E-02 0.70856820E+02</pdfrwt>
<totfact> 0.26732837E+05</totfact>
</mgrwt>
</event>
<event>
 4    1  0.4118611E+000  0.2248359E+02  0.7546771E-02  0.1700020E+00
         -1   -1    0    0    0  501 -0.00000000000E+00  0.00000000000E+00  0.52353426515E+02  0.52353426515E+02  0.00000000000E+00 0. -1.
          1   -1    0    0  501    0  0.00000000000E+00 -0.00000000000E+00 -0.24139386289E+01  0.24139386289E+01  0.00000000000E+00 0.  1.
        -13    1    1    2    0    0  0.82194788167E+01  0.72291272967E+01  0.31207620298E+02  0.33071674861E+02  0.00000000000E+00 0. -1.
         13    1    1    2    0    0 -0.82194788167E+01 -0.72291272967E+01  0.18731867588E+02  0.21695690283E+02  0.00000000000E+00 0.  1.
<mgrwt>
<rscale>  0 0.22483590E+02</rscale>
<asrwt>0</asrwt>
<pdfrwt beam="2">  1        1 0.37137521E-03 0.22483590E+02</pdfrwt>
<pdfrwt beam="1">  1       -1 0.80543725E-02 0.22483590E+02</pdfrwt>
<totfact> 0.26806200E+06</totfact>
</mgrwt>
</event>
<event>
 4    1  0.4118611E+000  0.4008663E+02  0.7546771E-02  0.1507575E+00
          2   -1    0    0  501    0  0.00000000000E+00  0.00000000000E+00  0.94645945253E+02  0.94645945253E+02  0.00000000000E+00 0.  1.
         -2   -1    0    0    0  501 -0.00000000000E+00 -0.00000000000E+00 -0.42446034369E+01  0.42446034369E+01  0.00000000000E+00 0. -1.
        -11    1    1    2    0    0  0.55424197184E+01  0.15721873293E+02  0.17748065311E+02  0.24349323162E+02  0.00000000000E+00 0. -1.
         11    1    1    2    0    0 -0.55424197184E+01 -0.15721873293E+02  0.72653276505E+02  0.74541225528E+02  0.00000000000E+00 0.  1.
<mgrwt>
<rscale>  0 0.40086631E+02</rscale>
<asrwt>0</asrwt>
<pdfrwt beam="1">  1        2 0.14560913E-01 0.40086631E+02</pdfrwt>
<pdfrwt beam="2">  1       -2 0.65301598E-03 0.40086631E+02</pdfrwt>
<totfact> 0.10252310E+06</totfact>
</mgrwt>
</event>
<event>
 4    1  0.4118611E+000  0.2686929E+02  0.7546771E-02  0.1635519E+00
         -3   -1    0    0    0  501 -0.00000000000E+00  0.00000000000E+00  0.85774023497E+02  0.85774023497E+02  0.00000000000E+00 0. -1.
          3   -1    0    0  501    0  0.00000000000E+00 -0.00000000000E+00 -0.21042469668E+01  0.21042469668E+01  0.00000000000E+00 0.  1.
        -11    1    1    2    0    0 -0.10888196989E+02  0.78458513998E+01  0.43849713577E+02  0.45857470478E+02  0.00000000000E+00 0.  1.
         11    1    1    2    0    0  0.10888196989E+02 -0.78458513998E+01  0.39820062954E+02  0.42020799986E+02  0.00000000000E+00 0. -1.
<mgrwt>
<rscale>  0 0.26869293E+02</rscale>
<asrwt>0</asrwt>
<pdfrwt beam="2">  1        3 0.32373037E-03 0.26869293E+02</pdfrwt>
<pdfrwt beam="1">  1       -3 0.13196001E-01 0.26869293E+02</pdfrwt>
<totfact> 0.76045441E+05</totfact>
</mgrwt>
</event>
<event>
 4    1  0.4118611E+000  0.3296025E+02  0.7546771E-02  0.1567498E+00
          4   -1    0    0  501    0  0.00000000000E+00  0.00000000000E+00  0.83161625183E+01  0.83161625183E+01  0.00000000000E+00 0. -1.
         -4   -1    0    0    0  501 -0.00000000000E+00 -0.00000000000E+00 -0.32658626801E+02  0.32658626801E+02  0.00000000000E+00 0.  1.
        -11    1    1    2    0    0  0.15368232113E+02  0.57742890765E+01 -0.10382866025E+02  0.19424955071E+02  0.00000000000E+00 0. -1.
         11    1    1    2    0    0 -0.15368232113E+02 -0.57742890765E+01 -0.13959598258E+02  0.21549834248E+02  0.00000000000E+00 0.  1.
<mgrwt>
<rscale>  0 0.32960246E+02</rscale>
<asrwt>0</asrwt>
<pdfrwt beam="1">  1        4 0.12794096E-02 0.32960246E+02</pdfrwt>
<pdfrwt beam="2">  1       -4 0.50244042E-02 0.32960246E+02</pdfrwt>
<totfact> 0.40307783E+05</totfact>
</mgrwt>
</event>
<event>
 4    1  0.4118611E+000  0.3748062E+02  0.7546771E-02  0.1527614E+00
          2   -1    0    0  501    0  0.00000000000E+00  0.00000000000E+00  0.20421951169E+02  0.20421951169E+02  0.00000000000E+00 0. -1.
         -2   -1    0    0    0  501 -0.00000000000E+00 -0.00000000000E+00 -0.17197143848E+02  0.17197143848E+02  0.00000000000E+00 0.  1.
        -13    1    1    2    0    0  0.48256263580E+01  0.12881550544E+02 -0.11161683567E+02  0.17714519306E+02  0.00000000000E+00 0.  1.
         13    1    1    2    0    0 -0.48256263580E+01 -0.12881550544E+02  0.14386490888E+02  0.19904575711E+02  0.00000000000E+00 0. -1.
<mgrwt>
<rscale>  0 0.37480621E+02</rscale>
<asrwt>0</asrwt>
<pdfrwt beam="1">  1        2 0.31418387E-02 0.37480621E+02</pdfrwt>
<pdfrwt beam="2">  1       -2 0.26457144E-02 0.37480621E+02</pdfrwt>
<totfact> 0.93235474E+05</totfact>
</mgrwt>
</event>
<event>
 4    1  0.4118611E+000  0.3795620E+02  0.7546771E-02  0.1523814E+00
          2   -1    0    0  501    0  0.00000000000E+00  0.00000000000E+00  0.32488781483E+02  0.32488781483E+02  0.00000000000E+00 0. -1.
         -2   -1    0    0    0  501 -0.00000000000E+00 -0.00000000000E+00 -0.11085925495E+02  0.11085925495E+02  0.00000000000E+00 0.  1.
        -11    1    1    2    0    0  0.11148194456E+02 -0.52282021774E+01 -0.58775913387E+01  0.13644134915E+02  0.00000000000E+00 0.  1.
         11    1    1    2    0    0 -0.11148194456E+02  0.52282021774E+01  0.27280447327E+02  0.29930572062E+02  0.00000000000E+00 0. -1.
<mgrwt>
<rscale>  0 0.37956196E+02</rscale>
<asrwt>0</asrwt>
<pdfrwt beam="1">  1        2 0.49982740E-02 0.37956196E+02</pdfrwt>
<pdfrwt beam="2">  1       -2 0.17055270E-02 0.37956196E+02</pdfrwt>
<totfact> 0.96039776E+05</totfact>
</mgrwt>
</event>
<event>
 4    1  0.4118611E+000  0.5950638E+02  0.7546771E-02  0.1399915E+00
         -4   -1    0    0    0  501 -0.00000000000E+00  0.00000000000E+00  0.23425782330E+02  0.23425782330E+02  0.00000000000E+00 0.  1.
          4   -1    0    0  501    0  0.00000000000E+00 -0.00000000000E+00 -0.37789662829E+02  0.37789662829E+02  0.00000000000E+00 0. -1.
        -11    1    1    2    0    0 -0.59714322323E+01 -0.18147125774E+02 -0.30646610322E+02  0.36113583331E+02  0.00000000000E+00 0. -1.
         11    1    1    2    0    0  0.59714322323E+01  0.18147125774E+02  0.16282729823E+02  0.25101861828E+02  0.00000000000E+00 0.  1.
<mgrwt>
<rscale>  0 0.59506383E+02</rscale>
<asrwt>0</asrwt>
<pdfrwt beam="2">  1        4 0.58137943E-02 0.59506383E+02</pdfrwt>
<pdfrwt beam="1">  1       -4 0.36039665E-02 0.59506383E+02</pdfrwt>
<totfact> 0.89909710E+04</totfact>
</mgrwt>
</event>
<event>
 4    1  0.4118611E+000  0.3446087E+02  0.7546771E-02  0.1553441E+00
         -4   -1    0    0    0  501 -0.00000000000E+00  0.00000000000E+00  0.10972640628E+02  0.10972640628E+02  0.00000000000E+00 0.  1.
          4   -1    0    0  501    0  0.00000000000E+00 -0.00000000000E+00 -0.27057100289E+02  0.27057100289E+02  0.00000000000E+00 0. -1.
        -11    1    1    2    0    0 -0.12364583329E+02 -0.11944046188E+02 -0.93219242084E+01  0.19556109817E+02  0.00000000000E+00 0.  1.
         11    1    1    2    0    0  0.12364583329E+02  0.11944046188E+02 -0.67625354526E+01  0.18473631099E+02  0.00000000000E+00 0. -1.
<mgrwt>
<rscale>  0 0.34460867E+02</rscale>
<asrwt>0</asrwt>
<pdfrwt beam="2">  1        4 0.41626307E-02 0.34460867E+02</pdfrwt>
<pdfrwt beam="1">  1       -4 0.16880986E-02 0.34460867E+02</pdfrwt>
<totfact> 0.36750054E+05</totfact>
</mgrwt>
</event>
<event>
 4    1  0.4118611E+000  0.4103648E+02  0.7546771E-02  0.1500720E+00
          4   -1    0    0  501    0  0.00000000000E+00  0.00000000000E+00  0.43750074320E+02  0.43750074320E+02  0.00000000000E+00 0. -1.
         -4   -1    0    0    0  501 -0.00000000000E+00 -0.00000000000E+00 -0.96227968591E+01  0.96227968591E+01  0.00000000000E+00 0.  1.
        -11    1    1    2    0    0 -0.15186147735E+01  0.15277167314E+02  0.34768326713E+02  0.38007033223E+02  0.00000000000E+00 0. -1.
         11    1    1    2    0    0  0.15186147735E+01 -0.15277167314E+02 -0.64104925233E+00  0.15365837956E+02  0.00000000000E+00 0.  1.
<mgrwt>
<rscale>  0 0.41036475E+02</rscale>
<asrwt>0</asrwt>
<pdfrwt beam="1">  1        4 0.67307805E-02 0.41036475E+02</pdfrwt>
<pdfrwt beam="2">  1       -4 0.14804303E-02 0.41036475E+02</pdfrwt>
<totfact> 0.23111638E+05</totfact>
</mgrwt>
</event>
<event>
 4    1  0.4118611E+000  0.4509988E+02  0.7546771E-02  0.1473719E+00
          2   -1    0    0  501    0  0.00000000000E+00  0.00000000000E+00  0.49340544671E+02  0.49340544671E+02  0.00000000000E+00 0.  1.
         -2   -1    0    0    0  501 -0.00000000000E+00 -0.00000000000E+00 -0.10305922912E+02  0.10305922912E+02  0.00000000000E+00 0. -1.
        -13    1    1    2    0    0 -0.69551213060E+01 -0.19562178554E+02  0.78783962949E+01  0.22206343020E+02  0.00000000000E+00 0. -1.
         13    1    1    2    0    0  0.69551213060E+01  0.19562178554E+02  0.31156225463E+02  0.37440124563E+02  0.00000000000E+00 0.  1.
<mgrwt>
<rscale>  0 0.45099882E+02</rscale>
<asrwt>0</asrwt>
<pdfrwt beam="1">  1        2 0.75908529E-02 0.45099882E+02</pdfrwt>
<pdfrwt beam="2">  1       -2 0.15855266E-02 0.45099882E+02</pdfrwt>
<totfact> 0.66592729E+05</totfact>
</mgrwt>
</event>
<event>
 4    1  0.4118611E+000  0.2789588E+02  0.7546771E-02  0.1622584E+00
          2   -1    0    0  501    0  0.00000000000E+00  0.00000000000E+00  0.31278630177E+02  0.31278630177E+02  0.00000000000E+00 0. -1.
         -2   -1    0    0    0  501 -0.00000000000E+00 -0.00000000000E+00 -0.62197415005E+01  0.62197415005E+01  0.00000000000E+00 0.  1.
        -13    1    1    2    0    0 -0.11287623473E+02 -0.81837071437E+01  0.11989259500E+02  0.18388198651E+02  0.00000000000E+00 0.  1.
         13    1    1    2    0    0  0.11287623473E+02  0.81837071437E+01  0.13069629177E+02  0.19110173027E+02  0.00000000000E+00 0. -1.
<mgrwt>
<rscale>  0 0.27895877E+02</rscale>
<asrwt>0</asrwt>
<pdfrwt beam="1">  1        2 0.48120968E-02 0.27895877E+02</pdfrwt>
<pdfrwt beam="2">  1       -2 0.95688333E-03 0.27895877E+02</pdfrwt>
<totfact> 0.20214570E+06</totfact>
</mgrwt>
</event>
<event>
 4    1  0.4118611E+000  0.3822641E+02  0.7546771E-02  0.1521684E+00
          4   -1    0    0  501    0  0.00000000000E+00  0.00000000000E+00  0.54124336085E+02  0.54124336085E+02  0.00000000000E+00 0.  1.
         -4   -1    0    0    0  501 -0.00000000000E+00 -0.00000000000E+00 -0.67495454469E+01  0.67495454469E+01  0.00000000000E+00 0. -1.
        -13    1    1    2    0    0  0.31652406035E+00 -0.17980623602E+02  0.13377960837E+02  0.22413675485E+02  0.00000000000E+00 0. -1.
         13    1    1    2    0    0 -0.31652406035E+00  0.17980623602E+02  0.33996829801E+02  0.38460206047E+02  0.00000000000E+00 0.  1.
<mgrwt>
<rscale>  0 0.38226413E+02</rscale>
<asrwt>0</asrwt>
<pdfrwt beam="1">  1        4 0.83268206E-02 0.38226413E+02</pdfrwt>
<pdfrwt beam="2">  1       -4 0.10383916E-02 0.38226413E+02</pdfrwt>
<totfact> 0.26721606E+05</totfact>
</mgrwt>
</event>
<event>
 4    1  0.4118611E+000  0.2235037E+02  0.7546771E-02  0.1702262E+00
          2   -1    0    0  501    0  0.00000000000E+00  0.00000000000E+00  0.17001706750E+02  0.17001706750E+02  0.00000000000E+00 0. -1.
         -2   -1    0    0    0  501 -0.00000000000E+00 -0.00000000000E+00 -0.73454255044E+01  0.73454255044E+01  0.00000000000E+00 0.  1.
        -13    1    1    2    0    0  0.10656176196E+02 -0.22266684779E+01  0.75780749396E+01  0.13264213637E+02  0.00000000000E+00 0.  1.
         13    1    1    2    0    0 -0.10656176196E+02  0.22266684779E+01  0.20782063059E+01  0.11082918617E+02  0.00000000000E+00 0. -1.
<mgrwt>
<rscale>  0 0.22350371E+02</rscale>
<asrwt>0</asrwt>
<pdfrwt beam="1">  1        2 0.26156472E-02 0.22350371E+02</pdfrwt>
<pdfrwt beam="2">  1       -2 0.11300655E-02 0.22350371E+02</pdfrwt>
<totfact> 0.31881867E+06</totfact>
</mgrwt>
</event>
<event>
 4    1  0.4118611E+000  0.3014488E+02  0.7546771E-02  0.1596493E+00
         -2   -1    0    0    0  501 -0.00000000000E+00  0.00000000000E+00  0.11777303382E+02  0.11777303382E+02  0.00000000000E+00 0.  1.
          2   -1    0    0  501    0  0.00000000000E+00 -0.00000000000E+00 -0.19289519169E+02  0.19289519169E+02  0.00000000000E+00 0. -1.
        -13    1    1    2    0    0  0.21961401223E+01 -0.14699150390E+02 -0.63408939868E+01  0.16158434026E+02  0.00000000000E+00 0. -1.
         13    1    1    2    0    0 -0.21961401223E+01  0.14699150390E+02 -0.11713218005E+01  0.14908388524E+02  0.00000000000E+00 0.  1.
<mgrwt>
<rscale>  0 0.30144885E+02</rscale>
<asrwt>0</asrwt>
<pdfrwt beam="2">  1        2 0.29676183E-02 0.30144885E+02</pdfrwt>
<pdfrwt beam="1">  1       -2 0.18118928E-02 0.30144885E+02</pdfrwt>
<totfact> 0.15884543E+06</totfact>
</mgrwt>
</event>
<event>
 4    1  0.4118611E+000  0.7101627E+02  0.7546771E-02  0.1356671E+00
          2   -1    0    0  501    0  0.00000000000E+00  0.00000000000E+00  0.29878776329E+02  0.29878776329E+02  0.00000000000E+00 0. -1.
         -2   -1    0    0    0  501 -0.00000000000E+00 -0.00000000000E+00 -0.42198102047E+02  0.42198102047E+02  0.00000000000E+00 0.  1.
        -11    1    1    2    0    0 -0.27192074350E+02 -0.79651696247E+00  0.17001857030E+02  0.32079689668E+02  0.00000000000E+00 0. -1.
         11    1    1    2    0    0  0.27192074350E+02  0.79651696247E+00 -0.29321182749E+02  0.39997188708E+02  0.00000000000E+00 0.  1.
<mgrwt>
<rscale>  0 0.71016270E+02</rscale>
<asrwt>0</asrwt>
<pdfrwt beam="1">  1        2 0.45967348E-02 0.71016270E+02</pdfrwt>
<pdfrwt beam="2">  1       -2 0.64920157E-02 0.71016270E+02</pdfrwt>
<totfact> 0.18153580E+05</totfact>
</mgrwt>
</event>
<event>
 4    1  0.4118611E+000  0.5785270E+02  0.7546771E-02  0.1407070E+00
         -1   -1    0    0    0  501 -0.00000000000E+00  0.00000000000E+00  0.69329906956E+01  0.69329906956E+01  0.00000000000E+00 0.  1.
          1   -1    0    0  501    0  0.00000000000E+00 -0.00000000000E+00 -0.12068872945E+03  0.12068872945E+03  0.00000000000E+00 0. -1.
        -11    1    1    2    0    0 -0.17472173789E+02 -0.90523655900E+01 -0.10364830469E+03  0.10549973102E+03  0.00000000000E+00 0. -1.
         11    1    1    2    0    0  0.17472173789E+02  0.90523655900E+01 -0.10107434068E+02  0.22121989131E+02  0.00000000000E+00 0.  1.
<mgrwt>
<rscale>  0 0.57852704E+02</rscale>
<asrwt>0</asrwt>
<pdfrwt beam="2">  1        1 0.18567495E-01 0.57852704E+02</pdfrwt>
<pdfrwt beam="1">  1       -1 0.10666140E-02 0.57852704E+02</pdfrwt>
<totfact> 0.35778665E+05</totfact>
</mgrwt>
</event>
<event>
 4    1  0.4118611E+000  0.4682669E+02  0.7546771E-02  0.1463250E+00
          2   -1    0    0  501    0  0.00000000000E+00  0.00000000000E+00  0.12449378619E+02  0.12449378619E+02  0.00000000000E+00 0. -1.
         -2   -1    0    0    0  501 -0.00000000000E+00 -0.00000000000E+00 -0.44033100111E+02  0.44033100111E+02  0.00000000000E+00 0.  1.
        -11    1    1    2    0    0  0.22301027172E+02  0.65539137104E+01 -0.12402637908E+02  0.26346062797E+02  0.00000000000E+00 0. -1.
         11    1    1    2    0    0 -0.22301027172E+02 -0.65539137104E+01 -0.19181083584E+02  0.30136415933E+02  0.00000000000E+00 0.  1.
<mgrwt>
<rscale>  0 0.46826690E+02</rscale>
<asrwt>0</asrwt>
<pdfrwt beam="1">  1        2 0.19152890E-02 0.46826690E+02</pdfrwt>
<pdfrwt beam="2">  1       -2 0.67743232E-02 0.46826690E+02</pdfrwt>
<totfact> 0.48719237E+05</totfact>
</mgrwt>
</event>
<event>
 4    1  0.4118611E+000  0.2194917E+02  0.7546771E-02  0.1709133E+00
          2   -1    0    0  501    0  0.00000000000E+00  0.00000000000E+00  0.26753419294E+01  0.26753419294E+01  0.00000000000E+00 0.  1.
         -2   -1    0    0    0  501 -0.00000000000E+00 -0.00000000000E+00 -0.45019100356E+02  0.45019100356E+02  0.00000000000E+00 0. -1.
        -11    1    1    2    0    0  0.45412111557E+01 -0.94347833478E+01 -0.28314161529E+02  0.30188234110E+02  0.00000000000E+00 0. -1.
         11    1    1    2    0    0 -0.45412111557E+01  0.94347833478E+01 -0.14029596898E+02  0.17506208176E+02  0.00000000000E+00 0.  1.
<mgrwt>
<rscale>  0 0.21949167E+02</rscale>
<asrwt>0</asrwt>
<pdfrwt beam="1">  1        2 0.41159108E-03 0.21949167E+02</pdfrwt>
<pdfrwt beam="2">  1       -2 0.69260152E-02 0.21949167E+02</pdfrwt>
<totfact> 0.28025786E+06</totfact>
</mgrwt>
</event>
<event>
 4    1  0.4118611E+000  0.2975966E+02  0.7546771E-02  0.1600761E+00
          1   -1    0    0  501    0  0.00000000000E+00  0.00000000000E+00  0.24901886856E+02  0.24901886856E+02  0.00000000000E+00 0.  1.
         -1   -1    0    0    0  501 -0.00000000000E+00 -0.00000000000E+00 -0.88912682591E+01  0.88912682591E+01  0.00000000000E+00 0. -1.
        -13    1    1    2    0    0  0.12161402882E+02  0.79692826419E+01  0.44143998000E+01  0.15195266088E+02  0.00000000000E+00 0. -1.
         13    1    1    2    0    0 -0.12161402882E+02 -0.79692826419E+01  0.11596218797E+02  0.18597889027E+02  0.00000000000E+00 0.  1.
<mgrwt>
<rscale>  0 0.29759661E+02</rscale>
<asrwt>0</asrwt>
<pdfrwt beam="1">  1        1 0.38310595E-02 0.29759661E+02</pdfrwt>
<pdfrwt beam="2">  1       -1 0.13678874E-02 0.29759661E+02</pdfrwt>
<totfact> 0.15965454E+06</totfact>
</mgrwt>
</event>
<event>
 4    1  0.4118611E+000  0.2472194E+02  0.7546771E-02  0.1665028E+00
         -2   -1    0    0    0  501 -0.00000000000E+00  0.00000000000E+00  0.80606758915E+01  0.80606758915E+01  0.00000000000E+00 0.  1.
          2   -1    0    0  501    0  0.00000000000E+00 -0.00000000000E+00 -0.18955437618E+02  0.18955437618E+02  0.00000000000E+00 0. -1.
        -13    1    1    2    0    0 -0.17567508681E+01 -0.12181361199E+02 -0.67038167122E+01  0.14014738413E+02  0.00000000000E+00 0. -1.
         13    1    1    2    0    0  0.17567508681E+01  0.12181361199E+02 -0.41909450146E+01  0.13001375096E+02  0.00000000000E+00 0.  1.
<mgrwt>
<rscale>  0 0.24721945E+02</rscale>
<asrwt>0</asrwt>
<pdfrwt beam="2">  1        2 0.29162212E-02 0.24721945E+02</pdfrwt>
<pdfrwt beam="1">  1       -2 0.12401040E-02 0.24721945E+02</pdfrwt>
<totfact> 0.25464437E+06</totfact>
</mgrwt>
</event>
<event>
 4    1  0.4118611E+000  0.3047186E+02  0.7546771E-02  0.1592931E+00
         -2   -1    0    0    0  501 -0.00000000000E+00  0.00000000000E+00  0.24678425611E+01  0.24678425611E+01  0.00000000000E+00 0. -1.
          2   -1    0    0  501    0  0.00000000000E+00 -0.00000000000E+00 -0.94063350361E+02  0.94063350361E+02  0.00000000000E+00 0.  1.
        -11    1    1    2    0    0  0.47106313447E+01 -0.11552658749E+02 -0.18093819967E+02  0.21978177650E+02  0.00000000000E+00 0. -1.
         11    1    1    2    0    0 -0.47106313447E+01  0.11552658749E+02 -0.73501687833E+02  0.74553015272E+02  0.00000000000E+00 0.  1.
<mgrwt>
<rscale>  0 0.30471858E+02</rscale>
<asrwt>0</asrwt>
<pdfrwt beam="2">  1        2 0.14471286E-01 0.30471858E+02</pdfrwt>
<pdfrwt beam="1">  1       -2 0.37966805E-03 0.30471858E+02</pdfrwt>
<totfact> 0.19847989E+06</totfact>
</mgrwt>
</event>
<event>
 4    1  0.4118611E+000  0.2159164E+02  0.7546771E-02  0.1715412E+00
         -4   -1    0    0    0  501 -0.00000000000E+00  0.00000000000E+00  0.31224026989E+01  0.31224026989E+01  0.00000000000E+00 0. -1.
          4   -1    0    0  501    0  0.00000000000E+00 -0.00000000000E+00 -0.37326945980E+02  0.37326945980E+02  0.00000000000E+00 0.  1.
        -11    1    1    2    0    0  0.10142629747E+02  0.13888264361E+00 -0.10178990980E+02  0.14370249961E+02  0.00000000000E+00 0. -1.
         11    1    1    2    0    0 -0.10142629747E+02 -0.13888264361E+00 -0.24025552301E+02  0.26079098718E+02  0.00000000000E+00 0.  1.
<mgrwt>
<rscale>  0 0.21591643E+02</rscale>
<asrwt>0</asrwt>
<pdfrwt beam="2">  1        4 0.57426071E-02 0.21591643E+02</pdfrwt>
<pdfrwt beam="1">  1       -4 0.48036964E-03 0.21591643E+02</pdfrwt>
<totfact> 0.10204105E+06</totfact>
</mgrwt>
</event>
<event>
 4    1  0.4118611E+000  0.2569295E+02  0.7546771E-02  0.1651244E+00
         -2   -1    0    0    0  501 -0.00000000000E+00  0.00000000000E+00  0.53787527365E+02  0.53787527365E+02  0.00000000000E+00 0. -1.
          2   -1    0    0  501    0  0.00000000000E+00 -0.00000000000E+00 -0.30682195240E+01  0.30682195240E+01  0.00000000000E+00 0.  1.
        -13    1    1    2    0    0 -0.78809043913E+01  0.69743860721E+01  0.41663317109E+02  0.42971882756E+02  0.00000000000E+00 0. -1.
         13    1    1    2    0    0  0.78809043913E+01 -0.69743860721E+01  0.90559907316E+01  0.13883864132E+02  0.00000000000E+00 0.  1.
<mgrwt>
<rscale>  0 0.25692952E+02</rscale>
<asrwt>0</asrwt>
<pdfrwt beam="2">  1        2 0.47203381E-03 0.25692952E+02</pdfrwt>
<pdfrwt beam="1">  1       -2 0.82750035E-02 0.25692952E+02</pdfrwt>
<totfact> 0.19192406E+06</totfact>
</mgrwt>
</event>
<event>
 4    1  0.4118611E+000  0.6685746E+02  0.7546771E-02  0.1371118E+00
          3   -1    0    0  501    0  0.00000000000E+00  0.00000000000E+00  0.43531782438E+02  0.43531782438E+02  0.00000000000E+00 0. -1.
         -3   -1    0    0    0  501 -0.00000000000E+00 -0.00000000000E+00 -0.25670438898E+02  0.25670438898E+02  0.00000000000E+00 0.  1.
        -13    1    1    2    0    0  0.29192701776E+02  0.14738206711E+02  0.16105692040E+02  0.36453009342E+02  0.00000000000E+00 0. -1.
         13    1    1    2    0    0 -0.29192701776E+02 -0.14738206711E+02  0.17556515004E+01  0.32749211994E+02  0.00000000000E+00 0.  1.
<mgrwt>
<rscale>  0 0.66857459E+02</rscale>
<asrwt>0</asrwt>
<pdfrwt beam="1">  1        3 0.66971973E-02 0.66857459E+02</pdfrwt>
<pdfrwt beam="2">  1       -3 0.39492983E-02 0.66857459E+02</pdfrwt>
<totfact> 0.85182400E+04</totfact>
</mgrwt>
</event>
<event>
 4    1  0.4118611E+000  0.5827051E+02  0.7546771E-02  0.1405236E+00
          4   -1    0    0  501    0  0.00000000000E+00  0.00000000000E+00  0.18820594459E+03  0.18820594459E+03  0.00000000000E+00 0.  1.
         -4   -1    0    0    0  501 -0.00000000000E+00 -0.00000000000E+00 -0.45102884354E+01  0.45102884354E+01  0.00000000000E+00 0. -1.
        -11    1    1    2    0    0 -0.15231981078E+02 -0.21833537646E+02  0.52695230953E+02  0.59038156975E+02  0.00000000000E+00 0.  1.
         11    1    1    2    0    0  0.15231981078E+02  0.21833537646E+02  0.13100042520E+03  0.13367807605E+03  0.00000000000E+00 0. -1.
<mgrwt>
<rscale>  0 0.58270510E+02</rscale>
<asrwt>0</asrwt>
<pdfrwt beam="1">  1        4 0.28954755E-01 0.58270510E+02</pdfrwt>
<pdfrwt beam="2">  1       -4 0.69389067E-03 0.58270510E+02</pdfrwt>
<totfact> 0.69191771E+04</totfact>
</mgrwt>
</event>
<event>
 4    1  0.4118611E+000  0.2125350E+02  0.7546771E-02  0.1721492E+00
         -1   -1    0    0    0  501 -0.00000000000E+00  0.00000000000E+00  0.17913555211E+01  0.17913555211E+01  0.00000000000E+00 0. -1.
          1   -1    0    0  501    0  0.00000000000E+00 -0.00000000000E+00 -0.63040417956E+02  0.63040417956E+02  0.00000000000E+00 0.  1.
        -11    1    1    2    0    0 -0.22220391309E+01 -0.99156597041E+01 -0.21138784919E+02  0.23454338471E+02  0.00000000000E+00 0. -1.
         11    1    1    2    0    0  0.22220391309E+01  0.99156597041E+01 -0.40110277516E+02  0.41377435006E+02  0.00000000000E+00 0.  1.
<mgrwt>
<rscale>  0 0.21253499E+02</rscale>
<asrwt>0</asrwt>
<pdfrwt beam="2">  1        1 0.96985259E-02 0.21253499E+02</pdfrwt>
<pdfrwt beam="1">  1       -1 0.27559316E-03 0.21253499E+02</pdfrwt>
<totfact> 0.37072428E+06</totfact>
</mgrwt>
</event>
<event>
 4    1  0.4118611E+000  0.2607597E+02  0.7546771E-02  0.1646012E+00
         -2   -1    0    0    0  501 -0.00000000000E+00  0.00000000000E+00  0.17876043053E+02  0.17876043053E+02  0.00000000000E+00 0. -1.
          2   -1    0    0  501    0  0.00000000000E+00 -0.00000000000E+00 -0.95093219989E+01  0.95093219989E+01  0.00000000000E+00 0.  1.
        -11    1    1    2    0    0  0.10492541748E+02 -0.77352683268E+01  0.44432563509E+01  0.13772085370E+02  0.00000000000E+00 0.  1.
         11    1    1    2    0    0 -0.10492541748E+02  0.77352683268E+01  0.39234647028E+01  0.13613279682E+02  0.00000000000E+00 0. -1.
<mgrwt>
<rscale>  0 0.26075970E+02</rscale>
<asrwt>0</asrwt>
<pdfrwt beam="2">  1        2 0.14629726E-02 0.26075970E+02</pdfrwt>
<pdfrwt beam="1">  1       -2 0.27501605E-02 0.26075970E+02</pdfrwt>
<totfact> 0.21062774E+06</totfact>
</mgrwt>
</event>
<event>
 4    1  0.4118611E+000  0.3236310E+02  0.7546771E-02  0.1573346E+00
         -2   -1    0    0    0  501 -0.00000000000E+00  0.00000000000E+00  0.48934278838E+01  0.48934278838E+01  0.00000000000E+00 0. -1.
          2   -1    0    0  501    0  0.00000000000E+00 -0.00000000000E+00 -0.53509010559E+02  0.53509010559E+02  0.00000000000E+00 0.  1.
        -11    1    1    2    0    0 -0.13675139331E+02 -0.26632935781E+01 -0.94551650143E+01  0.16837538830E+02  0.00000000000E+00 0.  1.
         11    1    1    2    0    0  0.13675139331E+02  0.26632935781E+01 -0.39160417661E+02  0.41564899613E+02  0.00000000000E+00 0. -1.
<mgrwt>
<rscale>  0 0.32363095E+02</rscale>
<asrwt>0</asrwt>
<pdfrwt beam="2">  1        2 0.82321560E-02 0.32363095E+02</pdfrwt>
<pdfrwt beam="1">  1       -2 0.75283501E-03 0.32363095E+02</pdfrwt>
<totfact> 0.15335792E+06</totfact>
</mgrwt>
</event>
<event>
 4    1  0.4118611E+000  0.3142054E+02  0.7546771E-02  0.1582897E+00
         -1   -1    0    0    0  501 -0.00000000000E+00  0.00000000000E+00  0.10317624583E+02  0.10317624583E+02  0.00000000000E+00 0.  1.
          1   -1    0    0  501    0  0.00000000000E+00 -0.00000000000E+00 -0.23921461709E+02  0.23921461709E+02  0.00000000000E+00 0. -1.
        -11    1    1    2    0    0  0.73069492510E+01  0.97964856772E+01 -0.17559123066E+02  0.21393584128E+02  0.00000000000E+00 0. -1.
         11    1    1    2    0    0 -0.73069492510E+01 -0.97964856772E+01  0.39552859404E+01  0.12845502164E+02  0.00000000000E+00 0.  1.
<mgrwt>
<rscale>  0 0.31420545E+02</rscale>
<asrwt>0</asrwt>
<pdfrwt beam="2">  1        1 0.36802248E-02 0.31420545E+02</pdfrwt>
<pdfrwt beam="1">  1       -1 0.15873269E-02 0.31420545E+02</pdfrwt>
<totfact> 0.13975784E+06</totfact>
</mgrwt>
</event>
<event>
 4    1  0.4118611E+000  0.3657549E+02  0.7546771E-02  0.1535039E+00
          2   -1    0    0  501    0  0.00000000000E+00  0.00000000000E+00  0.15447423786E+02  0.15447423786E+02  0.00000000000E+00 0. -1.
         -2   -1    0    0    0  501 -0.00000000000E+00 -0.00000000000E+00 -0.21650316738E+02  0.21650316738E+02  0.00000000000E+00 0.  1.
        -11    1    1    2    0    0  0.78880969187E+01  0.12239840193E+02  0.81202470847E+01  0.16672557502E+02  0.00000000000E+00 0. -1.
         11    1    1    2    0    0 -0.78880969187E+01 -0.12239840193E+02 -0.14323140038E+02  0.20425183022E+02  0.00000000000E+00 0.  1.
<mgrwt>
<rscale>  0 0.36575490E+02</rscale>
<asrwt>0</asrwt>
<pdfrwt beam="1">  1        2 0.23765267E-02 0.36575490E+02</pdfrwt>
<pdfrwt beam="2">  1       -2 0.33308179E-02 0.36575490E+02</pdfrwt>
<totfact> 0.95862743E+05</totfact>
</mgrwt>
</event>
<event>
 4    1  0.4118611E+000  0.4939479E+02  0.7546771E-02  0.1448633E+00
          2   -1    0    0  501    0  0.00000000000E+00  0.00000000000E+00  0.44702063335E+02  0.44702063335E+02  0.00000000000E+00 0.  1.
         -2   -1    0    0    0  501 -0.00000000000E+00 -0.00000000000E+00 -0.13645038482E+02  0.13645038482E+02  0.00000000000E+00 0. -1.
        -11    1    1    2    0    0 -0.16524059843E+02  0.10667987831E+02  0.33172570464E+02  0.38565139041E+02  0.00000000000E+00 0.  1.
         11    1    1    2    0    0  0.16524059843E+02 -0.10667987831E+02 -0.21155456102E+01  0.19781962776E+02  0.00000000000E+00 0. -1.
<mgrwt>
<rscale>  0 0.49394792E+02</rscale>
<asrwt>0</asrwt>
<pdfrwt beam="1">  1        2 0.68772405E-02 0.49394792E+02</pdfrwt>
<pdfrwt beam="2">  1       -2 0.20992367E-02 0.49394792E+02</pdfrwt>
<totfact> 0.51844812E+05</totfact>
</mgrwt>
</event>
<event>
 4    1  0.4118611E+000  0.8362557E+02  0.7546771E-02  0.1319066E+00
          4   -1    0    0  501    0  0.00000000000E+00  0.00000000000E+00  0.97956090340E+01  0.97956090340E+01  0.00000000000E+00 0.  1.
         -4   -1    0    0    0  501 -0.00000000000E+00 -0.00000000000E+00 -0.17847883868E+03  0.17847883868E+03  0.00000000000E+00 0. -1.
        -13    1    1    2    0    0  0.37993511516E+02  0.11194679189E+02 -0.54179503439E+02  0.67113682304E+02  0.00000000000E+00 0.  1.
         13    1    1    2    0    0 -0.37993511516E+02 -0.11194679189E+02 -0.11450372620E+03  0.12116076541E+03  0.00000000000E+00 0. -1.
<mgrwt>
<rscale>  0 0.83625568E+02</rscale>
<asrwt>0</asrwt>
<pdfrwt beam="1">  1        4 0.15070169E-02 0.83625568E+02</pdfrwt>
<pdfrwt beam="2">  1       -4 0.27458281E-01 0.83625568E+02</pdfrwt>
<totfact> 0.27545245E+04</totfact>
</mgrwt>
</event>
<event>
 4    1  0.4118611E+000  0.2454052E+02  0.7546771E-02  0.1667691E+00
          1   -1    0    0  501    0  0.00000000000E+00  0.00000000000E+00  0.86232635335E+01  0.86232635335E+01  0.00000000000E+00 0. -1.
         -1   -1    0    0    0  501 -0.00000000000E+00 -0.00000000000E+00 -0.17459658457E+02  0.17459658457E+02  0.00000000000E+00 0.  1.
        -11    1    1    2    0    0  0.16250571119E+00  0.11669434756E+02 -0.84454254603E+01  0.14405808788E+02  0.00000000000E+00 0.  1.
         11    1    1    2    0    0 -0.16250571119E+00 -0.11669434756E+02 -0.39096946304E+00  0.11677113203E+02  0.00000000000E+00 0. -1.
<mgrwt>
<rscale>  0 0.24540516E+02</rscale>
<asrwt>0</asrwt>
<pdfrwt beam="1">  1        1 0.13266559E-02 0.24540516E+02</pdfrwt>
<pdfrwt beam="2">  1       -1 0.26861013E-02 0.24540516E+02</pdfrwt>
<totfact> 0.23877885E+06</totfact>
</mgrwt>
</event>
<event>
 4    1  0.4118611E+000  0.2416389E+02  0.7546771E-02  0.1673310E+00
         -4   -1    0    0    0  501 -0.00000000000E+00  0.00000000000E+00  0.64975324100E+01  0.64975324100E+01  0.00000000000E+00 0. -1.
          4   -1    0    0  501    0  0.00000000000E+00 -0.00000000000E+00 -0.22465966662E+02  0.22465966662E+02  0.00000000000E+00 0.  1.
        -11    1    1    2    0    0 -0.11124623011E+02  0.15467691065E+01 -0.26474816886E+01  0.11539449341E+02  0.00000000000E+00 0. -1.
         11    1    1    2    0    0  0.11124623011E+02 -0.15467691065E+01 -0.13320952563E+02  0.17424049730E+02  0.00000000000E+00 0.  1.
<mgrwt>
<rscale>  0 0.24163886E+02</rscale>
<asrwt>0</asrwt>
<pdfrwt beam="2">  1        4 0.34563025E-02 0.24163886E+02</pdfrwt>
<pdfrwt beam="1">  1       -4 0.99962038E-03 0.24163886E+02</pdfrwt>
<totfact> 0.84200828E+05</totfact>
</mgrwt>
</event>
<event>
 4    1  0.4118611E+000  0.2526845E+02  0.7546771E-02  0.1657176E+00
          2   -1    0    0  501    0  0.00000000000E+00  0.00000000000E+00  0.57870380453E+02  0.57870380453E+02  0.00000000000E+00 0.  1.
         -2   -1    0    0    0  501 -0.00000000000E+00 -0.00000000000E+00 -0.27582965951E+01  0.27582965951E+01  0.00000000000E+00 0. -1.
        -13    1    1    2    0    0  0.27080502246E+01  0.12298077301E+02  0.25100415093E+02  0.28082148764E+02  0.00000000000E+00 0.  1.
         13    1    1    2    0    0 -0.27080502246E+01 -0.12298077301E+02  0.30011668764E+02  0.32546528284E+02  0.00000000000E+00 0. -1.
<mgrwt>
<rscale>  0 0.25268453E+02</rscale>
<asrwt>0</asrwt>
<pdfrwt beam="1">  1        2 0.89031346E-02 0.25268453E+02</pdfrwt>
<pdfrwt beam="2">  1       -2 0.42435337E-03 0.25268453E+02</pdfrwt>
<totfact> 0.27885370E+06</totfact>
</mgrwt>
</event>
<event>
 4    1  0.4118611E+000  0.2079576E+02  0.7546771E-02  0.1729951E+00
          2   -1    0    0  501    0  0.00000000000E+00  0.00000000000E+00  0.53050869638E+02  0.53050869638E+02  0.00000000000E+00 0.  1.
         -2   -1    0    0    0  501 -0.00000000000E+00 -0.00000000000E+00 -0.20379659644E+01  0.20379659644E+01  0.00000000000E+00 0. -1.
        -11    1    1    2    0    0  0.99207139988E+01  0.20054024120E+01  0.31816324509E+02  0.33387433420E+02  0.00000000000E+00 0. -1.
         11    1    1    2    0    0 -0.99207139988E+01 -0.20054024120E+01  0.19196579165E+02  0.21701402183E+02  0.00000000000E+00 0.  1.
<mgrwt>
<rscale>  0 0.20795756E+02</rscale>
<asrwt>0</asrwt>
<pdfrwt beam="1">  1        2 0.81616712E-02 0.20795756E+02</pdfrwt>
<pdfrwt beam="2">  1       -2 0.31353327E-03 0.20795756E+02</pdfrwt>
<totfact> 0.42847815E+06</totfact>
</mgrwt>
</event>
<event>
 4    1  0.4118611E+000  0.7493604E+02  0.7546771E-02  0.1344069E+00
          2   -1    0    0  501    0  0.00000000000E+00  0.00000000000E+00  0.60420324453E+02  0.60420324453E+02  0.00000000000E+00 0. -1.
         -2   -1    0    0    0  501 -0.00000000000E+00 -0.00000000000E+00 -0.23234775749E+02  0.23234775749E+02  0.00000000000E+00 0.  1.
        -11    1    1    2    0    0 -0.37010361885E+02 -0.93509997790E+00  0.25026242995E+02  0.44687292794E+02  0.00000000000E+00 0. -1.
         11    1    1    2    0    0  0.37010361885E+02  0.93509997790E+00  0.12159305709E+02  0.38967807408E+02  0.00000000000E+00 0.  1.
<mgrwt>
<rscale>  0 0.74936044E+02</rscale>
<asrwt>0</asrwt>
<pdfrwt beam="1">  1        2 0.92954344E-02 0.74936044E+02</pdfrwt>
<pdfrwt beam="2">  1       -2 0.35745809E-02 0.74936044E+02</pdfrwt>
<totfact> 0.18301038E+05</totfact>
</mgrwt>
</event>
<event>
 4    1  0.4118611E+000  0.4358251E+02  0.7546771E-02  0.1483390E+00
          2   -1    0    0  501    0  0.00000000000E+00  0.00000000000E+00  0.10943305653E+02  0.10943305653E+02  0.00000000000E+00 0. -1.
         -2   -1    0    0    0  501 -0.00000000000E+00 -0.00000000000E+00 -0.43392624585E+02  0.43392624585E+02  0.00000000000E+00 0.  1.
        -13    1    1    2    0    0 -0.70658957351E+00 -0.21770345344E+02 -0.15424851875E+02  0.26690321477E+02  0.00000000000E+00 0.  1.
         13    1    1    2    0    0  0.70658957351E+00  0.21770345344E+02 -0.17024467057E+02  0.27645608761E+02  0.00000000000E+00 0. -1.
<mgrwt>
<rscale>  0 0.43582508E+02</rscale>
<asrwt>0</asrwt>
<pdfrwt beam="1">  1        2 0.16835856E-02 0.43582508E+02</pdfrwt>
<pdfrwt beam="2">  1       -2 0.66757881E-02 0.43582508E+02</pdfrwt>
<totfact> 0.57932353E+05</totfact>
</mgrwt>
</event>
<event>
 4    1  0.4118611E+000  0.7658567E+02  0.7546771E-02  0.1339030E+00
          2   -1    0    0  501    0  0.00000000000E+00  0.00000000000E+00  0.17945683388E+03  0.17945683388E+03  0.00000000000E+00 0. -1.
         -2   -1    0    0    0  501 -0.00000000000E+00 -0.00000000000E+00 -0.81709960574E+01  0.81709960574E+01  0.00000000000E+00 0.  1.
        -11    1    1    2    0    0 -0.19862918632E+02  0.31332620370E+02  0.62391699319E+02  0.72587828041E+02  0.00000000000E+00 0. -1.
         11    1    1    2    0    0  0.19862918632E+02 -0.31332620370E+02  0.10889413850E+03  0.11504000189E+03  0.00000000000E+00 0.  1.
<mgrwt>
<rscale>  0 0.76585667E+02</rscale>
<asrwt>0</asrwt>
<pdfrwt beam="1">  1        2 0.27608741E-01 0.76585667E+02</pdfrwt>
<pdfrwt beam="2">  1       -2 0.12570765E-02 0.76585667E+02</pdfrwt>
<totfact> 0.23704209E+05</totfact>
</mgrwt>
</event>
<event>
 4    1  0.4118611E+000  0.2069047E+02  0.7546771E-02  0.1731936E+00
         -2   -1    0    0    0  501 -0.00000000000E+00  0.00000000000E+00  0.67362374317E+02  0.67362374317E+02  0.00000000000E+00 0.  1.
          2   -1    0    0  501    0  0.00000000000E+00 -0.00000000000E+00 -0.15887777531E+01  0.15887777531E+01  0.00000000000E+00 0. -1.
        -13    1    1    2    0    0 -0.99504780602E+01 -0.18888948701E+01  0.39911916064E+02  0.41176947208E+02  0.00000000000E+00 0.  1.
         13    1    1    2    0    0  0.99504780602E+01  0.18888948701E+01  0.25861680500E+02  0.27774204862E+02  0.00000000000E+00 0. -1.
<mgrwt>
<rscale>  0 0.20690466E+02</rscale>
<asrwt>0</asrwt>
<pdfrwt beam="2">  1        2 0.24442740E-03 0.20690466E+02</pdfrwt>
<pdfrwt beam="1">  1       -2 0.10363440E-01 0.20690466E+02</pdfrwt>
<totfact> 0.29992886E+06</totfact>
</mgrwt>
</event>
<event>
 4    1  0.4118611E+000  0.2550890E+02  0.7546771E-02  0.1653798E+00
          3   -1    0    0  501    0  0.00000000000E+00  0.00000000000E+00  0.22824462308E+01  0.22824462308E+01  0.00000000000E+00 0.  1.
         -3   -1    0    0    0  501 -0.00000000000E+00 -0.00000000000E+00 -0.71272657174E+02  0.71272657174E+02  0.00000000000E+00 0. -1.
        -11    1    1    2    0    0  0.63314378468E+01  0.10451148343E+02 -0.45035656365E+02  0.46663947016E+02  0.00000000000E+00 0. -1.
         11    1    1    2    0    0 -0.63314378468E+01 -0.10451148343E+02 -0.23954554579E+02  0.26891156390E+02  0.00000000000E+00 0.  1.
<mgrwt>
<rscale>  0 0.25508901E+02</rscale>
<asrwt>0</asrwt>
<pdfrwt beam="1">  1        3 0.35114560E-03 0.25508901E+02</pdfrwt>
<pdfrwt beam="2">  1       -3 0.10965023E-01 0.25508901E+02</pdfrwt>
<totfact> 0.88761981E+05</totfact>
</mgrwt>
</event>
<event>
 4    1  0.4118611E+000  0.4450740E+02  0.7546771E-02  0.1477440E+00
          2   -1    0    0  501    0  0.00000000000E+00  0.00000000000E+00  0.45047480615E+01  0.45047480615E+01  0.00000000000E+00 0. -1.
         -2   -1    0    0    0  501 -0.00000000000E+00 -0.00000000000E+00 -0.10993448563E+03  0.10993448563E+03  0.00000000000E+00 0.  1.
        -13    1    1    2    0    0  0.16393159404E+02  0.51340398829E+01 -0.16339935898E+02  0.23708385561E+02  0.00000000000E+00 0. -1.
         13    1    1    2    0    0 -0.16393159404E+02 -0.51340398829E+01 -0.89089801668E+02  0.90730848128E+02  0.00000000000E+00 0.  1.
<mgrwt>
<rscale>  0 0.44507400E+02</rscale>
<asrwt>0</asrwt>
<pdfrwt beam="1">  1        2 0.69303822E-03 0.44507400E+02</pdfrwt>
<pdfrwt beam="2">  1       -2 0.16912996E-01 0.44507400E+02</pdfrwt>
<totfact> 0.45701448E+05</totfact>
</mgrwt>
</event>
<event>
 4    1  0.4118611E+000  0.2331222E+02  0.7546771E-02  0.1686499E+00
          2   -1    0    0  501    0  0.00000000000E+00  0.00000000000E+00  0.66078324021E+01  0.66078324021E+01  0.00000000000E+00 0.  1.
         -2   -1    0    0    0  501 -0.00000000000E+00 -0.00000000000E+00 -0.20561194911E+02  0.20561194911E+02  0.00000000000E+00 0. -1.
        -13    1    1    2    0    0  0.14345248554E+00  0.11565267356E+02 -0.52922486647E+01  0.12719429372E+02  0.00000000000E+00 0.  1.
         13    1    1    2    0    0 -0.14345248554E+00 -0.11565267356E+02 -0.86611138446E+01  0.14449597941E+02  0.00000000000E+00 0. -1.
<mgrwt>
<rscale>  0 0.23312223E+02</rscale>
<asrwt>0</asrwt>
<pdfrwt beam="1">  1        2 0.10165896E-02 0.23312223E+02</pdfrwt>
<pdfrwt beam="2">  1       -2 0.31632608E-02 0.23312223E+02</pdfrwt>
<totfact> 0.26681201E+06</totfact>
</mgrwt>
</event>
<event>
 4    1  0.4118611E+000  0.3027393E+02  0.7546771E-02  0.1595080E+00
         -2   -1    0    0    0  501 -0.00000000000E+00  0.00000000000E+00  0.28794937241E+02  0.28794937241E+02  0.00000000000E+00 0. -1.
          2   -1    0    0  501    0  0.00000000000E+00 -0.00000000000E+00 -0.79572207073E+01  0.79572207073E+01  0.00000000000E+00 0.  1.
        -13    1    1    2    0    0  0.12003759885E+02  0.20968159222E+01 -0.48277190874E+00  0.12195079217E+02  0.00000000000E+00 0.  1.
         13    1    1    2    0    0 -0.12003759885E+02 -0.20968159222E+01  0.21320488443E+02  0.24557078732E+02  0.00000000000E+00 0. -1.
<mgrwt>
<rscale>  0 0.30273927E+02</rscale>
<asrwt>0</asrwt>
<pdfrwt beam="2">  1        2 0.12241878E-02 0.30273927E+02</pdfrwt>
<pdfrwt beam="1">  1       -2 0.44299903E-02 0.30273927E+02</pdfrwt>
<totfact> 0.14316163E+06</totfact>
</mgrwt>
</event>
<event>
 4    1  0.4118611E+000  0.2340546E+02  0.7546771E-02  0.1685021E+00
         -2   -1    0    0    0  501 -0.00000000000E+00  0.00000000000E+00  0.70872404626E+01  0.70872404626E+01  0.00000000000E+00 0. -1.
          2   -1    0    0  501    0  0.00000000000E+00 -0.00000000000E+00 -0.19324007154E+02  0.19324007154E+02  0.00000000000E+00 0.  1.
        -13    1    1    2    0    0  0.11221066655E+02 -0.16730904419E+01 -0.93580206875E+01  0.14706601229E+02  0.00000000000E+00 0.  1.
         13    1    1    2    0    0 -0.11221066655E+02  0.16730904419E+01 -0.28787460035E+01  0.11704646388E+02  0.00000000000E+00 0. -1.
<mgrwt>
<rscale>  0 0.23405460E+02</rscale>
<asrwt>0</asrwt>
<pdfrwt beam="2">  1        2 0.29729242E-02 0.23405460E+02</pdfrwt>
<pdfrwt beam="1">  1       -2 0.10903447E-02 0.23405460E+02</pdfrwt>
<totfact> 0.28985625E+06</totfact>
</mgrwt>
</event>
<event>
 4    1  0.4118611E+000  0.2875114E+02  0.7546771E-02  0.1612318E+00
         -2   -1    0    0    0  501 -0.00000000000E+00  0.00000000000E+00  0.25341429208E+01  0.25341429208E+01  0.00000000000E+00 0. -1.
          2   -1    0    0  501    0  0.00000000000E+00 -0.00000000000E+00 -0.81549102224E+02  0.81549102224E+02  0.00000000000E+00 0.  1.
        -11    1    1    2    0    0 -0.11199842943E+02 -0.89538846706E+01 -0.42502145518E+02  0.44855778962E+02  0.00000000000E+00 0.  1.
         11    1    1    2    0    0  0.11199842943E+02  0.89538846706E+01 -0.36512813785E+02  0.39227466183E+02  0.00000000000E+00 0. -1.
<mgrwt>
<rscale>  0 0.28751145E+02</rscale>
<asrwt>0</asrwt>
<pdfrwt beam="2">  1        2 0.12546017E-01 0.28751145E+02</pdfrwt>
<pdfrwt beam="1">  1       -2 0.38986811E-03 0.28751145E+02</pdfrwt>
<totfact> 0.22047535E+06</totfact>
</mgrwt>
</event>
<event>
 4    1  0.4118611E+000  0.3706660E+02  0.7546771E-02  0.1530979E+00
         -4   -1    0    0    0  501 -0.00000000000E+00  0.00000000000E+00  0.10308958264E+03  0.10308958264E+03  0.00000000000E+00 0. -1.
          4   -1    0    0  501    0  0.00000000000E+00 -0.00000000000E+00 -0.33318902804E+01  0.33318902804E+01  0.00000000000E+00 0.  1.
        -11    1    1    2    0    0  0.17003787545E+02  0.68094237353E+01  0.41765222110E+02  0.45605162212E+02  0.00000000000E+00 0.  1.
         11    1    1    2    0    0 -0.17003787545E+02 -0.68094237353E+01  0.57992470248E+02  0.60816310706E+02  0.00000000000E+00 0. -1.
<mgrwt>
<rscale>  0 0.37066598E+02</rscale>
<asrwt>0</asrwt>
<pdfrwt beam="2">  1        4 0.51259858E-03 0.37066598E+02</pdfrwt>
<pdfrwt beam="1">  1       -4 0.15859933E-01 0.37066598E+02</pdfrwt>
<totfact> 0.25226742E+05</totfact>
</mgrwt>
</event>
<event>
 4    1  0.4118611E+000  0.2419664E+02  0.7546771E-02  0.1672816E+00
         -2   -1    0    0    0  501 -0.00000000000E+00  0.00000000000E+00  0.46137981023E+02  0.46137981023E+02  0.00000000000E+00 0.  1.
          2   -1    0    0  501    0  0.00000000000E+00 -0.00000000000E+00 -0.31724262985E+01  0.31724262985E+01  0.00000000000E+00 0. -1.
        -11    1    1    2    0    0  0.77238503839E+01 -0.86082509883E+01  0.28719340728E+02  0.30960626312E+02  0.00000000000E+00 0.  1.
         11    1    1    2    0    0 -0.77238503839E+01  0.86082509883E+01  0.14246213997E+02  0.18349781009E+02  0.00000000000E+00 0. -1.
<mgrwt>
<rscale>  0 0.24196640E+02</rscale>
<asrwt>0</asrwt>
<pdfrwt beam="2">  1        2 0.48806562E-03 0.24196640E+02</pdfrwt>
<pdfrwt beam="1">  1       -2 0.70981504E-02 0.24196640E+02</pdfrwt>
<totfact> 0.22472510E+06</totfact>
</mgrwt>
</event>
<event>
 4    1  0.4118611E+000  0.2122206E+02  0.7546771E-02  0.1722064E+00
          2   -1    0    0  501    0  0.00000000000E+00  0.00000000000E+00  0.13749333946E+01  0.13749333946E+01  0.00000000000E+00 0. -1.
         -2   -1    0    0    0  501 -0.00000000000E+00 -0.00000000000E+00 -0.81890500524E+02  0.81890500524E+02  0.00000000000E+00 0.  1.
        -13    1    1    2    0    0  0.84872974878E+01  0.61961244883E+01 -0.46034584779E+02  0.47218737521E+02  0.00000000000E+00 0.  1.
         13    1    1    2    0    0 -0.84872974878E+01 -0.61961244883E+01 -0.34480982351E+02  0.36046696398E+02  0.00000000000E+00 0. -1.
<mgrwt>
<rscale>  0 0.21222062E+02</rscale>
<asrwt>0</asrwt>
<pdfrwt beam="1">  1        2 0.21152824E-03 0.21222062E+02</pdfrwt>
<pdfrwt beam="2">  1       -2 0.12598537E-01 0.21222062E+02</pdfrwt>
<totfact> 0.27310447E+06</totfact>
</mgrwt>
</event>
<event>
 4    1  0.4118611E+000  0.3430310E+02  0.7546771E-02  0.1554878E+00
          2   -1    0    0  501    0  0.00000000000E+00  0.00000000000E+00  0.37519933804E+01  0.37519933804E+01  0.00000000000E+00 0.  1.
         -2   -1    0    0    0  501 -0.00000000000E+00 -0.00000000000E+00 -0.78405148261E+02  0.78405148261E+02  0.00000000000E+00 0. -1.
        -13    1    1    2    0    0  0.60251164355E+01 -0.14055268533E+02 -0.55928312474E+02  0.57981279201E+02  0.00000000000E+00 0. -1.
         13    1    1    2    0    0 -0.60251164355E+01  0.14055268533E+02 -0.18724842406E+02  0.24175862440E+02  0.00000000000E+00 0.  1.
<mgrwt>
<rscale>  0 0.34303096E+02</rscale>
<asrwt>0</asrwt>
<pdfrwt beam="1">  1        2 0.57722975E-03 0.34303096E+02</pdfrwt>
<pdfrwt beam="2">  1       -2 0.12062330E-01 0.34303096E+02</pdfrwt>
<totfact> 0.92067942E+05</totfact>
</mgrwt>
</event>
<event>
 4    1  0.4118611E+000  0.2247112E+02  0.7546771E-02  0.1700229E+00
         -1   -1    0    0    0  501 -0.00000000000E+00  0.00000000000E+00  0.71478526819E+01  0.71478526819E+01  0.00000000000E+00 0. -1.
          1   -1    0    0  501    0  0.00000000000E+00 -0.00000000000E+00 -0.17660936729E+02  0.17660936729E+02  0.00000000000E+00 0.  1.
        -13    1    1    2    0    0 -0.80494147696E+01  0.70328899062E+01 -0.14347547602E+01  0.10784856966E+02  0.00000000000E+00 0.  1.
         13    1    1    2    0    0  0.80494147696E+01 -0.70328899062E+01 -0.90783292869E+01  0.14023932444E+02  0.00000000000E+00 0. -1.
<mgrwt>
<rscale>  0 0.22471117E+02</rscale>
<asrwt>0</asrwt>
<pdfrwt beam="2">  1        1 0.27170672E-02 0.22471117E+02</pdfrwt>
<pdfrwt beam="1">  1       -1 0.10996697E-02 0.22471117E+02</pdfrwt>
<totfact> 0.30313004E+06</totfact>
</mgrwt>
</event>
<event>
 4    1  0.4118611E+000  0.2076146E+02  0.7546771E-02  0.1730596E+00
         -2   -1    0    0    0  501 -0.00000000000E+00  0.00000000000E+00  0.15319333192E+01  0.15319333192E+01  0.00000000000E+00 0. -1.
          2   -1    0    0  501    0  0.00000000000E+00 -0.00000000000E+00 -0.70342175468E+02  0.70342175468E+02  0.00000000000E+00 0.  1.
        -11    1    1    2    0    0  0.99300981244E+01  0.25032850112E+01 -0.28523721328E+02  0.30306368357E+02  0.00000000000E+00 0.  1.
         11    1    1    2    0    0 -0.99300981244E+01 -0.25032850112E+01 -0.40286520820E+02  0.41567740429E+02  0.00000000000E+00 0. -1.
<mgrwt>
<rscale>  0 0.20761457E+02</rscale>
<asrwt>0</asrwt>
<pdfrwt beam="2">  1        2 0.10821874E-01 0.20761457E+02</pdfrwt>
<pdfrwt beam="1">  1       -2 0.23568204E-03 0.20761457E+02</pdfrwt>
<totfact> 0.45149134E+06</totfact>
</mgrwt>
</event>
<event>
 4    1  0.4118611E+000  0.3231197E+02  0.7546771E-02  0.1573854E+00
          2   -1    0    0  501    0  0.00000000000E+00  0.00000000000E+00  0.48214296196E+02  0.48214296196E+02  0.00000000000E+00 0. -1.
         -2   -1    0    0    0  501 -0.00000000000E+00 -0.00000000000E+00 -0.54136607308E+01  0.54136607308E+01  0.00000000000E+00 0.  1.
        -13    1    1    2    0    0  0.86733873252E+01  0.90782999584E+01  0.38274808563E+02  0.40281560898E+02  0.00000000000E+00 0. -1.
         13    1    1    2    0    0 -0.86733873252E+01 -0.90782999584E+01  0.45258269030E+01  0.13346396030E+02  0.00000000000E+00 0.  1.
<mgrwt>
<rscale>  0 0.32311969E+02</rscale>
<asrwt>0</asrwt>
<pdfrwt beam="1">  1        2 0.74175837E-02 0.32311969E+02</pdfrwt>
<pdfrwt beam="2">  1       -2 0.83287092E-03 0.32311969E+02</pdfrwt>
<totfact> 0.15127047E+06</totfact>
</mgrwt>
</event>
<event>
 4    1  0.4118611E+000  0.3379753E+02  0.7546771E-02  0.1559546E+00
         -1   -1    0    0    0  501 -0.00000000000E+00  0.00000000000E+00  0.34910267509E+02  0.34910267509E+02  0.00000000000E+00 0. -1.
          1   -1    0    0  501    0  0.00000000000E+00 -0.00000000000E+00 -0.81800627237E+01  0.81800627237E+01  0.00000000000E+00 0.  1.
        -11    1    1    2    0    0  0.56356074867E+01 -0.15612477393E+02  0.17408671741E+02  0.24053510636E+02  0.00000000000E+00 0.  1.
         11    1    1    2    0    0 -0.56356074867E+01  0.15612477393E+02  0.93215330441E+01  0.19036819597E+02  0.00000000000E+00 0. -1.
<mgrwt>
<rscale>  0 0.33797525E+02</rscale>
<asrwt>0</asrwt>
<pdfrwt beam="2">  1        1 0.12584712E-02 0.33797525E+02</pdfrwt>
<pdfrwt beam="1">  1       -1 0.53708103E-02 0.33797525E+02</pdfrwt>
<totfact> 0.10874683E+06</totfact>
</mgrwt>
</event>
<event>
 4    1  0.4118611E+000  0.8005053E+02  0.7546771E-02  0.1328908E+00
          2   -1    0    0  501    0  0.00000000000E+00  0.00000000000E+00  0.19371115415E+03  0.19371115415E+03  0.00000000000E+00 0.  1.
         -2   -1    0    0    0  501 -0.00000000000E+00 -0.00000000000E+00 -0.82701578169E+01  0.82701578169E+01  0.00000000000E+00 0. -1.
        -11    1    1    2    0    0  0.29537194755E+02 -0.15079095588E+02  0.14926416365E+03  0.15290394223E+03  0.00000000000E+00 0.  1.
         11    1    1    2    0    0 -0.29537194755E+02  0.15079095588E+02  0.36176832680E+02  0.49077369739E+02  0.00000000000E+00 0. -1.
<mgrwt>
<rscale>  0 0.80050529E+02</rscale>
<asrwt>0</asrwt>
<pdfrwt beam="1">  1        2 0.29801713E-01 0.80050529E+02</pdfrwt>
<pdfrwt beam="2">  1       -2 0.12723321E-02 0.80050529E+02</pdfrwt>
<totfact> 0.21650648E+05</totfact>
</mgrwt>
</event>
<event>
 4    1  0.4118611E+000  0.2403928E+02  0.7546771E-02  0.1675197E+00
          4   -1    0    0  501    0  0.00000000000E+00  0.00000000000E+00  0.13072906896E+02  0.13072906896E+02  0.00000000000E+00 0.  1.
         -4   -1    0    0    0  501 -0.00000000000E+00 -0.00000000000E+00 -0.11051236505E+02  0.11051236505E+02  0.00000000000E+00 0. -1.
        -13    1    1    2    0    0 -0.92334644960E+01  0.50567474949E+01 -0.48100045587E+01  0.11574269121E+02  0.00000000000E+00 0. -1.
         13    1    1    2    0    0  0.92334644960E+01 -0.50567474949E+01  0.68316749497E+01  0.12549874280E+02  0.00000000000E+00 0.  1.
<mgrwt>
<rscale>  0 0.24039283E+02</rscale>
<asrwt>0</asrwt>
<pdfrwt beam="1">  1        4 0.20112164E-02 0.24039283E+02</pdfrwt>
<pdfrwt beam="2">  1       -4 0.17001902E-02 0.24039283E+02</pdfrwt>
<totfact> 0.86867908E+05</totfact>
</mgrwt>
</event>
<event>
 4    1  0.4118611E+000  0.3392650E+02  0.7546771E-02  0.1558345E+00
         -2   -1    0    0    0  501 -0.00000000000E+00  0.00000000000E+00  0.11414985997E+02  0.11414985997E+02  0.00000000000E+00 0. -1.
          2   -1    0    0  501    0  0.00000000000E+00 -0.00000000000E+00 -0.25208257116E+02  0.25208257116E+02  0.00000000000E+00 0.  1.
        -11    1    1    2    0    0  0.14564601213E+02 -0.26974443660E+00  0.24863130734E+01  0.14777757721E+02  0.00000000000E+00 0. -1.
         11    1    1    2    0    0 -0.14564601213E+02  0.26974443660E+00 -0.16279584192E+02  0.21845485392E+02  0.00000000000E+00 0.  1.
<mgrwt>
<rscale>  0 0.33926503E+02</rscale>
<asrwt>0</asrwt>
<pdfrwt beam="2">  1        2 0.38781933E-02 0.33926503E+02</pdfrwt>
<pdfrwt beam="1">  1       -2 0.17561517E-02 0.33926503E+02</pdfrwt>
<totfact> 0.12265449E+06</totfact>
</mgrwt>
</event>
<event>
 4    1  0.4118611E+000  0.4444155E+02  0.7546771E-02  0.1477858E+00
          2   -1    0    0  501    0  0.00000000000E+00  0.00000000000E+00  0.63390557001E+02  0.63390557001E+02  0.00000000000E+00 0. -1.
         -2   -1    0    0    0  501 -0.00000000000E+00 -0.00000000000E+00 -0.77892184440E+01  0.77892184440E+01  0.00000000000E+00 0.  1.
        -11    1    1    2    0    0 -0.11742692994E+02 -0.50074567232E+01  0.56931204116E+02  0.58344900923E+02  0.00000000000E+00 0. -1.
         11    1    1    2    0    0  0.11742692994E+02  0.50074567232E+01 -0.13298655590E+01  0.12834874522E+02  0.00000000000E+00 0.  1.
<mgrwt>
<rscale>  0 0.44441552E+02</rscale>
<asrwt>0</asrwt>
<pdfrwt beam="1">  1        2 0.97523931E-02 0.44441552E+02</pdfrwt>
<pdfrwt beam="2">  1       -2 0.11983413E-02 0.44441552E+02</pdfrwt>
<totfact> 0.72532840E+05</totfact>
</mgrwt>
</event>
<event>
 4    1  0.4118611E+000  0.8004848E+02  0.7546771E-02  0.1328914E+00
         -2   -1    0    0    0  501 -0.00000000000E+00  0.00000000000E+00  0.17612858103E+02  0.17612858103E+02  0.00000000000E+00 0.  1.
          2   -1    0    0  501    0  0.00000000000E+00 -0.00000000000E+00 -0.90952850863E+02  0.90952850863E+02  0.00000000000E+00 0. -1.
        -11    1    1    2    0    0 -0.37746541302E+02 -0.10921645472E+02 -0.26353943402E+02  0.47313994261E+02  0.00000000000E+00 0.  1.
         11    1    1    2    0    0  0.37746541302E+02  0.10921645472E+02 -0.46986049358E+02  0.61251714705E+02  0.00000000000E+00 0. -1.
<mgrwt>
<rscale>  0 0.80048477E+02</rscale>
<asrwt>0</asrwt>
<pdfrwt beam="2">  1        2 0.13992746E-01 0.80048477E+02</pdfrwt>
<pdfrwt beam="1">  1       -2 0.27096704E-02 0.80048477E+02</pdfrwt>
<totfact> 0.17022271E+05</totfact>
</mgrwt>
</event>
<event>
 4    1  0.4118611E+000  0.2166489E+02  0.7546771E-02  0.1714113E+00
         -4   -1    0    0    0  501 -0.00000000000E+00  0.00000000000E+00  0.18783531143E+02  0.18783531143E+02  0.00000000000E+00 0. -1.
          4   -1    0    0  501    0  0.00000000000E+00 -0.00000000000E+00 -0.62470589008E+01  0.62470589008E+01  0.00000000000E+00 0.  1.
        -11    1    1    2    0    0 -0.26248346820E+01  0.96532696926E+01  0.11069065057E+02  0.14919771249E+02  0.00000000000E+00 0. -1.
         11    1    1    2    0    0  0.26248346820E+01 -0.96532696926E+01  0.14674071849E+01  0.10110818795E+02  0.00000000000E+00 0.  1.
<mgrwt>
<rscale>  0 0.21664886E+02</rscale>
<asrwt>0</asrwt>
<pdfrwt beam="2">  1        4 0.96108599E-03 0.21664886E+02</pdfrwt>
<pdfrwt beam="1">  1       -4 0.28897740E-02 0.21664886E+02</pdfrwt>
<totfact> 0.10785158E+06</totfact>
</mgrwt>
</event>
<event>
 4    1  0.4118611E+000  0.2358831E+02  0.7546771E-02  0.1682147E+00
          1   -1    0    0  501    0  0.00000000000E+00  0.00000000000E+00  0.10367587186E+02  0.10367587186E+02  0.00000000000E+00 0. -1.
         -1   -1    0    0    0  501 -0.00000000000E+00 -0.00000000000E+00 -0.13417020836E+02  0.13417020836E+02  0.00000000000E+00 0.  1.
        -13    1    1    2    0    0 -0.88546630767E+01 -0.70544953553E+01 -0.48584623001E+01  0.12319724788E+02  0.00000000000E+00 0. -1.
         13    1    1    2    0    0  0.88546630767E+01  0.70544953553E+01  0.18090286501E+01  0.11464883234E+02  0.00000000000E+00 0.  1.
<mgrwt>
<rscale>  0 0.23588313E+02</rscale>
<asrwt>0</asrwt>
<pdfrwt beam="1">  1        1 0.15950134E-02 0.23588313E+02</pdfrwt>
<pdfrwt beam="2">  1       -1 0.20641571E-02 0.23588313E+02</pdfrwt>
<totfact> 0.26451081E+06</totfact>
</mgrwt>
</event>
<event>
 4    1  0.4118611E+000  0.2875954E+02  0.7546771E-02  0.1612219E+00
         -4   -1    0    0    0  501 -0.00000000000E+00  0.00000000000E+00  0.56002417811E+01  0.56002417811E+01  0.00000000000E+00 0. -1.
          4   -1    0    0  501    0  0.00000000000E+00 -0.00000000000E+00 -0.36923014398E+02  0.36923014398E+02  0.00000000000E+00 0.  1.
        -13    1    1    2    0    0 -0.44107073712E+01 -0.12835155240E+02 -0.86350612167E+01  0.16086013545E+02  0.00000000000E+00 0. -1.
         13    1    1    2    0    0  0.44107073712E+01  0.12835155240E+02 -0.22687711400E+02  0.26437242635E+02  0.00000000000E+00 0.  1.
<mgrwt>
<rscale>  0 0.28759542E+02</rscale>
<asrwt>0</asrwt>
<pdfrwt beam="2">  1        4 0.56804638E-02 0.28759542E+02</pdfrwt>
<pdfrwt beam="1">  1       -4 0.86157565E-03 0.28759542E+02</pdfrwt>
<totfact> 0.54607671E+05</totfact>
</mgrwt>
</event>
<event>
 4    1  0.4118611E+000  0.2182097E+02  0.7546771E-02  0.1711367E+00
          2   -1    0    0  501    0  0.00000000000E+00  0.00000000000E+00  0.12819991985E+02  0.12819991985E+02  0.00000000000E+00 0.  1.
         -2   -1    0    0    0  501 -0.00000000000E+00 -0.00000000000E+00 -0.92853979829E+01  0.92853979829E+01  0.00000000000E+00 0. -1.
        -11    1    1    2    0    0 -0.27450963044E+01 -0.97886120327E+01  0.57795064084E+01  0.11694236767E+02  0.00000000000E+00 0.  1.
         11    1    1    2    0    0  0.27450963044E+01  0.97886120327E+01 -0.22449124065E+01  0.10411153200E+02  0.00000000000E+00 0. -1.
<mgrwt>
<rscale>  0 0.21820974E+02</rscale>
<asrwt>0</asrwt>
<pdfrwt beam="1">  1        2 0.19723065E-02 0.21820974E+02</pdfrwt>
<pdfrwt beam="2">  1       -2 0.14285228E-02 0.21820974E+02</pdfrwt>
<totfact> 0.32914242E+06</totfact>
</mgrwt>
</event>
<event>
 4    1  0.4118611E+000  0.2885446E+02  0.7546771E-02  0.1611107E+00
          2   -1    0    0  501    0  0.00000000000E+00  0.00000000000E+00  0.49337707927E+01  0.49337707927E+01  0.00000000000E+00 0. -1.
         -2   -1    0    0    0  501 -0.00000000000E+00 -0.00000000000E+00 -0.42187807295E+02  0.42187807295E+02  0.00000000000E+00 0.  1.
        -11    1    1    2    0    0  0.77796945030E+01 -0.83490374909E+01 -0.33042100408E+02  0.34957266383E+02  0.00000000000E+00 0.  1.
         11    1    1    2    0    0 -0.77796945030E+01  0.83490374909E+01 -0.42119360937E+01  0.12164311704E+02  0.00000000000E+00 0. -1.
<mgrwt>
<rscale>  0 0.28854460E+02</rscale>
<asrwt>0</asrwt>
<pdfrwt beam="1">  1        2 0.75904167E-03 0.28854460E+02</pdfrwt>
<pdfrwt beam="2">  1       -2 0.64904318E-02 0.28854460E+02</pdfrwt>
<totfact> 0.15250447E+06</totfact>
</mgrwt>
</event>
<event>
 4    1  0.4118611E+000  0.7247026E+02  0.7546771E-02  0.1351889E+00
          3   -1    0    0  501    0  0.00000000000E+00  0.00000000000E+00  0.15616614149E+03  0.15616614149E+03  0.00000000000E+00 0. -1.
         -3   -1    0    0    0  501 -0.00000000000E+00 -0.00000000000E+00 -0.84076139043E+01  0.84076139043E+01  0.00000000000E+00 0.  1.
        -13    1    1    2    0    0  0.29623961526E+01 -0.29435933097E+02  0.26366943636E+02  0.39629101238E+02  0.00000000000E+00 0.  1.
         13    1    1    2    0    0 -0.29623961526E+01  0.29435933097E+02  0.12139158395E+03  0.12494465416E+03  0.00000000000E+00 0. -1.
<mgrwt>
<rscale>  0 0.72470259E+02</rscale>
<asrwt>0</asrwt>
<pdfrwt beam="1">  1        3 0.24025558E-01 0.72470259E+02</pdfrwt>
<pdfrwt beam="2">  1       -3 0.12934792E-02 0.72470259E+02</pdfrwt>
<totfact> 0.56130372E+04</totfact>
</mgrwt>
</event>
<event>
 4    1  0.4118611E+000  0.2750760E+02  0.7546771E-02  0.1627394E+00
         -2   -1    0    0    0  501 -0.00000000000E+00  0.00000000000E+00  0.61549434064E+01  0.61549434064E+01  0.00000000000E+00 0. -1.
          2   -1    0    0  501    0  0.00000000000E+00 -0.00000000000E+00 -0.30734150253E+02  0.30734150253E+02  0.00000000000E+00 0.  1.
        -13    1    1    2    0    0 -0.64084193361E+01 -0.87797262167E+01 -0.98847000411E+00  0.10914600486E+02  0.00000000000E+00 0. -1.
         13    1    1    2    0    0  0.64084193361E+01  0.87797262167E+01 -0.23590736842E+02  0.25974493173E+02  0.00000000000E+00 0.  1.
<mgrwt>
<rscale>  0 0.27507596E+02</rscale>
<asrwt>0</asrwt>
<pdfrwt beam="2">  1        2 0.47283308E-02 0.27507596E+02</pdfrwt>
<pdfrwt beam="1">  1       -2 0.94691438E-03 0.27507596E+02</pdfrwt>
<totfact> 0.20852210E+06</totfact>
</mgrwt>
</event>
<event>
 4    1  0.4118611E+000  0.4877141E+02  0.7546771E-02  0.1452083E+00
          2   -1    0    0  501    0  0.00000000000E+00  0.00000000000E+00  0.28045781480E+03  0.28045781480E+03  0.00000000000E+00 0.  1.
         -2   -1    0    0    0  501 -0.00000000000E+00 -0.00000000000E+00 -0.21203285315E+01  0.21203285315E+01  0.00000000000E+00 0. -1.
        -11    1    1    2    0    0  0.23969754661E+02 -0.43801867499E+01  0.13358869819E+03  0.13579276659E+03  0.00000000000E+00 0.  1.
         11    1    1    2    0    0 -0.23969754661E+02  0.43801867499E+01  0.14474878808E+03  0.14678537674E+03  0.00000000000E+00 0. -1.
<mgrwt>
<rscale>  0 0.48771414E+02</rscale>
<asrwt>0</asrwt>
<pdfrwt beam="1">  1        2 0.43147327E-01 0.48771414E+02</pdfrwt>
<pdfrwt beam="2">  1       -2 0.32620461E-03 0.48771414E+02</pdfrwt>
<totfact> 0.87904402E+05</totfact>
</mgrwt>
</event>
<event>
 4    1  0.4118611E+000  0.6841589E+02  0.7546771E-02  0.1365564E+00
         -2   -1    0    0    0  501 -0.00000000000E+00  0.00000000000E+00  0.24344964963E+02  0.24344964963E+02  0.00000000000E+00 0. -1.
          2   -1    0    0  501    0  0.00000000000E+00 -0.00000000000E+00 -0.48066757014E+02  0.48066757014E+02  0.00000000000E+00 0.  1.
        -13    1    1    2    0    0  0.17215058875E+02 -0.99023166077E+01 -0.41340266916E+02  0.45863185617E+02  0.00000000000E+00 0.  1.
         13    1    1    2    0    0 -0.17215058875E+02  0.99023166077E+01  0.17618474865E+02  0.26548536360E+02  0.00000000000E+00 0. -1.
<mgrwt>
<rscale>  0 0.68415890E+02</rscale>
<asrwt>0</asrwt>
<pdfrwt beam="2">  1        2 0.73948857E-02 0.68415890E+02</pdfrwt>
<pdfrwt beam="1">  1       -2 0.37453792E-02 0.68415890E+02</pdfrwt>
<totfact> 0.22238623E+05</totfact>
</mgrwt>
</event>
<event>
 4    1  0.4118611E+000  0.3179817E+02  0.7546771E-02  0.1579022E+00
         -2   -1    0    0    0  501 -0.00000000000E+00  0.00000000000E+00  0.15556479341E+02  0.15556479341E+02  0.00000000000E+00 0.  1.
          2   -1    0    0  501    0  0.00000000000E+00 -0.00000000000E+00 -0.16249230884E+02  0.16249230884E+02  0.00000000000E+00 0. -1.
        -13    1    1    2    0    0  0.13133145701E+02  0.88923885454E+01  0.76146751073E+00  0.15878725478E+02  0.00000000000E+00 0.  1.
         13    1    1    2    0    0 -0.13133145701E+02 -0.88923885454E+01 -0.14542190534E+01  0.15926984746E+02  0.00000000000E+00 0. -1.
<mgrwt>
<rscale>  0 0.31798165E+02</rscale>
<asrwt>0</asrwt>
<pdfrwt beam="2">  1        2 0.24998817E-02 0.31798165E+02</pdfrwt>
<pdfrwt beam="1">  1       -2 0.23933045E-02 0.31798165E+02</pdfrwt>
<totfact> 0.13683385E+06</totfact>
</mgrwt>
</event>
<event>
 4    1  0.4118611E+000  0.2768693E+02  0.7546771E-02  0.1625160E+00
         -2   -1    0    0    0  501 -0.00000000000E+00  0.00000000000E+00  0.94629972522E+01  0.94629972522E+01  0.00000000000E+00 0.  1.
          2   -1    0    0  501    0  0.00000000000E+00 -0.00000000000E+00 -0.20251665732E+02  0.20251665732E+02  0.00000000000E+00 0. -1.
        -13    1    1    2    0    0  0.10858349887E+02  0.32173219403E+01 -0.13938990280E+02  0.17959687435E+02  0.00000000000E+00 0. -1.
         13    1    1    2    0    0 -0.10858349887E+02 -0.32173219403E+01  0.31503218000E+01  0.11754975550E+02  0.00000000000E+00 0.  1.
<mgrwt>
<rscale>  0 0.27686925E+02</rscale>
<asrwt>0</asrwt>
<pdfrwt beam="2">  1        2 0.31156408E-02 0.27686925E+02</pdfrwt>
<pdfrwt beam="1">  1       -2 0.14558458E-02 0.27686925E+02</pdfrwt>
<totfact> 0.19597591E+06</totfact>
</mgrwt>
</event>
<event>
 4    1  0.4118611E+000  0.2167258E+02  0.7546771E-02  0.1713977E+00
         -4   -1    0    0    0  501 -0.00000000000E+00  0.00000000000E+00  0.54614255750E+02  0.54614255750E+02  0.00000000000E+00 0.  1.
          4   -1    0    0  501    0  0.00000000000E+00 -0.00000000000E+00 -0.21500827000E+01  0.21500827000E+01  0.00000000000E+00 0. -1.
        -13    1    1    2    0    0 -0.10483685704E+02 -0.25790861204E+01  0.28669210517E+02  0.30634669621E+02  0.00000000000E+00 0. -1.
         13    1    1    2    0    0  0.10483685704E+02  0.25790861204E+01  0.23794962534E+02  0.26129668829E+02  0.00000000000E+00 0.  1.
<mgrwt>
<rscale>  0 0.21672579E+02</rscale>
<asrwt>0</asrwt>
<pdfrwt beam="2">  1        4 0.33078199E-03 0.21672579E+02</pdfrwt>
<pdfrwt beam="1">  1       -4 0.84021922E-02 0.21672579E+02</pdfrwt>
<totfact> 0.95421985E+05</totfact>
</mgrwt>
</event>
<event>
 4    1  0.4118611E+000  0.2239378E+02  0.7546771E-02  0.1701529E+00
         -2   -1    0    0    0  501 -0.00000000000E+00  0.00000000000E+00  0.32534587350E+02  0.32534587350E+02  0.00000000000E+00 0. -1.
          2   -1    0    0  501    0  0.00000000000E+00 -0.00000000000E+00 -0.38534488435E+01  0.38534488435E+01  0.00000000000E+00 0.  1.
        -11    1    1    2    0    0 -0.30259450197E+01 -0.10777984847E+02  0.14700507172E+02  0.18477722039E+02  0.00000000000E+00 0.  1.
         11    1    1    2    0    0  0.30259450197E+01  0.10777984847E+02  0.13980631334E+02  0.17910314155E+02  0.00000000000E+00 0. -1.
<mgrwt>
<rscale>  0 0.22393782E+02</rscale>
<asrwt>0</asrwt>
<pdfrwt beam="2">  1        2 0.59283830E-03 0.22393782E+02</pdfrwt>
<pdfrwt beam="1">  1       -2 0.50053210E-02 0.22393782E+02</pdfrwt>
<totfact> 0.27880594E+06</totfact>
</mgrwt>
</event>
<event>
 4    1  0.4118611E+000  0.2801501E+02  0.7546771E-02  0.1621127E+00
          2   -1    0    0  501    0  0.00000000000E+00  0.00000000000E+00  0.49497702146E+02  0.49497702146E+02  0.00000000000E+00 0. -1.
         -2   -1    0    0    0  501 -0.00000000000E+00 -0.00000000000E+00 -0.39640266306E+01  0.39640266306E+01  0.00000000000E+00 0.  1.
        -13    1    1    2    0    0 -0.25820457992E+01 -0.10216568897E+02  0.51558912439E+01  0.11731515463E+02  0.00000000000E+00 0.  1.
         13    1    1    2    0    0  0.25820457992E+01  0.10216568897E+02  0.40377784272E+02  0.41730213314E+02  0.00000000000E+00 0. -1.
<mgrwt>
<rscale>  0 0.28015011E+02</rscale>
<asrwt>0</asrwt>
<pdfrwt beam="1">  1        2 0.76150306E-02 0.28015011E+02</pdfrwt>
<pdfrwt beam="2">  1       -2 0.60985029E-03 0.28015011E+02</pdfrwt>
<totfact> 0.21349878E+06</totfact>
</mgrwt>
</event>
<event>
 4    1  0.4118611E+000  0.2603632E+02  0.7546771E-02  0.1646548E+00
         -2   -1    0    0    0  501 -0.00000000000E+00  0.00000000000E+00  0.58063173084E+01  0.58063173084E+01  0.00000000000E+00 0. -1.
          2   -1    0    0  501    0  0.00000000000E+00 -0.00000000000E+00 -0.29187609138E+02  0.29187609138E+02  0.00000000000E+00 0.  1.
        -11    1    1    2    0    0 -0.39240973877E+01 -0.11746340446E+02 -0.62981255635E+01  0.13893935360E+02  0.00000000000E+00 0. -1.
         11    1    1    2    0    0  0.39240973877E+01  0.11746340446E+02 -0.17083166266E+02  0.21099991086E+02  0.00000000000E+00 0.  1.
<mgrwt>
<rscale>  0 0.26036322E+02</rscale>
<asrwt>0</asrwt>
<pdfrwt beam="2">  1        2 0.44904014E-02 0.26036322E+02</pdfrwt>
<pdfrwt beam="1">  1       -2 0.89327959E-03 0.26036322E+02</pdfrwt>
<totfact> 0.23593098E+06</totfact>
</mgrwt>
</event>
<event>
 4    1  0.4118611E+000  0.2769878E+02  0.7546771E-02  0.1625014E+00
          2   -1    0    0  501    0  0.00000000000E+00  0.00000000000E+00  0.76316017995E+02  0.76316017995E+02  0.00000000000E+00 0.  1.
         -2   -1    0    0    0  501 -0.00000000000E+00 -0.00000000000E+00 -0.25133077069E+01  0.25133077069E+01  0.00000000000E+00 0. -1.
        -11    1    1    2    0    0  0.12806635829E+02 -0.38591926708E+01  0.47123958029E+02  0.48985413233E+02  0.00000000000E+00 0.  1.
         11    1    1    2    0    0 -0.12806635829E+02  0.38591926708E+01  0.26678752260E+02  0.29843912469E+02  0.00000000000E+00 0. -1.
<mgrwt>
<rscale>  0 0.27698782E+02</rscale>
<asrwt>0</asrwt>
<pdfrwt beam="1">  1        2 0.11740924E-01 0.27698782E+02</pdfrwt>
<pdfrwt beam="2">  1       -2 0.38666278E-03 0.27698782E+02</pdfrwt>
<totfact> 0.23728306E+06</totfact>
</mgrwt>
</event>
<event>
 4    1  0.4118611E+000  0.2431965E+02  0.7546771E-02  0.1670971E+00
          4   -1    0    0  501    0  0.00000000000E+00  0.00000000000E+00  0.26270420315E+02  0.26270420315E+02  0.00000000000E+00 0.  1.
         -4   -1    0    0    0  501 -0.00000000000E+00 -0.00000000000E+00 -0.56284350088E+01  0.56284350088E+01  0.00000000000E+00 0. -1.
        -11    1    1    2    0    0 -0.52464993035E+00 -0.11716222428E+02  0.61081210029E+01  0.13223247245E+02  0.00000000000E+00 0. -1.
         11    1    1    2    0    0  0.52464993035E+00  0.11716222428E+02  0.14533864303E+02  0.18675608079E+02  0.00000000000E+00 0.  1.
<mgrwt>
<rscale>  0 0.24319651E+02</rscale>
<asrwt>0</asrwt>
<pdfrwt beam="1">  1        4 0.40416031E-02 0.24319651E+02</pdfrwt>
<pdfrwt beam="2">  1       -4 0.86591309E-03 0.24319651E+02</pdfrwt>
<totfact> 0.82075474E+05</totfact>
</mgrwt>
</event>
<event>
 4    1  0.4118611E+000  0.2180771E+02  0.7546771E-02  0.1711599E+00
         -2   -1    0    0    0  501 -0.00000000000E+00  0.00000000000E+00  0.27194659134E+01  0.27194659134E+01  0.00000000000E+00 0.  1.
          2   -1    0    0  501    0  0.00000000000E+00 -0.00000000000E+00 -0.43719637768E+02  0.43719637768E+02  0.00000000000E+00 0. -1.
        -11    1    1    2    0    0  0.85199580585E+01 -0.54374589505E+01 -0.11787823073E+02  0.15527666211E+02  0.00000000000E+00 0.  1.
         11    1    1    2    0    0 -0.85199580585E+01  0.54374589505E+01 -0.29212348782E+02  0.30911437471E+02  0.00000000000E+00 0. -1.
<mgrwt>
<rscale>  0 0.21807711E+02</rscale>
<asrwt>0</asrwt>
<pdfrwt beam="2">  1        2 0.67260981E-02 0.21807711E+02</pdfrwt>
<pdfrwt beam="1">  1       -2 0.41837937E-03 0.21807711E+02</pdfrwt>
<totfact> 0.37398015E+06</totfact>
</mgrwt>
</event>
<event>
 4    1  0.4118611E+000  0.3814508E+02  0.7546771E-02  0.1522323E+00
          2   -1    0    0  501    0  0.00000000000E+00  0.00000000000E+00  0.18694289844E+02  0.18694289844E+02  0.00000000000E+00 0. -1.
         -2   -1    0    0    0  501 -0.00000000000E+00 -0.00000000000E+00 -0.19458439412E+02  0.19458439412E+02  0.00000000000E+00 0.  1.
        -11    1    1    2    0    0 -0.44606432902E+01 -0.11345094651E+02  0.14288969425E+02  0.18782522685E+02  0.00000000000E+00 0. -1.
         11    1    1    2    0    0  0.44606432902E+01  0.11345094651E+02 -0.15053118992E+02  0.19370206571E+02  0.00000000000E+00 0.  1.
<mgrwt>
<rscale>  0 0.38145076E+02</rscale>
<asrwt>0</asrwt>
<pdfrwt beam="1">  1        2 0.28760446E-02 0.38145076E+02</pdfrwt>
<pdfrwt beam="2">  1       -2 0.29936060E-02 0.38145076E+02</pdfrwt>
<totfact> 0.88200394E+05</totfact>
</mgrwt>
</event>
<event>
 4    1  0.4118611E+000  0.2533397E+02  0.7546771E-02  0.1656251E+00
         -2   -1    0    0    0  501 -0.00000000000E+00  0.00000000000E+00  0.18561888491E+02  0.18561888491E+02  0.00000000000E+00 0. -1.
          2   -1    0    0  501    0  0.00000000000E+00 -0.00000000000E+00 -0.86441926913E+01  0.86441926913E+01  0.00000000000E+00 0.  1.
        -13    1    1    2    0    0  0.11713215213E+02 -0.36190785779E+00  0.10122736076E+02  0.15485482672E+02  0.00000000000E+00 0. -1.
         13    1    1    2    0    0 -0.11713215213E+02  0.36190785779E+00 -0.20504027638E+00  0.11720598510E+02  0.00000000000E+00 0.  1.
<mgrwt>
<rscale>  0 0.25333973E+02</rscale>
<asrwt>0</asrwt>
<pdfrwt beam="2">  1        2 0.13298758E-02 0.25333973E+02</pdfrwt>
<pdfrwt beam="1">  1       -2 0.28556752E-02 0.25333973E+02</pdfrwt>
<totfact> 0.22386766E+06</totfact>
</mgrwt>
</event>
<event>
 4    1  0.4118611E+000  0.3751939E+02  0.7546771E-02  0.1527302E+00
         -2   -1    0    0    0  501 -0.00000000000E+00  0.00000000000E+00  0.11279992018E+02  0.11279992018E+02  0.00000000000E+00 0. -1.
          2   -1    0    0  501    0  0.00000000000E+00 -0.00000000000E+00 -0.31199146417E+02  0.31199146417E+02  0.00000000000E+00 0.  1.
        -11    1    1    2    0    0  0.10723002771E+02  0.14923558976E+02 -0.14230614984E+02  0.23242327847E+02  0.00000000000E+00 0.  1.
         11    1    1    2    0    0 -0.10723002771E+02 -0.14923558976E+02 -0.56885394151E+01  0.19236810588E+02  0.00000000000E+00 0. -1.
<mgrwt>
<rscale>  0 0.37519388E+02</rscale>
<asrwt>0</asrwt>
<pdfrwt beam="2">  1        2 0.47998687E-02 0.37519388E+02</pdfrwt>
<pdfrwt beam="1">  1       -2 0.17353834E-02 0.37519388E+02</pdfrwt>
<totfact> 0.98289954E+05</totfact>
</mgrwt>
</event>
<event>
 4    1  0.4118611E+000  0.3199329E+02  0.7546771E-02  0.1577046E+00
          4   -1    0    0  501    0  0.00000000000E+00  0.00000000000E+00  0.30154398421E+01  0.30154398421E+01  0.00000000000E+00 0. -1.
         -4   -1    0    0    0  501 -0.00000000000E+00 -0.00000000000E+00 -0.84860809219E+02  0.84860809219E+02  0.00000000000E+00 0.  1.
        -11    1    1    2    0    0  0.42340498529E+01 -0.12680595380E+02 -0.16794136868E+02  0.21465500471E+02  0.00000000000E+00 0. -1.
         11    1    1    2    0    0 -0.42340498529E+01  0.12680595380E+02 -0.65051232509E+02  0.66410748590E+02  0.00000000000E+00 0.  1.
<mgrwt>
<rscale>  0 0.31993291E+02</rscale>
<asrwt>0</asrwt>
<pdfrwt beam="1">  1        4 0.46391380E-03 0.31993291E+02</pdfrwt>
<pdfrwt beam="2">  1       -4 0.13055510E-01 0.31993291E+02</pdfrwt>
<totfact> 0.37211721E+05</totfact>
</mgrwt>
</event>
<event>
 4    1  0.4118611E+000  0.3052915E+02  0.7546771E-02  0.1592312E+00
          2   -1    0    0  501    0  0.00000000000E+00  0.00000000000E+00  0.91888574657E+01  0.91888574657E+01  0.00000000000E+00 0. -1.
         -2   -1    0    0    0  501 -0.00000000000E+00 -0.00000000000E+00 -0.25357590573E+02  0.25357590573E+02  0.00000000000E+00 0.  1.
        -11    1    1    2    0    0  0.10417791305E+01 -0.13926084117E+02 -0.15058678494E+02  0.20537402966E+02  0.00000000000E+00 0. -1.
         11    1    1    2    0    0 -0.10417791305E+01  0.13926084117E+02 -0.11100546130E+01  0.14009045073E+02  0.00000000000E+00 0.  1.
<mgrwt>
<rscale>  0 0.30529152E+02</rscale>
<asrwt>0</asrwt>
<pdfrwt beam="1">  1        2 0.14136704E-02 0.30529152E+02</pdfrwt>
<pdfrwt beam="2">  1       -2 0.39011678E-02 0.30529152E+02</pdfrwt>
<totfact> 0.14244476E+06</totfact>
</mgrwt>
</event>
<event>
 4    1  0.4118611E+000  0.3139283E+02  0.7546771E-02  0.1583184E+00
          2   -1    0    0  501    0  0.00000000000E+00  0.00000000000E+00  0.70417703108E+01  0.70417703108E+01  0.00000000000E+00 0. -1.
         -2   -1    0    0    0  501 -0.00000000000E+00 -0.00000000000E+00 -0.34987988088E+02  0.34987988088E+02  0.00000000000E+00 0.  1.
        -13    1    1    2    0    0  0.42003504652E+01 -0.97632066780E+01  0.14910946639E+01  0.10732497937E+02  0.00000000000E+00 0. -1.
         13    1    1    2    0    0 -0.42003504652E+01  0.97632066780E+01 -0.29437312441E+02  0.31297260462E+02  0.00000000000E+00 0.  1.
<mgrwt>
<rscale>  0 0.31392826E+02</rscale>
<asrwt>0</asrwt>
<pdfrwt beam="1">  1        2 0.10833493E-02 0.31392826E+02</pdfrwt>
<pdfrwt beam="2">  1       -2 0.53827673E-02 0.31392826E+02</pdfrwt>
<totfact> 0.12868219E+06</totfact>
</mgrwt>
</event>
<event>
 4    1  0.4118611E+000  0.2792290E+02  0.7546771E-02  0.1622252E+00
          1   -1    0    0  501    0  0.00000000000E+00  0.00000000000E+00  0.33636271655E+01  0.33636271655E+01  0.00000000000E+00 0. -1.
         -1   -1    0    0    0  501 -0.00000000000E+00 -0.00000000000E+00 -0.57949966873E+02  0.57949966873E+02  0.00000000000E+00 0.  1.
        -13    1    1    2    0    0  0.11245362310E+02 -0.81698744515E+01 -0.30170496002E+02  0.33218426378E+02  0.00000000000E+00 0. -1.
         13    1    1    2    0    0 -0.11245362310E+02  0.81698744515E+01 -0.24415843706E+02  0.28095167661E+02  0.00000000000E+00 0.  1.
<mgrwt>
<rscale>  0 0.27922900E+02</rscale>
<asrwt>0</asrwt>
<pdfrwt beam="1">  1        1 0.51748110E-03 0.27922900E+02</pdfrwt>
<pdfrwt beam="2">  1       -1 0.89153796E-02 0.27922900E+02</pdfrwt>
<totfact> 0.16189615E+06</totfact>
</mgrwt>
</event>
<event>
 4    1  0.4118611E+000  0.3448070E+02  0.7546771E-02  0.1553261E+00
          2   -1    0    0  501    0  0.00000000000E+00  0.00000000000E+00  0.51830268052E+02  0.51830268052E+02  0.00000000000E+00 0. -1.
         -2   -1    0    0    0  501 -0.00000000000E+00 -0.00000000000E+00 -0.57346744033E+01  0.57346744033E+01  0.00000000000E+00 0.  1.
        -13    1    1    2    0    0 -0.12867063355E+02 -0.69534442809E+01  0.78089746976E+01  0.16579861054E+02  0.00000000000E+00 0.  1.
         13    1    1    2    0    0  0.12867063355E+02  0.69534442809E+01  0.38286618951E+02  0.40985081401E+02  0.00000000000E+00 0. -1.
<mgrwt>
<rscale>  0 0.34480703E+02</rscale>
<asrwt>0</asrwt>
<pdfrwt beam="1">  1        2 0.79738871E-02 0.34480703E+02</pdfrwt>
<pdfrwt beam="2">  1       -2 0.88225764E-03 0.34480703E+02</pdfrwt>
<totfact> 0.13083563E+06</totfact>
</mgrwt>
</event>
<event>
 4    1  0.4118611E+000  0.7363066E+02  0.7546771E-02  0.1348165E+00
         -1   -1    0    0    0  501 -0.00000000000E+00  0.00000000000E+00  0.12539415276E+02  0.12539415276E+02  0.00000000000E+00 0.  1.
          1   -1    0    0  501    0  0.00000000000E+00 -0.00000000000E+00 -0.10808865879E+03  0.10808865879E+03  0.00000000000E+00 0. -1.
        -13    1    1    2    0    0 -0.12150352295E+02  0.20759972008E+02 -0.93434360291E+02  0.96481019800E+02  0.00000000000E+00 0. -1.
         13    1    1    2    0    0  0.12150352295E+02 -0.20759972008E+02 -0.21148832219E+01  0.24147054266E+02  0.00000000000E+00 0.  1.
<mgrwt>
<rscale>  0 0.73630662E+02</rscale>
<asrwt>0</asrwt>
<pdfrwt beam="2">  1        1 0.16629024E-01 0.73630662E+02</pdfrwt>
<pdfrwt beam="1">  1       -1 0.19291409E-02 0.73630662E+02</pdfrwt>
<totfact> 0.18774937E+05</totfact>
</mgrwt>
</event>
<event>
 4    1  0.4118611E+000  0.2421556E+02  0.7546771E-02  0.1672532E+00
         -3   -1    0    0    0  501 -0.00000000000E+00  0.00000000000E+00  0.10175672897E+03  0.10175672897E+03  0.00000000000E+00 0. -1.
          3   -1    0    0  501    0  0.00000000000E+00 -0.00000000000E+00 -0.14406746408E+01  0.14406746408E+01  0.00000000000E+00 0.  1.
        -13    1    1    2    0    0  0.97847541352E+01  0.58432627476E+01  0.32735781528E+02  0.34662898397E+02  0.00000000000E+00 0. -1.
         13    1    1    2    0    0 -0.97847541352E+01 -0.58432627476E+01  0.67580272797E+02  0.68534505210E+02  0.00000000000E+00 0.  1.
<mgrwt>
<rscale>  0 0.24215560E+02</rscale>
<asrwt>0</asrwt>
<pdfrwt beam="2">  1        3 0.22164233E-03 0.24215560E+02</pdfrwt>
<pdfrwt beam="1">  1       -3 0.15654876E-01 0.24215560E+02</pdfrwt>
<totfact> 0.92566799E+05</totfact>
</mgrwt>
</event>
<event>
 4    1  0.4118611E+000  0.2831333E+02  0.7546771E-02  0.1617517E+00
         -2   -1    0    0    0  501 -0.00000000000E+00  0.00000000000E+00  0.38141890902E+02  0.38141890902E+02  0.00000000000E+00 0. -1.
          2   -1    0    0  501    0  0.00000000000E+00 -0.00000000000E+00 -0.52543597799E+01  0.52543597799E+01  0.00000000000E+00 0.  1.
        -13    1    1    2    0    0 -0.23293627831E+01 -0.12782979828E+02  0.25057117000E+02  0.28225690719E+02  0.00000000000E+00 0. -1.
         13    1    1    2    0    0  0.23293627831E+01  0.12782979828E+02  0.78304141229E+01  0.15170559963E+02  0.00000000000E+00 0.  1.
<mgrwt>
<rscale>  0 0.28313334E+02</rscale>
<asrwt>0</asrwt>
<pdfrwt beam="2">  1        2 0.80836307E-03 0.28313334E+02</pdfrwt>
<pdfrwt beam="1">  1       -2 0.58679830E-02 0.28313334E+02</pdfrwt>
<totfact> 0.16135394E+06</totfact>
</mgrwt>
</event>
<event>
 4    1  0.4118611E+000  0.3044549E+02  0.7546771E-02  0.1593216E+00
          1   -1    0    0  501    0  0.00000000000E+00  0.00000000000E+00  0.78435458273E+01  0.78435458273E+01  0.00000000000E+00 0. -1.
         -1   -1    0    0    0  501 -0.00000000000E+00 -0.00000000000E+00 -0.29544288818E+02  0.29544288818E+02  0.00000000000E+00 0.  1.
        -13    1    1    2    0    0 -0.10833334909E+02 -0.39334610894E+00 -0.23974516610E+02  0.26311467331E+02  0.00000000000E+00 0.  1.
         13    1    1    2    0    0  0.10833334909E+02  0.39334610894E+00  0.22737736190E+01  0.11076367315E+02  0.00000000000E+00 0. -1.
<mgrwt>
<rscale>  0 0.30445491E+02</rscale>
<asrwt>0</asrwt>
<pdfrwt beam="1">  1        1 0.12066994E-02 0.30445491E+02</pdfrwt>
<pdfrwt beam="2">  1       -1 0.45452751E-02 0.30445491E+02</pdfrwt>
<totfact> 0.14077747E+06</totfact>
</mgrwt>
</event>
<event>
 4    1  0.4118611E+000  0.2995686E+02  0.7546771E-02  0.1598566E+00
          2   -1    0    0  501    0  0.00000000000E+00  0.00000000000E+00  0.63881938132E+01  0.63881938132E+01  0.00000000000E+00 0.  1.
         -2   -1    0    0    0  501 -0.00000000000E+00 -0.00000000000E+00 -0.35119998840E+02  0.35119998840E+02  0.00000000000E+00 0. -1.
        -11    1    1    2    0    0  0.99820657155E+01  0.97996403425E+01 -0.69456647856E+01  0.15617837434E+02  0.00000000000E+00 0.  1.
         11    1    1    2    0    0 -0.99820657155E+01 -0.97996403425E+01 -0.21786140241E+02  0.25890355220E+02  0.00000000000E+00 0. -1.
<mgrwt>
<rscale>  0 0.29956860E+02</rscale>
<asrwt>0</asrwt>
<pdfrwt beam="1">  1        2 0.98279906E-03 0.29956860E+02</pdfrwt>
<pdfrwt beam="2">  1       -2 0.54030767E-02 0.29956860E+02</pdfrwt>
<totfact> 0.14326287E+06</totfact>
</mgrwt>
</event>
<event>
 4    1  0.4118611E+000  0.2022639E+02  0.7546771E-02  0.1740863E+00
         -1   -1    0    0    0  501 -0.00000000000E+00  0.00000000000E+00  0.20142041882E+01  0.20142041882E+01  0.00000000000E+00 0. -1.
          1   -1    0    0  501    0  0.00000000000E+00 -0.00000000000E+00 -0.50777721285E+02  0.50777721285E+02  0.00000000000E+00 0.  1.
        -11    1    1    2    0    0  0.79089784564E+01  0.62780155580E+01 -0.22925547636E+02  0.25050871322E+02  0.00000000000E+00 0.  1.
         11    1    1    2    0    0 -0.79089784564E+01 -0.62780155580E+01 -0.25837969461E+02  0.27741054151E+02  0.00000000000E+00 0. -1.
<mgrwt>
<rscale>  0 0.20226389E+02</rscale>
<asrwt>0</asrwt>
<pdfrwt beam="2">  1        1 0.78119578E-02 0.20226389E+02</pdfrwt>
<pdfrwt beam="1">  1       -1 0.30987754E-03 0.20226389E+02</pdfrwt>
<totfact> 0.40727903E+06</totfact>
</mgrwt>
</event>
<event>
 4    1  0.4118611E+000  0.3578645E+02  0.7546771E-02  0.1541726E+00
         -1   -1    0    0    0  501 -0.00000000000E+00  0.00000000000E+00  0.37077350462E+01  0.37077350462E+01  0.00000000000E+00 0.  1.
          1   -1    0    0  501    0  0.00000000000E+00 -0.00000000000E+00 -0.86351247533E+02  0.86351247533E+02  0.00000000000E+00 0. -1.
        -13    1    1    2    0    0 -0.94061775338E+00  0.14101258613E+02 -0.68939543180E+02  0.70373225520E+02  0.00000000000E+00 0. -1.
         13    1    1    2    0    0  0.94061775338E+00 -0.14101258613E+02 -0.13703969307E+02  0.19685757060E+02  0.00000000000E+00 0.  1.
<mgrwt>
<rscale>  0 0.35786453E+02</rscale>
<asrwt>0</asrwt>
<pdfrwt beam="2">  1        1 0.13284807E-01 0.35786453E+02</pdfrwt>
<pdfrwt beam="1">  1       -1 0.57042078E-03 0.35786453E+02</pdfrwt>
<totfact> 0.11337585E+06</totfact>
</mgrwt>
</event>
<event>
 4    1  0.4118611E+000  0.2073906E+02  0.7546771E-02  0.1731018E+00
          2   -1    0    0  501    0  0.00000000000E+00  0.00000000000E+00  0.67927838776E+02  0.67927838776E+02  0.00000000000E+00 0.  1.
         -2   -1    0    0    0  501 -0.00000000000E+00 -0.00000000000E+00 -0.15829615113E+01  0.15829615113E+01  0.00000000000E+00 0. -1.
        -11    1    1    2    0    0  0.80848358550E+01 -0.59590723155E+01  0.41816954274E+02  0.43006194652E+02  0.00000000000E+00 0. -1.
         11    1    1    2    0    0 -0.80848358550E+01  0.59590723155E+01  0.24527922990E+02  0.26504605635E+02  0.00000000000E+00 0.  1.
<mgrwt>
<rscale>  0 0.20739060E+02</rscale>
<asrwt>0</asrwt>
<pdfrwt beam="1">  1        2 0.10450434E-01 0.20739060E+02</pdfrwt>
<pdfrwt beam="2">  1       -2 0.24353259E-03 0.20739060E+02</pdfrwt>
<totfact> 0.44965857E+06</totfact>
</mgrwt>
</event>
<event>
 4    1  0.4118611E+000  0.2154287E+02  0.7546771E-02  0.1716280E+00
          2   -1    0    0  501    0  0.00000000000E+00  0.00000000000E+00  0.77503639240E+02  0.77503639240E+02  0.00000000000E+00 0.  1.
         -2   -1    0    0    0  501 -0.00000000000E+00 -0.00000000000E+00 -0.14970105714E+01  0.14970105714E+01  0.00000000000E+00 0. -1.
        -13    1    1    2    0    0 -0.24105244080E+01 -0.98677799509E+01  0.24862850892E+02  0.26857867815E+02  0.00000000000E+00 0. -1.
         13    1    1    2    0    0  0.24105244080E+01  0.98677799509E+01  0.51143777776E+02  0.52142781996E+02  0.00000000000E+00 0.  1.
<mgrwt>
<rscale>  0 0.21542866E+02</rscale>
<asrwt>0</asrwt>
<pdfrwt beam="1">  1        2 0.11923634E-01 0.21542866E+02</pdfrwt>
<pdfrwt beam="2">  1       -2 0.23030938E-03 0.21542866E+02</pdfrwt>
<totfact> 0.42351429E+06</totfact>
</mgrwt>
</event>
<event>
 4    1  0.4118611E+000  0.2296011E+02  0.7546771E-02  0.1692158E+00
          2   -1    0    0  501    0  0.00000000000E+00  0.00000000000E+00  0.19940354208E+01  0.19940354208E+01  0.00000000000E+00 0. -1.
         -2   -1    0    0    0  501 -0.00000000000E+00 -0.00000000000E+00 -0.66092952725E+02  0.66092952725E+02  0.00000000000E+00 0.  1.
        -13    1    1    2    0    0  0.41192047332E+01  0.93196326662E+01 -0.16366678342E+02  0.19279303946E+02  0.00000000000E+00 0. -1.
         13    1    1    2    0    0 -0.41192047332E+01 -0.93196326662E+01 -0.47732238962E+02  0.48807684200E+02  0.00000000000E+00 0.  1.
<mgrwt>
<rscale>  0 0.22960112E+02</rscale>
<asrwt>0</asrwt>
<pdfrwt beam="1">  1        2 0.30677472E-03 0.22960112E+02</pdfrwt>
<pdfrwt beam="2">  1       -2 0.10168145E-01 0.22960112E+02</pdfrwt>
<totfact> 0.23896025E+06</totfact>
</mgrwt>
</event>
<event>
 4    1  0.4118611E+000  0.3269495E+02  0.7546771E-02  0.1570077E+00
          2   -1    0    0  501    0  0.00000000000E+00  0.00000000000E+00  0.10433792487E+02  0.10433792487E+02  0.00000000000E+00 0.  1.
         -2   -1    0    0    0  501 -0.00000000000E+00 -0.00000000000E+00 -0.25612924209E+02  0.25612924209E+02  0.00000000000E+00 0. -1.
        -11    1    1    2    0    0  0.14652324673E+02  0.71918268051E+01 -0.85921558518E+01  0.18445545080E+02  0.00000000000E+00 0. -1.
         11    1    1    2    0    0 -0.14652324673E+02 -0.71918268051E+01 -0.65869758700E+01  0.17601171615E+02  0.00000000000E+00 0.  1.
<mgrwt>
<rscale>  0 0.32694950E+02</rscale>
<asrwt>0</asrwt>
<pdfrwt beam="1">  1        2 0.16051989E-02 0.32694950E+02</pdfrwt>
<pdfrwt beam="2">  1       -2 0.39404498E-02 0.32694950E+02</pdfrwt>
<totfact> 0.12161308E+06</totfact>
</mgrwt>
</event>
<event>
 4    1  0.4118611E+000  0.2159374E+02  0.7546771E-02  0.1715374E+00
          2   -1    0    0  501    0  0.00000000000E+00  0.00000000000E+00  0.67469440038E+01  0.67469440038E+01  0.00000000000E+00 0.  1.
         -2   -1    0    0    0  501 -0.00000000000E+00 -0.00000000000E+00 -0.17277807543E+02  0.17277807543E+02  0.00000000000E+00 0. -1.
        -13    1    1    2    0    0  0.67336931606E+01 -0.84186557152E+01 -0.59292720215E+01  0.12303359474E+02  0.00000000000E+00 0.  1.
         13    1    1    2    0    0 -0.67336931606E+01  0.84186557152E+01 -0.46015915175E+01  0.11721392073E+02  0.00000000000E+00 0. -1.
<mgrwt>
<rscale>  0 0.21593740E+02</rscale>
<asrwt>0</asrwt>
<pdfrwt beam="1">  1        2 0.10379914E-02 0.21593740E+02</pdfrwt>
<pdfrwt beam="2">  1       -2 0.26581242E-02 0.21593740E+02</pdfrwt>
<totfact> 0.32053519E+06</totfact>
</mgrwt>
</event>
<event>
 4    1  0.4118611E+000  0.3118425E+02  0.7546771E-02  0.1585356E+00
         -2   -1    0    0    0  501 -0.00000000000E+00  0.00000000000E+00  0.80051027028E+01  0.80051027028E+01  0.00000000000E+00 0.  1.
          2   -1    0    0  501    0  0.00000000000E+00 -0.00000000000E+00 -0.30369914468E+02  0.30369914468E+02  0.00000000000E+00 0. -1.
        -13    1    1    2    0    0  0.97920445416E+01  0.87345711798E+01 -0.21546969607E+02  0.25227936286E+02  0.00000000000E+00 0.  1.
         13    1    1    2    0    0 -0.97920445416E+01 -0.87345711798E+01 -0.81784215807E+00  0.13147080885E+02  0.00000000000E+00 0. -1.
<mgrwt>
<rscale>  0 0.31184245E+02</rscale>
<asrwt>0</asrwt>
<pdfrwt beam="2">  1        2 0.46722945E-02 0.31184245E+02</pdfrwt>
<pdfrwt beam="1">  1       -2 0.12315543E-02 0.31184245E+02</pdfrwt>
<totfact> 0.15420771E+06</totfact>
</mgrwt>
</event>
<event>
 4    1  0.4118611E+000  0.3303320E+02  0.7546771E-02  0.1566794E+00
          2   -1    0    0  501    0  0.00000000000E+00  0.00000000000E+00  0.10964253069E+02  0.10964253069E+02  0.00000000000E+00 0. -1.
         -2   -1    0    0    0  501 -0.00000000000E+00 -0.00000000000E+00 -0.24880680449E+02  0.24880680449E+02  0.00000000000E+00 0.  1.
        -11    1    1    2    0    0  0.86037959604E+01 -0.10611945150E+02  0.31140814853E+01  0.14012001580E+02  0.00000000000E+00 0. -1.
         11    1    1    2    0    0 -0.86037959604E+01  0.10611945150E+02 -0.17030508865E+02  0.21832931938E+02  0.00000000000E+00 0.  1.
<mgrwt>
<rscale>  0 0.33033200E+02</rscale>
<asrwt>0</asrwt>
<pdfrwt beam="1">  1        2 0.16868082E-02 0.33033200E+02</pdfrwt>
<pdfrwt beam="2">  1       -2 0.38277970E-02 0.33033200E+02</pdfrwt>
<totfact> 0.11916828E+06</totfact>
</mgrwt>
</event>
<event>
 4    1  0.4118611E+000  0.2461995E+02  0.7546771E-02  0.1666521E+00
          2   -1    0    0  501    0  0.00000000000E+00  0.00000000000E+00  0.13136464655E+02  0.13136464655E+02  0.00000000000E+00 0. -1.
         -2   -1    0    0    0  501 -0.00000000000E+00 -0.00000000000E+00 -0.11535484133E+02  0.11535484133E+02  0.00000000000E+00 0.  1.
        -13    1    1    2    0    0 -0.77294375838E+01 -0.83194377632E+01 -0.39612010455E+01  0.12026984817E+02  0.00000000000E+00 0.  1.
         13    1    1    2    0    0  0.77294375838E+01  0.83194377632E+01  0.55621815669E+01  0.12644963972E+02  0.00000000000E+00 0. -1.
<mgrwt>
<rscale>  0 0.24619950E+02</rscale>
<asrwt>0</asrwt>
<pdfrwt beam="1">  1        2 0.20209946E-02 0.24619950E+02</pdfrwt>
<pdfrwt beam="2">  1       -2 0.17746899E-02 0.24619950E+02</pdfrwt>
<totfact> 0.24873284E+06</totfact>
</mgrwt>
</event>
<event>
 4    1  0.4118611E+000  0.3106874E+02  0.7546771E-02  0.1586567E+00
         -2   -1    0    0    0  501 -0.00000000000E+00  0.00000000000E+00  0.10604077461E+03  0.10604077461E+03  0.00000000000E+00 0. -1.
          2   -1    0    0  501    0  0.00000000000E+00 -0.00000000000E+00 -0.22756974117E+01  0.22756974117E+01  0.00000000000E+00 0.  1.
        -13    1    1    2    0    0  0.91399764047E+01 -0.12462827076E+02  0.57345646717E+02  0.59391787519E+02  0.00000000000E+00 0.  1.
         13    1    1    2    0    0 -0.91399764047E+01  0.12462827076E+02  0.46419430478E+02  0.48924684499E+02  0.00000000000E+00 0. -1.
<mgrwt>
<rscale>  0 0.31068744E+02</rscale>
<asrwt>0</asrwt>
<pdfrwt beam="2">  1        2 0.35010738E-03 0.31068744E+02</pdfrwt>
<pdfrwt beam="1">  1       -2 0.16313961E-01 0.31068744E+02</pdfrwt>
<totfact> 0.10837808E+06</totfact>
</mgrwt>
</event>
<event>
 4    1  0.4118611E+000  0.2278465E+02  0.7546771E-02  0.1695025E+00
         -2   -1    0    0    0  501 -0.00000000000E+00  0.00000000000E+00  0.20138690500E+01  0.20138690500E+01  0.00000000000E+00 0. -1.
          2   -1    0    0  501    0  0.00000000000E+00 -0.00000000000E+00 -0.64445623253E+02  0.64445623253E+02  0.00000000000E+00 0.  1.
        -11    1    1    2    0    0 -0.11322590651E+02 -0.56889837232E+00 -0.34490481506E+02  0.36305895099E+02  0.00000000000E+00 0. -1.
         11    1    1    2    0    0  0.11322590651E+02  0.56889837232E+00 -0.27941272698E+02  0.30153597205E+02  0.00000000000E+00 0.  1.
<mgrwt>
<rscale>  0 0.22784648E+02</rscale>
<asrwt>0</asrwt>
<pdfrwt beam="2">  1        2 0.99147115E-02 0.22784648E+02</pdfrwt>
<pdfrwt beam="1">  1       -2 0.30982600E-03 0.22784648E+02</pdfrwt>
<totfact> 0.36030931E+06</totfact>
</mgrwt>
</event>
<event>
 4    1  0.4118611E+000  0.5457923E+02  0.7546771E-02  0.1422099E+00
          4   -1    0    0  501    0  0.00000000000E+00  0.00000000000E+00  0.80930284841E+01  0.80930284841E+01  0.00000000000E+00 0. -1.
         -4   -1    0    0    0  501 -0.00000000000E+00 -0.00000000000E+00 -0.92020335655E+02  0.92020335655E+02  0.00000000000E+00 0.  1.
        -11    1    1    2    0    0  0.57368312393E+01  0.26614549591E+02 -0.45384326995E+02  0.52924310287E+02  0.00000000000E+00 0. -1.
         11    1    1    2    0    0 -0.57368312393E+01 -0.26614549591E+02 -0.38542980176E+02  0.47189053852E+02  0.00000000000E+00 0.  1.
<mgrwt>
<rscale>  0 0.54579234E+02</rscale>
<asrwt>0</asrwt>
<pdfrwt beam="1">  1        4 0.12450813E-02 0.54579234E+02</pdfrwt>
<pdfrwt beam="2">  1       -4 0.14156975E-01 0.54579234E+02</pdfrwt>
<totfact> 0.10071926E+05</totfact>
</mgrwt>
</event>
<event>
 4    1  0.4118611E+000  0.4233955E+02  0.7546771E-02  0.1491668E+00
          2   -1    0    0  501    0  0.00000000000E+00  0.00000000000E+00  0.36774138934E+01  0.36774138934E+01  0.00000000000E+00 0.  1.
         -2   -1    0    0    0  501 -0.00000000000E+00 -0.00000000000E+00 -0.12186810531E+03  0.12186810531E+03  0.00000000000E+00 0. -1.
        -13    1    1    2    0    0 -0.11686856120E+02 -0.16854919185E+02 -0.74641783958E+02  0.77408441524E+02  0.00000000000E+00 0.  1.
         13    1    1    2    0    0  0.11686856120E+02  0.16854919185E+02 -0.43548907462E+02  0.48137077683E+02  0.00000000000E+00 0. -1.
<mgrwt>
<rscale>  0 0.42339554E+02</rscale>
<asrwt>0</asrwt>
<pdfrwt beam="1">  1        2 0.56575586E-03 0.42339554E+02</pdfrwt>
<pdfrwt beam="2">  1       -2 0.18748943E-01 0.42339554E+02</pdfrwt>
<totfact> 0.50124611E+05</totfact>
</mgrwt>
</event>
<event>
 4    1  0.4118611E+000  0.4349920E+02  0.7546771E-02  0.1483934E+00
         -2   -1    0    0    0  501 -0.00000000000E+00  0.00000000000E+00  0.49587520941E+02  0.49587520941E+02  0.00000000000E+00 0. -1.
          2   -1    0    0  501    0  0.00000000000E+00 -0.00000000000E+00 -0.95396006089E+01  0.95396006089E+01  0.00000000000E+00 0.  1.
        -13    1    1    2    0    0  0.15785276711E+02  0.89292624838E+01  0.37048911610E+01  0.18510345968E+02  0.00000000000E+00 0.  1.
         13    1    1    2    0    0 -0.15785276711E+02 -0.89292624838E+01  0.36343029171E+02  0.40616775582E+02  0.00000000000E+00 0. -1.
<mgrwt>
<rscale>  0 0.43499202E+02</rscale>
<asrwt>0</asrwt>
<pdfrwt beam="2">  1        2 0.14676309E-02 0.43499202E+02</pdfrwt>
<pdfrwt beam="1">  1       -2 0.76288492E-02 0.43499202E+02</pdfrwt>
<totfact> 0.56967863E+05</totfact>
</mgrwt>
</event>
<event>
 4    1  0.4118611E+000  0.2698274E+02  0.7546771E-02  0.1634054E+00
         -2   -1    0    0    0  501 -0.00000000000E+00  0.00000000000E+00  0.22011621850E+02  0.22011621850E+02  0.00000000000E+00 0. -1.
          2   -1    0    0  501    0  0.00000000000E+00 -0.00000000000E+00 -0.82691356976E+01  0.82691356976E+01  0.00000000000E+00 0.  1.
        -11    1    1    2    0    0 -0.32038179781E+01 -0.12040886381E+02  0.12677581683E+02  0.17775502012E+02  0.00000000000E+00 0.  1.
         11    1    1    2    0    0  0.32038179781E+01  0.12040886381E+02  0.10649044703E+01  0.12505255536E+02  0.00000000000E+00 0. -1.
<mgrwt>
<rscale>  0 0.26982742E+02</rscale>
<asrwt>0</asrwt>
<pdfrwt beam="2">  1        2 0.12721747E-02 0.26982742E+02</pdfrwt>
<pdfrwt beam="1">  1       -2 0.33864033E-02 0.26982742E+02</pdfrwt>
<totfact> 0.19125112E+06</totfact>
</mgrwt>
</event>
<event>
 4    1  0.4118611E+000  0.3094814E+02  0.7546771E-02  0.1587839E+00
          2   -1    0    0  501    0  0.00000000000E+00  0.00000000000E+00  0.33931350432E+02  0.33931350432E+02  0.00000000000E+00 0. -1.
         -2   -1    0    0    0  501 -0.00000000000E+00 -0.00000000000E+00 -0.70568022414E+01  0.70568022414E+01  0.00000000000E+00 0.  1.
        -13    1    1    2    0    0 -0.81804839875E+01  0.13133602292E+02  0.13685057598E+02  0.20656539616E+02  0.00000000000E+00 0. -1.
         13    1    1    2    0    0  0.81804839875E+01 -0.13133602292E+02  0.13189490593E+02  0.20331613058E+02  0.00000000000E+00 0.  1.
<mgrwt>
<rscale>  0 0.30948139E+02</rscale>
<asrwt>0</asrwt>
<pdfrwt beam="1">  1        2 0.52202077E-02 0.30948139E+02</pdfrwt>
<pdfrwt beam="2">  1       -2 0.10856619E-02 0.30948139E+02</pdfrwt>
<totfact> 0.15935378E+06</totfact>
</mgrwt>
</event>
<event>
 4    1  0.4118611E+000  0.2501851E+02  0.7546771E-02  0.1660736E+00
         -4   -1    0    0    0  501 -0.00000000000E+00  0.00000000000E+00  0.76065494783E+02  0.76065494783E+02  0.00000000000E+00 0.  1.
          4   -1    0    0  501    0  0.00000000000E+00 -0.00000000000E+00 -0.20571938278E+01  0.20571938278E+01  0.00000000000E+00 0. -1.
        -13    1    1    2    0    0  0.52281060813E+01  0.11345575196E+02  0.39042936722E+02  0.40992756404E+02  0.00000000000E+00 0. -1.
         13    1    1    2    0    0 -0.52281060813E+01 -0.11345575196E+02  0.34965364234E+02  0.37129932207E+02  0.00000000000E+00 0.  1.
<mgrwt>
<rscale>  0 0.25018510E+02</rscale>
<asrwt>0</asrwt>
<pdfrwt beam="2">  1        4 0.31649142E-03 0.25018510E+02</pdfrwt>
<pdfrwt beam="1">  1       -4 0.11702382E-01 0.25018510E+02</pdfrwt>
<totfact> 0.65828191E+05</totfact>
</mgrwt>
</event>
<event>
 4    1  0.4118611E+000  0.3712851E+02  0.7546771E-02  0.1530472E+00
         -2   -1    0    0    0  501 -0.00000000000E+00  0.00000000000E+00  0.33360980062E+02  0.33360980062E+02  0.00000000000E+00 0. -1.
          2   -1    0    0  501    0  0.00000000000E+00 -0.00000000000E+00 -0.10330378813E+02  0.10330378813E+02  0.00000000000E+00 0.  1.
        -13    1    1    2    0    0 -0.70786222571E+01  0.15512705475E+02  0.20153125501E+02  0.26398852090E+02  0.00000000000E+00 0. -1.
         13    1    1    2    0    0  0.70786222571E+01 -0.15512705475E+02  0.28774757483E+01  0.17292506785E+02  0.00000000000E+00 0.  1.
<mgrwt>
<rscale>  0 0.37128510E+02</rscale>
<asrwt>0</asrwt>
<pdfrwt beam="2">  1        2 0.15892891E-02 0.37128510E+02</pdfrwt>
<pdfrwt beam="1">  1       -2 0.51324584E-02 0.37128510E+02</pdfrwt>
<totfact> 0.87717154E+05</totfact>
</mgrwt>
</event>
<event>
 4    1  0.4118611E+000  0.2215555E+02  0.7546771E-02  0.1705576E+00
         -2   -1    0    0    0  501 -0.00000000000E+00  0.00000000000E+00  0.11160289930E+02  0.11160289930E+02  0.00000000000E+00 0.  1.
          2   -1    0    0  501    0  0.00000000000E+00 -0.00000000000E+00 -0.10995873159E+02  0.10995873159E+02  0.00000000000E+00 0. -1.
        -11    1    1    2    0    0  0.10049060651E+02 -0.45278302897E+01  0.11923134513E+01  0.11086319428E+02  0.00000000000E+00 0. -1.
         11    1    1    2    0    0 -0.10049060651E+02  0.45278302897E+01 -0.10278966805E+01  0.11069843661E+02  0.00000000000E+00 0.  1.
<mgrwt>
<rscale>  0 0.22155553E+02</rscale>
<asrwt>0</asrwt>
<pdfrwt beam="2">  1        2 0.16916728E-02 0.22155553E+02</pdfrwt>
<pdfrwt beam="1">  1       -2 0.17169677E-02 0.22155553E+02</pdfrwt>
<totfact> 0.31385247E+06</totfact>
</mgrwt>
</event>
<event>
 4    1  0.4118611E+000  0.1083252E+03  0.7546771E-02  0.1263703E+00
          2   -1    0    0  501    0  0.00000000000E+00  0.00000000000E+00  0.55552996701E+02  0.55552996701E+02  0.00000000000E+00 0. -1.
         -2   -1    0    0    0  501 -0.00000000000E+00 -0.00000000000E+00 -0.52807028607E+02  0.52807028607E+02  0.00000000000E+00 0.  1.
        -13    1    1    2    0    0 -0.15723924638E+02  0.51709773360E+02 -0.21560691966E+01  0.54090582372E+02  0.00000000000E+00 0.  1.
         13    1    1    2    0    0  0.15723924638E+02 -0.51709773360E+02  0.49020372911E+01  0.54269442936E+02  0.00000000000E+00 0. -1.
<mgrwt>
<rscale>  0 0.10832523E+03</rscale>
<asrwt>0</asrwt>
<pdfrwt beam="1">  1        2 0.85466149E-02 0.10832523E+03</pdfrwt>
<pdfrwt beam="2">  1       -2 0.81241582E-02 0.10832523E+03</pdfrwt>
<totfact> 0.63225832E+04</totfact>
</mgrwt>
</event>
<event>
 4    1  0.4118611E+000  0.1276061E+03  0.7546771E-02  0.1231052E+00
         -2   -1    0    0    0  501 -0.00000000000E+00  0.00000000000E+00  0.71374665938E+02  0.71374665938E+02  0.00000000000E+00 0.  1.
          2   -1    0    0  501    0  0.00000000000E+00 -0.00000000000E+00 -0.57034664371E+02  0.57034664371E+02  0.00000000000E+00 0. -1.
        -13    1    1    2    0    0  0.37593853824E+02 -0.89092420890E+01  0.58265168999E+02  0.69910674138E+02  0.00000000000E+00 0.  1.
         13    1    1    2    0    0 -0.37593853824E+02  0.89092420890E+01 -0.43925167432E+02  0.58498656171E+02  0.00000000000E+00 0. -1.
<mgrwt>
<rscale>  0 0.12760611E+03</rscale>
<asrwt>0</asrwt>
<pdfrwt beam="2">  1        2 0.87745638E-02 0.12760611E+03</pdfrwt>
<pdfrwt beam="1">  1       -2 0.10980718E-01 0.12760611E+03</pdfrwt>
<totfact> 0.39082720E+04</totfact>
</mgrwt>
</event>
<event>
 4    1  0.4118611E+000  0.2335177E+02  0.7546771E-02  0.1685871E+00
         -2   -1    0    0    0  501 -0.00000000000E+00  0.00000000000E+00  0.21879937911E+02  0.21879937911E+02  0.00000000000E+00 0.  1.
          2   -1    0    0  501    0  0.00000000000E+00 -0.00000000000E+00 -0.62306534709E+01  0.62306534709E+01  0.00000000000E+00 0. -1.
        -13    1    1    2    0    0 -0.67415689979E+01  0.88727512137E+01  0.36282966465E+01  0.11719172463E+02  0.00000000000E+00 0. -1.
         13    1    1    2    0    0  0.67415689979E+01 -0.88727512137E+01  0.12020987794E+02  0.16391418919E+02  0.00000000000E+00 0.  1.
<mgrwt>
<rscale>  0 0.23351772E+02</rscale>
<asrwt>0</asrwt>
<pdfrwt beam="2">  1        2 0.95856209E-03 0.23351772E+02</pdfrwt>
<pdfrwt beam="1">  1       -2 0.33661442E-02 0.23351772E+02</pdfrwt>
<totfact> 0.26431588E+06</totfact>
</mgrwt>
</event>
<event>
 4    1  0.4118611E+000  0.3572574E+02  0.7546771E-02  0.1542249E+00
          3   -1    0    0  501    0  0.00000000000E+00  0.00000000000E+00  0.85496527312E+01  0.85496527312E+01  0.00000000000E+00 0.  1.
         -3   -1    0    0    0  501 -0.00000000000E+00 -0.00000000000E+00 -0.37321071773E+02  0.37321071773E+02  0.00000000000E+00 0. -1.
        -13    1    1    2    0    0 -0.74246414712E+01  0.14720278986E+02 -0.55579917321E+01  0.17398367351E+02  0.00000000000E+00 0.  1.
         13    1    1    2    0    0  0.74246414712E+01 -0.14720278986E+02 -0.23213427310E+02  0.28472357153E+02  0.00000000000E+00 0. -1.
<mgrwt>
<rscale>  0 0.35725744E+02</rscale>
<asrwt>0</asrwt>
<pdfrwt beam="1">  1        3 0.13153312E-02 0.35725744E+02</pdfrwt>
<pdfrwt beam="2">  1       -3 0.57417035E-02 0.35725744E+02</pdfrwt>
<totfact> 0.43773982E+05</totfact>
</mgrwt>
</event>
<event>
 4    1  0.4118611E+000  0.4728761E+02  0.7546771E-02  0.1460546E+00
          2   -1    0    0  501    0  0.00000000000E+00  0.00000000000E+00  0.18746420384E+02  0.18746420384E+02  0.00000000000E+00 0. -1.
         -2   -1    0    0    0  501 -0.00000000000E+00 -0.00000000000E+00 -0.29820606270E+02  0.29820606270E+02  0.00000000000E+00 0.  1.
        -13    1    1    2    0    0  0.35947389958E+01  0.17182777576E+02  0.10729983100E+02  0.20574317267E+02  0.00000000000E+00 0. -1.
         13    1    1    2    0    0 -0.35947389958E+01 -0.17182777576E+02 -0.21804168985E+02  0.27992709387E+02  0.00000000000E+00 0.  1.
<mgrwt>
<rscale>  0 0.47287614E+02</rscale>
<asrwt>0</asrwt>
<pdfrwt beam="1">  1        2 0.28840647E-02 0.47287614E+02</pdfrwt>
<pdfrwt beam="2">  1       -2 0.45877855E-02 0.47287614E+02</pdfrwt>
<totfact> 0.50559720E+05</totfact>
</mgrwt>
</event>
<event>
 4    1  0.4118611E+000  0.3112501E+02  0.7546771E-02  0.1585976E+00
         -2   -1    0    0    0  501 -0.00000000000E+00  0.00000000000E+00  0.45722046907E+02  0.45722046907E+02  0.00000000000E+00 0.  1.
          2   -1    0    0  501    0  0.00000000000E+00 -0.00000000000E+00 -0.52970404168E+01  0.52970404168E+01  0.00000000000E+00 0. -1.
        -11    1    1    2    0    0 -0.91420312007E+01  0.49260258301E+01  0.12130746961E+01  0.10455334293E+02  0.00000000000E+00 0. -1.
         11    1    1    2    0    0  0.91420312007E+01 -0.49260258301E+01  0.39211931794E+02  0.40563753031E+02  0.00000000000E+00 0.  1.
<mgrwt>
<rscale>  0 0.31125008E+02</rscale>
<asrwt>0</asrwt>
<pdfrwt beam="2">  1        2 0.81492932E-03 0.31125008E+02</pdfrwt>
<pdfrwt beam="1">  1       -2 0.70341608E-02 0.31125008E+02</pdfrwt>
<totfact> 0.12666094E+06</totfact>
</mgrwt>
</event>
<event>
 4    1  0.4118611E+000  0.4352919E+02  0.7546771E-02  0.1483738E+00
         -3   -1    0    0    0  501 -0.00000000000E+00  0.00000000000E+00  0.45125140774E+01  0.45125140774E+01  0.00000000000E+00 0.  1.
          3   -1    0    0  501    0  0.00000000000E+00 -0.00000000000E+00 -0.10497422189E+03  0.10497422189E+03  0.00000000000E+00 0. -1.
        -11    1    1    2    0    0  0.22090377401E+00  0.16107431467E+02 -0.87042914624E+02  0.88520998261E+02  0.00000000000E+00 0. -1.
         11    1    1    2    0    0 -0.22090377401E+00 -0.16107431467E+02 -0.13418793191E+02  0.20965737708E+02  0.00000000000E+00 0.  1.
<mgrwt>
<rscale>  0 0.43529193E+02</rscale>
<asrwt>0</asrwt>
<pdfrwt beam="2">  1        3 0.16149880E-01 0.43529193E+02</pdfrwt>
<pdfrwt beam="1">  1       -3 0.69423295E-03 0.43529193E+02</pdfrwt>
<totfact> 0.23047566E+05</totfact>
</mgrwt>
</event>
<event>
 4    1  0.4118611E+000  0.4553354E+02  0.7546771E-02  0.1471038E+00
          4   -1    0    0  501    0  0.00000000000E+00  0.00000000000E+00  0.26485635873E+02  0.26485635873E+02  0.00000000000E+00 0. -1.
         -4   -1    0    0    0  501 -0.00000000000E+00 -0.00000000000E+00 -0.19570072020E+02  0.19570072020E+02  0.00000000000E+00 0.  1.
        -11    1    1    2    0    0  0.28852383665E+01 -0.18308542493E+02  0.16830536351E+02  0.25035859932E+02  0.00000000000E+00 0. -1.
         11    1    1    2    0    0 -0.28852383665E+01  0.18308542493E+02 -0.99149724974E+01  0.21019847961E+02  0.00000000000E+00 0.  1.
<mgrwt>
<rscale>  0 0.45533539E+02</rscale>
<asrwt>0</asrwt>
<pdfrwt beam="1">  1        4 0.40747132E-02 0.45533539E+02</pdfrwt>
<pdfrwt beam="2">  1       -4 0.30107803E-02 0.45533539E+02</pdfrwt>
<totfact> 0.18389079E+05</totfact>
</mgrwt>
</event>
<event>
 4    1  0.4118611E+000  0.3092216E+02  0.7546771E-02  0.1588113E+00
          2   -1    0    0  501    0  0.00000000000E+00  0.00000000000E+00  0.10658085710E+02  0.10658085710E+02  0.00000000000E+00 0. -1.
         -2   -1    0    0    0  501 -0.00000000000E+00 -0.00000000000E+00 -0.22428512752E+02  0.22428512752E+02  0.00000000000E+00 0.  1.
        -13    1    1    2    0    0  0.10393183441E+02  0.89681041977E+01  0.17260529122E+01  0.13835621186E+02  0.00000000000E+00 0. -1.
         13    1    1    2    0    0 -0.10393183441E+02 -0.89681041977E+01 -0.13496479954E+02  0.19250977276E+02  0.00000000000E+00 0.  1.
<mgrwt>
<rscale>  0 0.30922161E+02</rscale>
<asrwt>0</asrwt>
<pdfrwt beam="1">  1        2 0.16397055E-02 0.30922161E+02</pdfrwt>
<pdfrwt beam="2">  1       -2 0.34505404E-02 0.30922161E+02</pdfrwt>
<totfact> 0.14019945E+06</totfact>
</mgrwt>
</event>
<event>
 4    1  0.4118611E+000  0.5551910E+02  0.7546771E-02  0.1417660E+00
         -2   -1    0    0    0  501 -0.00000000000E+00  0.00000000000E+00  0.25698214855E+02  0.25698214855E+02  0.00000000000E+00 0. -1.
          2   -1    0    0  501    0  0.00000000000E+00 -0.00000000000E+00 -0.29986229403E+02  0.29986229403E+02  0.00000000000E+00 0.  1.
        -11    1    1    2    0    0 -0.26864560744E+01  0.11979102236E+02 -0.27115477800E+02  0.29765165427E+02  0.00000000000E+00 0.  1.
         11    1    1    2    0    0  0.26864560744E+01 -0.11979102236E+02  0.22827463251E+02  0.25919278830E+02  0.00000000000E+00 0. -1.
<mgrwt>
<rscale>  0 0.55519098E+02</rscale>
<asrwt>0</asrwt>
<pdfrwt beam="2">  1        2 0.46132660E-02 0.55519098E+02</pdfrwt>
<pdfrwt beam="1">  1       -2 0.39535715E-02 0.55519098E+02</pdfrwt>
<totfact> 0.35592832E+05</totfact>
</mgrwt>
</event>
<event>
 4    1  0.4118611E+000  0.2196106E+02  0.7546771E-02  0.1708926E+00
          1   -1    0    0  501    0  0.00000000000E+00  0.00000000000E+00  0.18312497690E+01  0.18312497690E+01  0.00000000000E+00 0.  1.
         -1   -1    0    0    0  501 -0.00000000000E+00 -0.00000000000E+00 -0.65841403609E+02  0.65841403609E+02  0.00000000000E+00 0. -1.
        -13    1    1    2    0    0  0.74356753146E+01  0.71954335913E+01 -0.43330744595E+02  0.44549039935E+02  0.00000000000E+00 0. -1.
         13    1    1    2    0    0 -0.74356753146E+01 -0.71954335913E+01 -0.20679409245E+02  0.23123613443E+02  0.00000000000E+00 0.  1.
<mgrwt>
<rscale>  0 0.21961061E+02</rscale>
<asrwt>0</asrwt>
<pdfrwt beam="1">  1        1 0.28173077E-03 0.21961061E+02</pdfrwt>
<pdfrwt beam="2">  1       -1 0.10129445E-01 0.21961061E+02</pdfrwt>
<totfact> 0.27527974E+06</totfact>
</mgrwt>
</event>
<event>
 4    1  0.4118611E+000  0.3529886E+02  0.7546771E-02  0.1545962E+00
          4   -1    0    0  501    0  0.00000000000E+00  0.00000000000E+00  0.86983356348E+02  0.86983356348E+02  0.00000000000E+00 0. -1.
         -4   -1    0    0    0  501 -0.00000000000E+00 -0.00000000000E+00 -0.35811725784E+01  0.35811725784E+01  0.00000000000E+00 0.  1.
        -11    1    1    2    0    0  0.91134479063E+01 -0.13994371804E+02  0.56351164261E+02  0.58773727877E+02  0.00000000000E+00 0. -1.
         11    1    1    2    0    0 -0.91134479063E+01  0.13994371804E+02  0.27051019508E+02  0.31790801050E+02  0.00000000000E+00 0.  1.
<mgrwt>
<rscale>  0 0.35298862E+02</rscale>
<asrwt>0</asrwt>
<pdfrwt beam="1">  1        4 0.13382053E-01 0.35298862E+02</pdfrwt>
<pdfrwt beam="2">  1       -4 0.55094969E-03 0.35298862E+02</pdfrwt>
<totfact> 0.29501430E+05</totfact>
</mgrwt>
</event>
<event>
 4    1  0.4118611E+000  0.3266857E+02  0.7546771E-02  0.1570336E+00
          2   -1    0    0  501    0  0.00000000000E+00  0.00000000000E+00  0.13640264806E+02  0.13640264806E+02  0.00000000000E+00 0. -1.
         -2   -1    0    0    0  501 -0.00000000000E+00 -0.00000000000E+00 -0.19560382651E+02  0.19560382651E+02  0.00000000000E+00 0.  1.
        -11    1    1    2    0    0 -0.15828118250E+02 -0.38621827681E+01 -0.17735610644E+01  0.16388755350E+02  0.00000000000E+00 0. -1.
         11    1    1    2    0    0  0.15828118250E+02  0.38621827681E+01 -0.41465567803E+01  0.16811892107E+02  0.00000000000E+00 0.  1.
<mgrwt>
<rscale>  0 0.32668566E+02</rscale>
<asrwt>0</asrwt>
<pdfrwt beam="1">  1        2 0.20985023E-02 0.32668566E+02</pdfrwt>
<pdfrwt beam="2">  1       -2 0.30092896E-02 0.32668566E+02</pdfrwt>
<totfact> 0.12556031E+06</totfact>
</mgrwt>
</event>
<event>
 4    1  0.4118611E+000  0.2784273E+02  0.7546771E-02  0.1623236E+00
         -2   -1    0    0    0  501 -0.00000000000E+00  0.00000000000E+00  0.99416379130E+01  0.99416379130E+01  0.00000000000E+00 0.  1.
          2   -1    0    0  501    0  0.00000000000E+00 -0.00000000000E+00 -0.19494207210E+02  0.19494207210E+02  0.00000000000E+00 0. -1.
        -13    1    1    2    0    0 -0.12136837422E+02  0.52157567659E+01 -0.94205202779E+01  0.16225077613E+02  0.00000000000E+00 0. -1.
         13    1    1    2    0    0  0.12136837422E+02 -0.52157567659E+01 -0.13204901947E+00  0.13210767510E+02  0.00000000000E+00 0.  1.
<mgrwt>
<rscale>  0 0.27842726E+02</rscale>
<asrwt>0</asrwt>
<pdfrwt beam="2">  1        2 0.29991088E-02 0.27842726E+02</pdfrwt>
<pdfrwt beam="1">  1       -2 0.15294828E-02 0.27842726E+02</pdfrwt>
<totfact> 0.19260747E+06</totfact>
</mgrwt>
</event>
<event>
 4    1  0.4118611E+000  0.2753878E+02  0.7546771E-02  0.1627004E+00
          2   -1    0    0  501    0  0.00000000000E+00  0.00000000000E+00  0.73645993024E+02  0.73645993024E+02  0.00000000000E+00 0.  1.
         -2   -1    0    0    0  501 -0.00000000000E+00 -0.00000000000E+00 -0.25744250364E+01  0.25744250364E+01  0.00000000000E+00 0. -1.
        -11    1    1    2    0    0 -0.13543584005E+02 -0.95778774327E+00  0.29194037007E+02  0.32196860434E+02  0.00000000000E+00 0.  1.
         11    1    1    2    0    0  0.13543584005E+02  0.95778774327E+00  0.41877530981E+02  0.44023557627E+02  0.00000000000E+00 0. -1.
<mgrwt>
<rscale>  0 0.27538779E+02</rscale>
<asrwt>0</asrwt>
<pdfrwt beam="1">  1        2 0.11330151E-01 0.27538779E+02</pdfrwt>
<pdfrwt beam="2">  1       -2 0.39606545E-03 0.27538779E+02</pdfrwt>
<totfact> 0.23878098E+06</totfact>
</mgrwt>
</event>
<event>
 4    1  0.4118611E+000  0.3806581E+02  0.7546771E-02  0.1522947E+00
         -2   -1    0    0    0  501 -0.00000000000E+00  0.00000000000E+00  0.20424890014E+02  0.20424890014E+02  0.00000000000E+00 0.  1.
          2   -1    0    0  501    0  0.00000000000E+00 -0.00000000000E+00 -0.17735788932E+02  0.17735788932E+02  0.00000000000E+00 0. -1.
        -13    1    1    2    0    0  0.46799028821E+01  0.18338403537E+02 -0.67367379675E+00  0.18938119539E+02  0.00000000000E+00 0.  1.
         13    1    1    2    0    0 -0.46799028821E+01 -0.18338403537E+02  0.33627748790E+01  0.19222559408E+02  0.00000000000E+00 0. -1.
<mgrwt>
<rscale>  0 0.38065813E+02</rscale>
<asrwt>0</asrwt>
<pdfrwt beam="2">  1        2 0.27285829E-02 0.38065813E+02</pdfrwt>
<pdfrwt beam="1">  1       -2 0.31422908E-02 0.38065813E+02</pdfrwt>
<totfact> 0.88086507E+05</totfact>
</mgrwt>
</event>
<event>
 4    1  0.4118611E+000  0.3800340E+02  0.7546771E-02  0.1523440E+00
          1   -1    0    0  501    0  0.00000000000E+00  0.00000000000E+00  0.76904478204E+01  0.76904478204E+01  0.00000000000E+00 0. -1.
         -1   -1    0    0    0  501 -0.00000000000E+00 -0.00000000000E+00 -0.46949749245E+02  0.46949749245E+02  0.00000000000E+00 0.  1.
        -11    1    1    2    0    0 -0.18013284122E+02 -0.54340236065E+01 -0.23449249018E+02  0.30064502273E+02  0.00000000000E+00 0.  1.
         11    1    1    2    0    0  0.18013284122E+02  0.54340236065E+01 -0.15810052406E+02  0.24575694792E+02  0.00000000000E+00 0. -1.
<mgrwt>
<rscale>  0 0.38003400E+02</rscale>
<asrwt>0</asrwt>
<pdfrwt beam="1">  1        1 0.11831459E-02 0.38003400E+02</pdfrwt>
<pdfrwt beam="2">  1       -1 0.72230381E-02 0.38003400E+02</pdfrwt>
<totfact> 0.80076034E+05</totfact>
</mgrwt>
</event>
<event>
 4    1  0.4118611E+000  0.2850918E+02  0.7546771E-02  0.1615177E+00
          4   -1    0    0  501    0  0.00000000000E+00  0.00000000000E+00  0.18329498632E+02  0.18329498632E+02  0.00000000000E+00 0. -1.
         -4   -1    0    0    0  501 -0.00000000000E+00 -0.00000000000E+00 -0.11085588936E+02  0.11085588936E+02  0.00000000000E+00 0.  1.
        -11    1    1    2    0    0  0.44831096316E+01  0.10299255941E+02 -0.54330397180E+01  0.12477614575E+02  0.00000000000E+00 0.  1.
         11    1    1    2    0    0 -0.44831096316E+01 -0.10299255941E+02  0.12676949415E+02  0.16937472993E+02  0.00000000000E+00 0. -1.
<mgrwt>
<rscale>  0 0.28509177E+02</rscale>
<asrwt>0</asrwt>
<pdfrwt beam="1">  1        4 0.28199229E-02 0.28509177E+02</pdfrwt>
<pdfrwt beam="2">  1       -4 0.17054752E-02 0.28509177E+02</pdfrwt>
<totfact> 0.58482107E+05</totfact>
</mgrwt>
</event>
<event>
 4    1  0.4118611E+000  0.2457049E+02  0.7546771E-02  0.1667249E+00
         -2   -1    0    0    0  501 -0.00000000000E+00  0.00000000000E+00  0.24783952784E+02  0.24783952784E+02  0.00000000000E+00 0.  1.
          2   -1    0    0  501    0  0.00000000000E+00 -0.00000000000E+00 -0.60897180284E+01  0.60897180284E+01  0.00000000000E+00 0. -1.
        -13    1    1    2    0    0  0.92245094420E+01 -0.69547532782E+01  0.14598637128E+02  0.18616669240E+02  0.00000000000E+00 0.  1.
         13    1    1    2    0    0 -0.92245094420E+01  0.69547532782E+01  0.40955976273E+01  0.12257001572E+02  0.00000000000E+00 0. -1.
<mgrwt>
<rscale>  0 0.24570493E+02</rscale>
<asrwt>0</asrwt>
<pdfrwt beam="2">  1        2 0.93687971E-03 0.24570493E+02</pdfrwt>
<pdfrwt beam="1">  1       -2 0.38129158E-02 0.24570493E+02</pdfrwt>
<totfact> 0.23325714E+06</totfact>
</mgrwt>
</event>
<event>
 4    1  0.4118611E+000  0.3826830E+02  0.7546771E-02  0.1521356E+00
          2   -1    0    0  501    0  0.00000000000E+00  0.00000000000E+00  0.10707662944E+02  0.10707662944E+02  0.00000000000E+00 0. -1.
         -2   -1    0    0    0  501 -0.00000000000E+00 -0.00000000000E+00 -0.34191928727E+02  0.34191928727E+02  0.00000000000E+00 0.  1.
        -13    1    1    2    0    0  0.99709226331E+01  0.12720695471E+02 -0.23757861787E+02  0.28734498223E+02  0.00000000000E+00 0.  1.
         13    1    1    2    0    0 -0.99709226331E+01 -0.12720695471E+02  0.27359600386E+00  0.16165093449E+02  0.00000000000E+00 0. -1.
<mgrwt>
<rscale>  0 0.38268297E+02</rscale>
<asrwt>0</asrwt>
<pdfrwt beam="1">  1        2 0.16473327E-02 0.38268297E+02</pdfrwt>
<pdfrwt beam="2">  1       -2 0.52602969E-02 0.38268297E+02</pdfrwt>
<totfact> 0.81463516E+05</totfact>
</mgrwt>
</event>
<event>
 4    1  0.4118611E+000  0.5021237E+02  0.7546771E-02  0.1444199E+00
         -2   -1    0    0    0  501 -0.00000000000E+00  0.00000000000E+00  0.62806753972E+02  0.62806753972E+02  0.00000000000E+00 0. -1.
          2   -1    0    0  501    0  0.00000000000E+00 -0.00000000000E+00 -0.10035871570E+02  0.10035871570E+02  0.00000000000E+00 0.  1.
        -13    1    1    2    0    0  0.20662589974E+02 -0.63763422210E+01  0.78801661569E+01  0.23015155511E+02  0.00000000000E+00 0. -1.
         13    1    1    2    0    0 -0.20662589974E+02  0.63763422210E+01  0.44890716245E+02  0.49827470030E+02  0.00000000000E+00 0.  1.
<mgrwt>
<rscale>  0 0.50212370E+02</rscale>
<asrwt>0</asrwt>
<pdfrwt beam="2">  1        2 0.15439803E-02 0.50212370E+02</pdfrwt>
<pdfrwt beam="1">  1       -2 0.96625773E-02 0.50212370E+02</pdfrwt>
<totfact> 0.38703117E+05</totfact>
</mgrwt>
</event>
<event>
 4    1  0.4118611E+000  0.2614953E+02  0.7546771E-02  0.1645019E+00
         -4   -1    0    0    0  501 -0.00000000000E+00  0.00000000000E+00  0.61321323232E+01  0.61321323232E+01  0.00000000000E+00 0.  1.
          4   -1    0    0  501    0  0.00000000000E+00 -0.00000000000E+00 -0.27877662387E+02  0.27877662387E+02  0.00000000000E+00 0. -1.
        -11    1    1    2    0    0 -0.11723604047E+02  0.57782891593E+01 -0.11319526668E+02  0.17290552375E+02  0.00000000000E+00 0.  1.
         11    1    1    2    0    0  0.11723604047E+02 -0.57782891593E+01 -0.10426003396E+02  0.16719242335E+02  0.00000000000E+00 0. -1.
<mgrwt>
<rscale>  0 0.26149533E+02</rscale>
<asrwt>0</asrwt>
<pdfrwt beam="2">  1        4 0.42888712E-02 0.26149533E+02</pdfrwt>
<pdfrwt beam="1">  1       -4 0.94340497E-03 0.26149533E+02</pdfrwt>
<totfact> 0.69536446E+05</totfact>
</mgrwt>
</event>
<event>
 4    1  0.4118611E+000  0.3165213E+02  0.7546771E-02  0.1580513E+00
          2   -1    0    0  501    0  0.00000000000E+00  0.00000000000E+00  0.10833303033E+02  0.10833303033E+02  0.00000000000E+00 0.  1.
         -2   -1    0    0    0  501 -0.00000000000E+00 -0.00000000000E+00 -0.23119843125E+02  0.23119843125E+02  0.00000000000E+00 0. -1.
        -13    1    1    2    0    0 -0.14874436014E+02 -0.58786414343E-01 -0.11940993808E+02  0.19074580878E+02  0.00000000000E+00 0. -1.
         13    1    1    2    0    0  0.14874436014E+02  0.58786414343E-01 -0.34554628388E+00  0.14878565280E+02  0.00000000000E+00 0.  1.
<mgrwt>
<rscale>  0 0.31652126E+02</rscale>
<asrwt>0</asrwt>
<pdfrwt beam="1">  1        2 0.16666620E-02 0.31652126E+02</pdfrwt>
<pdfrwt beam="2">  1       -2 0.35568989E-02 0.31652126E+02</pdfrwt>
<totfact> 0.13249313E+06</totfact>
</mgrwt>
</event>
<event>
 4    1  0.4118611E+000  0.5937971E+02  0.7546771E-02  0.1400453E+00
          2   -1    0    0  501    0  0.00000000000E+00  0.00000000000E+00  0.61305113646E+02  0.61305113646E+02  0.00000000000E+00 0.  1.
         -2   -1    0    0    0  501 -0.00000000000E+00 -0.00000000000E+00 -0.14378693590E+02  0.14378693590E+02  0.00000000000E+00 0. -1.
        -11    1    1    2    0    0  0.26520684741E+02  0.94166158476E+01  0.35519090894E+02  0.45316941546E+02  0.00000000000E+00 0. -1.
         11    1    1    2    0    0 -0.26520684741E+02 -0.94166158476E+01  0.11407329162E+02  0.30366865689E+02  0.00000000000E+00 0.  1.
<mgrwt>
<rscale>  0 0.59379708E+02</rscale>
<asrwt>0</asrwt>
<pdfrwt beam="1">  1        2 0.94315558E-02 0.59379708E+02</pdfrwt>
<pdfrwt beam="2">  1       -2 0.22121067E-02 0.59379708E+02</pdfrwt>
<totfact> 0.34207071E+05</totfact>
</mgrwt>
</event>
<event>
 4    1  0.4118611E+000  0.2244949E+02  0.7546771E-02  0.1700592E+00
         -2   -1    0    0    0  501 -0.00000000000E+00  0.00000000000E+00  0.95412483283E+02  0.95412483283E+02  0.00000000000E+00 0.  1.
          2   -1    0    0  501    0  0.00000000000E+00 -0.00000000000E+00 -0.13205280052E+01  0.13205280052E+01  0.00000000000E+00 0. -1.
        -11    1    1    2    0    0 -0.65419335844E+01 -0.91202311302E+01  0.46446661012E+02  0.47783551878E+02  0.00000000000E+00 0.  1.
         11    1    1    2    0    0  0.65419335844E+01  0.91202311302E+01  0.47645294266E+02  0.48949459410E+02  0.00000000000E+00 0. -1.
<mgrwt>
<rscale>  0 0.22449486E+02</rscale>
<asrwt>0</asrwt>
<pdfrwt beam="2">  1        2 0.20315823E-03 0.22449486E+02</pdfrwt>
<pdfrwt beam="1">  1       -2 0.14678838E-01 0.22449486E+02</pdfrwt>
<totfact> 0.23310289E+06</totfact>
</mgrwt>
</event>
<event>
 4    1  0.4118611E+000  0.5136562E+02  0.7546771E-02  0.1438112E+00
         -2   -1    0    0    0  501 -0.00000000000E+00  0.00000000000E+00  0.13445256330E+02  0.13445256330E+02  0.00000000000E+00 0. -1.
          2   -1    0    0  501    0  0.00000000000E+00 -0.00000000000E+00 -0.49058689131E+02  0.49058689131E+02  0.00000000000E+00 0.  1.
        -13    1    1    2    0    0 -0.90848680106E+01  0.21192525312E+02 -0.40424568451E+01  0.23409387289E+02  0.00000000000E+00 0. -1.
         13    1    1    2    0    0  0.90848680106E+01 -0.21192525312E+02 -0.31570975956E+02  0.39094558172E+02  0.00000000000E+00 0.  1.
<mgrwt>
<rscale>  0 0.51365617E+02</rscale>
<asrwt>0</asrwt>
<pdfrwt beam="2">  1        2 0.75474906E-02 0.51365617E+02</pdfrwt>
<pdfrwt beam="1">  1       -2 0.20685010E-02 0.51365617E+02</pdfrwt>
<totfact> 0.47684891E+05</totfact>
</mgrwt>
</event>
<event>
 4    1  0.4118611E+000  0.2436338E+02  0.7546771E-02  0.1670318E+00
          2   -1    0    0  501    0  0.00000000000E+00  0.00000000000E+00  0.35780880283E+01  0.35780880283E+01  0.00000000000E+00 0. -1.
         -2   -1    0    0    0  501 -0.00000000000E+00 -0.00000000000E+00 -0.41472869331E+02  0.41472869331E+02  0.00000000000E+00 0.  1.
        -11    1    1    2    0    0 -0.38259469947E+01 -0.99408204731E+01 -0.29876928363E+02  0.31718900209E+02  0.00000000000E+00 0.  1.
         11    1    1    2    0    0  0.38259469947E+01  0.99408204731E+01 -0.80178529394E+01  0.13332057150E+02  0.00000000000E+00 0. -1.
<mgrwt>
<rscale>  0 0.24363380E+02</rscale>
<asrwt>0</asrwt>
<pdfrwt beam="1">  1        2 0.55047509E-03 0.24363380E+02</pdfrwt>
<pdfrwt beam="2">  1       -2 0.63804413E-02 0.24363380E+02</pdfrwt>
<totfact> 0.22444726E+06</totfact>
</mgrwt>
</event>
<event>
 4    1  0.4118611E+000  0.3779143E+02  0.7546771E-02  0.1525123E+00
         -2   -1    0    0    0  501 -0.00000000000E+00  0.00000000000E+00  0.12969432298E+02  0.12969432298E+02  0.00000000000E+00 0. -1.
          2   -1    0    0  501    0  0.00000000000E+00 -0.00000000000E+00 -0.27529967707E+02  0.27529967707E+02  0.00000000000E+00 0.  1.
        -13    1    1    2    0    0  0.10524302462E+02  0.98232921899E+01  0.58355909737E+01  0.15534224595E+02  0.00000000000E+00 0. -1.
         13    1    1    2    0    0 -0.10524302462E+02 -0.98232921899E+01 -0.20396126383E+02  0.24965175409E+02  0.00000000000E+00 0.  1.
<mgrwt>
<rscale>  0 0.37791430E+02</rscale>
<asrwt>0</asrwt>
<pdfrwt beam="2">  1        2 0.42353796E-02 0.37791430E+02</pdfrwt>
<pdfrwt beam="1">  1       -2 0.19952973E-02 0.37791430E+02</pdfrwt>
<totfact> 0.94898293E+05</totfact>
</mgrwt>
</event>
<event>
 4    1  0.4118611E+000  0.2702153E+02  0.7546771E-02  0.1633556E+00
         -4   -1    0    0    0  501 -0.00000000000E+00  0.00000000000E+00  0.40756273695E+02  0.40756273695E+02  0.00000000000E+00 0.  1.
          4   -1    0    0  501    0  0.00000000000E+00 -0.00000000000E+00 -0.44788383507E+01  0.44788383507E+01  0.00000000000E+00 0. -1.
        -13    1    1    2    0    0  0.31050833604E+01 -0.96229497490E+01  0.33139650425E+02  0.34647931177E+02  0.00000000000E+00 0.  1.
         13    1    1    2    0    0 -0.31050833604E+01  0.96229497490E+01  0.31377849193E+01  0.10587180869E+02  0.00000000000E+00 0. -1.
<mgrwt>
<rscale>  0 0.27021529E+02</rscale>
<asrwt>0</asrwt>
<pdfrwt beam="2">  1        4 0.68905208E-03 0.27021529E+02</pdfrwt>
<pdfrwt beam="1">  1       -4 0.62701957E-02 0.27021529E+02</pdfrwt>
<totfact> 0.62075711E+05</totfact>
</mgrwt>
</event>
<event>
 4    1  0.4118611E+000  0.1098991E+03  0.7546771E-02  0.1260757E+00
          2   -1    0    0  501    0  0.00000000000E+00  0.00000000000E+00  0.38217231935E+03  0.38217231935E+03  0.00000000000E+00 0.  1.
         -2   -1    0    0    0  501 -0.00000000000E+00 -0.00000000000E+00 -0.79007696781E+01  0.79007696781E+01  0.00000000000E+00 0. -1.
        -11    1    1    2    0    0 -0.78198969596E+01 -0.51290766710E+02  0.12289683090E+03  0.13339986725E+03  0.00000000000E+00 0. -1.
         11    1    1    2    0    0  0.78198969596E+01  0.51290766710E+02  0.25137471877E+03  0.25667322178E+03  0.00000000000E+00 0.  1.
<mgrwt>
<rscale>  0 0.10989914E+03</rscale>
<asrwt>0</asrwt>
<pdfrwt beam="1">  1        2 0.58795727E-01 0.10989914E+03</pdfrwt>
<pdfrwt beam="2">  1       -2 0.12155033E-02 0.10989914E+03</pdfrwt>
<totfact> 0.11895763E+05</totfact>
</mgrwt>
</event>
<event>
 4    1  0.4118611E+000  0.4525494E+02  0.7546771E-02  0.1472756E+00
          2   -1    0    0  501    0  0.00000000000E+00  0.00000000000E+00  0.30534739531E+02  0.30534739531E+02  0.00000000000E+00 0. -1.
         -2   -1    0    0    0  501 -0.00000000000E+00 -0.00000000000E+00 -0.16767863505E+02  0.16767863505E+02  0.00000000000E+00 0.  1.
        -11    1    1    2    0    0  0.47664766530E+01  0.21678718675E+02  0.11477321054E+02  0.24988298094E+02  0.00000000000E+00 0. -1.
         11    1    1    2    0    0 -0.47664766530E+01 -0.21678718675E+02  0.22895549727E+01  0.22314304942E+02  0.00000000000E+00 0.  1.
<mgrwt>
<rscale>  0 0.45254938E+02</rscale>
<asrwt>0</asrwt>
<pdfrwt beam="1">  1        2 0.46976522E-02 0.45254938E+02</pdfrwt>
<pdfrwt beam="2">  1       -2 0.25796713E-02 0.45254938E+02</pdfrwt>
<totfact> 0.60970676E+05</totfact>
</mgrwt>
</event>
<event>
 4    1  0.4118611E+000  0.3684881E+02  0.7546771E-02  0.1532770E+00
          2   -1    0    0  501    0  0.00000000000E+00  0.00000000000E+00  0.26492851507E+02  0.26492851507E+02  0.00000000000E+00 0.  1.
         -2   -1    0    0    0  501 -0.00000000000E+00 -0.00000000000E+00 -0.12813219915E+02  0.12813219915E+02  0.00000000000E+00 0. -1.
        -11    1    1    2    0    0  0.31126652555E+01 -0.11899889972E+02  0.21471788414E+02  0.24745378640E+02  0.00000000000E+00 0.  1.
         11    1    1    2    0    0 -0.31126652555E+01  0.11899889972E+02 -0.77921568221E+01  0.14560692782E+02  0.00000000000E+00 0. -1.
<mgrwt>
<rscale>  0 0.36848812E+02</rscale>
<asrwt>0</asrwt>
<pdfrwt beam="1">  1        2 0.40758233E-02 0.36848812E+02</pdfrwt>
<pdfrwt beam="2">  1       -2 0.19712646E-02 0.36848812E+02</pdfrwt>
<totfact> 0.10057239E+06</totfact>
</mgrwt>
</event>
<event>
 4    1  0.4118611E+000  0.5206125E+02  0.7546771E-02  0.1434531E+00
          2   -1    0    0  501    0  0.00000000000E+00  0.00000000000E+00  0.18624036233E+02  0.18624036233E+02  0.00000000000E+00 0.  1.
         -2   -1    0    0    0  501 -0.00000000000E+00 -0.00000000000E+00 -0.36382745330E+02  0.36382745330E+02  0.00000000000E+00 0. -1.
        -11    1    1    2    0    0  0.17684097539E+02 -0.59268597789E+01  0.10306736172E+02  0.21309241731E+02  0.00000000000E+00 0.  1.
         11    1    1    2    0    0 -0.17684097539E+02  0.59268597789E+01 -0.28065445269E+02  0.33697539833E+02  0.00000000000E+00 0. -1.
<mgrwt>
<rscale>  0 0.52061255E+02</rscale>
<asrwt>0</asrwt>
<pdfrwt beam="1">  1        2 0.28652364E-02 0.52061255E+02</pdfrwt>
<pdfrwt beam="2">  1       -2 0.55973454E-02 0.52061255E+02</pdfrwt>
<totfact> 0.39062610E+05</totfact>
</mgrwt>
</event>
<event>
 4    1  0.4118611E+000  0.2189181E+02  0.7546771E-02  0.1710130E+00
         -4   -1    0    0    0  501 -0.00000000000E+00  0.00000000000E+00  0.76521835619E+02  0.76521835619E+02  0.00000000000E+00 0.  1.
          4   -1    0    0  501    0  0.00000000000E+00 -0.00000000000E+00 -0.15657344943E+01  0.15657344943E+01  0.00000000000E+00 0. -1.
        -13    1    1    2    0    0  0.10111601757E+02 -0.34321118608E+01  0.28895788399E+02  0.30805688909E+02  0.00000000000E+00 0. -1.
         13    1    1    2    0    0 -0.10111601757E+02  0.34321118608E+01  0.46060312725E+02  0.47281881205E+02  0.00000000000E+00 0.  1.
<mgrwt>
<rscale>  0 0.21891814E+02</rscale>
<asrwt>0</asrwt>
<pdfrwt beam="2">  1        4 0.24088229E-03 0.21891814E+02</pdfrwt>
<pdfrwt beam="1">  1       -4 0.11772587E-01 0.21891814E+02</pdfrwt>
<totfact> 0.87134799E+05</totfact>
</mgrwt>
</event>
<event>
 4    1  0.4118611E+000  0.3453567E+02  0.7546771E-02  0.1552763E+00
          2   -1    0    0  501    0  0.00000000000E+00  0.00000000000E+00  0.79371227746E+01  0.79371227746E+01  0.00000000000E+00 0.  1.
         -2   -1    0    0    0  501 -0.00000000000E+00 -0.00000000000E+00 -0.37567540588E+02  0.37567540588E+02  0.00000000000E+00 0. -1.
        -11    1    1    2    0    0  0.10974995900E+02 -0.68815418752E+01  0.22937532674E+00  0.12956032056E+02  0.00000000000E+00 0.  1.
         11    1    1    2    0    0 -0.10974995900E+02  0.68815418752E+01 -0.29859793140E+02  0.32548631307E+02  0.00000000000E+00 0. -1.
<mgrwt>
<rscale>  0 0.34535673E+02</rscale>
<asrwt>0</asrwt>
<pdfrwt beam="1">  1        2 0.12210958E-02 0.34535673E+02</pdfrwt>
<pdfrwt beam="2">  1       -2 0.57796217E-02 0.34535673E+02</pdfrwt>
<totfact> 0.10222477E+06</totfact>
</mgrwt>
</event>
<event>
 4    1  0.4118611E+000  0.3194483E+02  0.7546771E-02  0.1577535E+00
         -2   -1    0    0    0  501 -0.00000000000E+00  0.00000000000E+00  0.91563349787E+01  0.91563349787E+01  0.00000000000E+00 0.  1.
          2   -1    0    0  501    0  0.00000000000E+00 -0.00000000000E+00 -0.27862464369E+02  0.27862464369E+02  0.00000000000E+00 0. -1.
        -11    1    1    2    0    0  0.69896053493E+00 -0.10030191392E+02  0.50288603508E+01  0.11242007010E+02  0.00000000000E+00 0.  1.
         11    1    1    2    0    0 -0.69896053493E+00  0.10030191392E+02 -0.23734989741E+02  0.25776792338E+02  0.00000000000E+00 0. -1.
<mgrwt>
<rscale>  0 0.31944831E+02</rscale>
<asrwt>0</asrwt>
<pdfrwt beam="2">  1        2 0.42865329E-02 0.31944831E+02</pdfrwt>
<pdfrwt beam="1">  1       -2 0.14086670E-02 0.31944831E+02</pdfrwt>
<totfact> 0.14388514E+06</totfact>
</mgrwt>
</event>
<event>
 4    1  0.4118611E+000  0.2875437E+02  0.7546771E-02  0.1612280E+00
         -2   -1    0    0    0  501 -0.00000000000E+00  0.00000000000E+00  0.21570926712E+01  0.21570926712E+01  0.00000000000E+00 0.  1.
          2   -1    0    0  501    0  0.00000000000E+00 -0.00000000000E+00 -0.95825011442E+02  0.95825011442E+02  0.00000000000E+00 0. -1.
        -13    1    1    2    0    0  0.55736999834E+01  0.11373219449E+02 -0.70017153683E+02  0.71153482431E+02  0.00000000000E+00 0. -1.
         13    1    1    2    0    0 -0.55736999834E+01 -0.11373219449E+02 -0.23650765088E+02  0.26828621682E+02  0.00000000000E+00 0.  1.
<mgrwt>
<rscale>  0 0.28754369E+02</rscale>
<asrwt>0</asrwt>
<pdfrwt beam="2">  1        2 0.14742311E-01 0.28754369E+02</pdfrwt>
<pdfrwt beam="1">  1       -2 0.33186037E-03 0.28754369E+02</pdfrwt>
<totfact> 0.22854339E+06</totfact>
</mgrwt>
</event>
<event>
 4    1  0.4118611E+000  0.2505277E+02  0.7546771E-02  0.1660245E+00
          2   -1    0    0  501    0  0.00000000000E+00  0.00000000000E+00  0.25545534424E+01  0.25545534424E+01  0.00000000000E+00 0. -1.
         -2   -1    0    0    0  501 -0.00000000000E+00 -0.00000000000E+00 -0.61423755014E+02  0.61423755014E+02  0.00000000000E+00 0.  1.
        -11    1    1    2    0    0 -0.57093751783E+01  0.95343646632E+01 -0.44195406216E+02  0.45571208071E+02  0.00000000000E+00 0.  1.
         11    1    1    2    0    0  0.57093751783E+01 -0.95343646632E+01 -0.14673795356E+02  0.18407100385E+02  0.00000000000E+00 0. -1.
<mgrwt>
<rscale>  0 0.25052766E+02</rscale>
<asrwt>0</asrwt>
<pdfrwt beam="1">  1        2 0.39300821E-03 0.25052766E+02</pdfrwt>
<pdfrwt beam="2">  1       -2 0.94498086E-02 0.25052766E+02</pdfrwt>
<totfact> 0.19892929E+06</totfact>
</mgrwt>
</event>
<event>
 4    1  0.4118611E+000  0.2860833E+02  0.7546771E-02  0.1614001E+00
          2   -1    0    0  501    0  0.00000000000E+00  0.00000000000E+00  0.58392933322E+02  0.58392933322E+02  0.00000000000E+00 0.  1.
         -2   -1    0    0    0  501 -0.00000000000E+00 -0.00000000000E+00 -0.35040059044E+01  0.35040059044E+01  0.00000000000E+00 0. -1.
        -13    1    1    2    0    0  0.12180047078E+02  0.48652044095E+01  0.15093856929E+02  0.19996206584E+02  0.00000000000E+00 0. -1.
         13    1    1    2    0    0 -0.12180047078E+02 -0.48652044095E+01  0.39795070489E+02  0.41900732642E+02  0.00000000000E+00 0.  1.
<mgrwt>
<rscale>  0 0.28608333E+02</rscale>
<asrwt>0</asrwt>
<pdfrwt beam="1">  1        2 0.89835275E-02 0.28608333E+02</pdfrwt>
<pdfrwt beam="2">  1       -2 0.53907787E-03 0.28608333E+02</pdfrwt>
<totfact> 0.20895484E+06</totfact>
</mgrwt>
</event>
<event>
 4    1  0.4118611E+000  0.3982384E+02  0.7546771E-02  0.1509512E+00
          2   -1    0    0  501    0  0.00000000000E+00  0.00000000000E+00  0.28345072541E+02  0.28345072541E+02  0.00000000000E+00 0. -1.
         -2   -1    0    0    0  501 -0.00000000000E+00 -0.00000000000E+00 -0.13987775097E+02  0.13987775097E+02  0.00000000000E+00 0.  1.
        -13    1    1    2    0    0  0.44697980432E+01  0.99576679708E+01  0.24881721912E+02  0.27170467999E+02  0.00000000000E+00 0. -1.
         13    1    1    2    0    0 -0.44697980432E+01 -0.99576679708E+01 -0.10524424468E+02  0.15162379640E+02  0.00000000000E+00 0.  1.
<mgrwt>
<rscale>  0 0.39823837E+02</rscale>
<asrwt>0</asrwt>
<pdfrwt beam="1">  1        2 0.43607804E-02 0.39823837E+02</pdfrwt>
<pdfrwt beam="2">  1       -2 0.21519654E-02 0.39823837E+02</pdfrwt>
<totfact> 0.83525780E+05</totfact>
</mgrwt>
</event>
<event>
 4    1  0.4118611E+000  0.2848725E+02  0.7546771E-02  0.1615438E+00
          2   -1    0    0  501    0  0.00000000000E+00  0.00000000000E+00  0.74172680529E+01  0.74172680529E+01  0.00000000000E+00 0. -1.
         -2   -1    0    0    0  501 -0.00000000000E+00 -0.00000000000E+00 -0.27352502299E+02  0.27352502299E+02  0.00000000000E+00 0.  1.
        -11    1    1    2    0    0  0.70677755480E+01  0.12031131596E+02 -0.13458283870E+02  0.19386257592E+02  0.00000000000E+00 0. -1.
         11    1    1    2    0    0 -0.70677755480E+01 -0.12031131596E+02 -0.64769503756E+01  0.15383512760E+02  0.00000000000E+00 0.  1.
<mgrwt>
<rscale>  0 0.28487249E+02</rscale>
<asrwt>0</asrwt>
<pdfrwt beam="1">  1        2 0.11411182E-02 0.28487249E+02</pdfrwt>
<pdfrwt beam="2">  1       -2 0.42080772E-02 0.28487249E+02</pdfrwt>
<totfact> 0.16541035E+06</totfact>
</mgrwt>
</event>
<event>
 4    1  0.4118611E+000  0.2971469E+02  0.7546771E-02  0.1601264E+00
         -2   -1    0    0    0  501 -0.00000000000E+00  0.00000000000E+00  0.30103729483E+01  0.30103729483E+01  0.00000000000E+00 0. -1.
          2   -1    0    0  501    0  0.00000000000E+00 -0.00000000000E+00 -0.73326688429E+02  0.73326688429E+02  0.00000000000E+00 0.  1.
        -13    1    1    2    0    0  0.13481429533E+02 -0.35199484374E+01 -0.21908064019E+02  0.25963479125E+02  0.00000000000E+00 0. -1.
         13    1    1    2    0    0 -0.13481429533E+02  0.35199484374E+01 -0.48408251463E+02  0.50373582252E+02  0.00000000000E+00 0.  1.
<mgrwt>
<rscale>  0 0.29714689E+02</rscale>
<asrwt>0</asrwt>
<pdfrwt beam="2">  1        2 0.11281028E-01 0.29714689E+02</pdfrwt>
<pdfrwt beam="1">  1       -2 0.46313435E-03 0.29714689E+02</pdfrwt>
<totfact> 0.19950794E+06</totfact>
</mgrwt>
</event>
<event>
 4    1  0.4118611E+000  0.4998782E+02  0.7546771E-02  0.1445407E+00
          3   -1    0    0  501    0  0.00000000000E+00  0.00000000000E+00  0.42998030855E+01  0.42998030855E+01  0.00000000000E+00 0.  1.
         -3   -1    0    0    0  501 -0.00000000000E+00 -0.00000000000E+00 -0.14528470505E+03  0.14528470505E+03  0.00000000000E+00 0. -1.
        -13    1    1    2    0    0  0.96707876420E+01  0.20829504865E+02 -0.10001038712E+03  0.10261320548E+03  0.00000000000E+00 0.  1.
         13    1    1    2    0    0 -0.96707876420E+01 -0.20829504865E+02 -0.40974514836E+02  0.46971302650E+02  0.00000000000E+00 0. -1.
<mgrwt>
<rscale>  0 0.49987823E+02</rscale>
<asrwt>0</asrwt>
<pdfrwt beam="1">  1        3 0.66150815E-03 0.49987823E+02</pdfrwt>
<pdfrwt beam="2">  1       -3 0.22351494E-01 0.49987823E+02</pdfrwt>
<totfact> 0.14992390E+05</totfact>
</mgrwt>
</event>
<event>
 4    1  0.4118611E+000  0.3594288E+02  0.7546771E-02  0.1540383E+00
         -2   -1    0    0    0  501 -0.00000000000E+00  0.00000000000E+00  0.19603734557E+02  0.19603734557E+02  0.00000000000E+00 0. -1.
          2   -1    0    0  501    0  0.00000000000E+00 -0.00000000000E+00 -0.16475057590E+02  0.16475057590E+02  0.00000000000E+00 0.  1.
        -11    1    1    2    0    0 -0.92443743281E+01 -0.14629830488E+02  0.64285119388E+01  0.18461206964E+02  0.00000000000E+00 0.  1.
         11    1    1    2    0    0  0.92443743281E+01  0.14629830488E+02 -0.32998349719E+01  0.17617585183E+02  0.00000000000E+00 0. -1.
<mgrwt>
<rscale>  0 0.35942880E+02</rscale>
<asrwt>0</asrwt>
<pdfrwt beam="2">  1        2 0.25346243E-02 0.35942880E+02</pdfrwt>
<pdfrwt beam="1">  1       -2 0.30159592E-02 0.35942880E+02</pdfrwt>
<totfact> 0.10097021E+06</totfact>
</mgrwt>
</event>
<event>
 4    1  0.4118611E+000  0.3584717E+02  0.7546771E-02  0.1541204E+00
         -2   -1    0    0    0  501 -0.00000000000E+00  0.00000000000E+00  0.29284341301E+01  0.29284341301E+01  0.00000000000E+00 0.  1.
          2   -1    0    0  501    0  0.00000000000E+00 -0.00000000000E+00 -0.10970193200E+03  0.10970193200E+03  0.00000000000E+00 0. -1.
        -11    1    1    2    0    0  0.98397402136E+01 -0.14784440418E+02 -0.60989198437E+02  0.63522299171E+02  0.00000000000E+00 0. -1.
         11    1    1    2    0    0 -0.98397402136E+01  0.14784440418E+02 -0.45784299435E+02  0.49108066961E+02  0.00000000000E+00 0.  1.
<mgrwt>
<rscale>  0 0.35847169E+02</rscale>
<asrwt>0</asrwt>
<pdfrwt beam="2">  1        2 0.16877216E-01 0.35847169E+02</pdfrwt>
<pdfrwt beam="1">  1       -2 0.45052843E-03 0.35847169E+02</pdfrwt>
<totfact> 0.13974529E+06</totfact>
</mgrwt>
</event>
<event>
 4    1  0.4118611E+000  0.2744478E+02  0.7546771E-02  0.1628182E+00
         -2   -1    0    0    0  501 -0.00000000000E+00  0.00000000000E+00  0.12016469576E+02  0.12016469576E+02  0.00000000000E+00 0.  1.
          2   -1    0    0  501    0  0.00000000000E+00 -0.00000000000E+00 -0.15670491789E+02  0.15670491789E+02  0.00000000000E+00 0. -1.
        -13    1    1    2    0    0  0.63649650657E+01  0.90414714340E+01  0.63713858550E+01  0.12761486735E+02  0.00000000000E+00 0.  1.
         13    1    1    2    0    0 -0.63649650657E+01 -0.90414714340E+01 -0.10025408068E+02  0.14925474629E+02  0.00000000000E+00 0. -1.
<mgrwt>
<rscale>  0 0.27444780E+02</rscale>
<asrwt>0</asrwt>
<pdfrwt beam="2">  1        2 0.24108449E-02 0.27444780E+02</pdfrwt>
<pdfrwt beam="1">  1       -2 0.18486876E-02 0.27444780E+02</pdfrwt>
<totfact> 0.19509929E+06</totfact>
</mgrwt>
</event>
<event>
 4    1  0.4118611E+000  0.2956432E+02  0.7546771E-02  0.1602955E+00
          2   -1    0    0  501    0  0.00000000000E+00  0.00000000000E+00  0.50809429337E+02  0.50809429337E+02  0.00000000000E+00 0.  1.
         -2   -1    0    0    0  501 -0.00000000000E+00 -0.00000000000E+00 -0.43006245070E+01  0.43006245070E+01  0.00000000000E+00 0. -1.
        -13    1    1    2    0    0  0.27068912453E+00  0.11305612008E+02  0.55092359055E+01  0.12579420326E+02  0.00000000000E+00 0. -1.
         13    1    1    2    0    0 -0.27068912453E+00 -0.11305612008E+02  0.40999568925E+02  0.42530633518E+02  0.00000000000E+00 0.  1.
<mgrwt>
<rscale>  0 0.29564322E+02</rscale>
<asrwt>0</asrwt>
<pdfrwt beam="1">  1        2 0.78168348E-02 0.29564322E+02</pdfrwt>
<pdfrwt beam="2">  1       -2 0.66163458E-03 0.29564322E+02</pdfrwt>
<totfact> 0.18877287E+06</totfact>
</mgrwt>
</event>
<event>
 4    1  0.4118611E+000  0.4685645E+02  0.7546771E-02  0.1463074E+00
          2   -1    0    0  501    0  0.00000000000E+00  0.00000000000E+00  0.48745845075E+02  0.48745845075E+02  0.00000000000E+00 0.  1.
         -2   -1    0    0    0  501 -0.00000000000E+00 -0.00000000000E+00 -0.11260070948E+02  0.11260070948E+02  0.00000000000E+00 0. -1.
        -11    1    1    2    0    0 -0.24999283069E+01 -0.11037643468E+02 -0.75273410154E+01  0.13591912214E+02  0.00000000000E+00 0. -1.
         11    1    1    2    0    0  0.24999283069E+01  0.11037643468E+02  0.45013115142E+02  0.46414003809E+02  0.00000000000E+00 0.  1.
<mgrwt>
<rscale>  0 0.46856448E+02</rscale>
<asrwt>0</asrwt>
<pdfrwt beam="1">  1        2 0.74993607E-02 0.46856448E+02</pdfrwt>
<pdfrwt beam="2">  1       -2 0.17323186E-02 0.46856448E+02</pdfrwt>
<totfact> 0.60292665E+05</totfact>
</mgrwt>
</event>
<event>
 4    1  0.4118611E+000  0.2111903E+02  0.7546771E-02  0.1723949E+00
          1   -1    0    0  501    0  0.00000000000E+00  0.00000000000E+00  0.13137726723E+02  0.13137726723E+02  0.00000000000E+00 0. -1.
         -1   -1    0    0    0  501 -0.00000000000E+00 -0.00000000000E+00 -0.84872629705E+01  0.84872629705E+01  0.00000000000E+00 0.  1.
        -13    1    1    2    0    0 -0.70307652850E+01  0.71946906742E+01  0.56127748169E+01  0.11519482433E+02  0.00000000000E+00 0. -1.
         13    1    1    2    0    0  0.70307652850E+01 -0.71946906742E+01 -0.96231106472E+00  0.10105507260E+02  0.00000000000E+00 0.  1.
<mgrwt>
<rscale>  0 0.21119029E+02</rscale>
<asrwt>0</asrwt>
<pdfrwt beam="1">  1        1 0.20211887E-02 0.21119029E+02</pdfrwt>
<pdfrwt beam="2">  1       -1 0.13057328E-02 0.21119029E+02</pdfrwt>
<totfact> 0.34502568E+06</totfact>
</mgrwt>
</event>
<event>
 4    1  0.4118611E+000  0.2746111E+02  0.7546771E-02  0.1627977E+00
          1   -1    0    0  501    0  0.00000000000E+00  0.00000000000E+00  0.17898278063E+02  0.17898278063E+02  0.00000000000E+00 0.  1.
         -1   -1    0    0    0  501 -0.00000000000E+00 -0.00000000000E+00 -0.10533309001E+02  0.10533309001E+02  0.00000000000E+00 0. -1.
        -11    1    1    2    0    0  0.12741812430E+02 -0.40902857453E+01  0.50079269172E+00  0.13391602399E+02  0.00000000000E+00 0.  1.
         11    1    1    2    0    0 -0.12741812430E+02  0.40902857453E+01  0.68641763710E+01  0.15039984665E+02  0.00000000000E+00 0. -1.
<mgrwt>
<rscale>  0 0.27461107E+02</rscale>
<asrwt>0</asrwt>
<pdfrwt beam="1">  1        1 0.27535812E-02 0.27461107E+02</pdfrwt>
<pdfrwt beam="2">  1       -1 0.16205091E-02 0.27461107E+02</pdfrwt>
<totfact> 0.18988517E+06</totfact>
</mgrwt>
</event>
<event>
 4    1  0.4118611E+000  0.2204566E+02  0.7546771E-02  0.1707463E+00
         -1   -1    0    0    0  501 -0.00000000000E+00  0.00000000000E+00  0.21300263537E+01  0.21300263537E+01  0.00000000000E+00 0.  1.
          1   -1    0    0  501    0  0.00000000000E+00 -0.00000000000E+00 -0.57042861539E+02  0.57042861539E+02  0.00000000000E+00 0. -1.
        -11    1    1    2    0    0 -0.31540091071E+01 -0.10434690251E+02 -0.31844141915E+02  0.33658281424E+02  0.00000000000E+00 0. -1.
         11    1    1    2    0    0  0.31540091071E+01  0.10434690251E+02 -0.23068693270E+02  0.25514606469E+02  0.00000000000E+00 0.  1.
<mgrwt>
<rscale>  0 0.22045662E+02</rscale>
<asrwt>0</asrwt>
<pdfrwt beam="2">  1        1 0.87758252E-02 0.22045662E+02</pdfrwt>
<pdfrwt beam="1">  1       -1 0.32769635E-03 0.22045662E+02</pdfrwt>
<totfact> 0.33865451E+06</totfact>
</mgrwt>
</event>
<event>
 4    1  0.4118611E+000  0.3180907E+02  0.7546771E-02  0.1578912E+00
         -2   -1    0    0    0  501 -0.00000000000E+00  0.00000000000E+00  0.16388255476E+01  0.16388255476E+01  0.00000000000E+00 0.  1.
          2   -1    0    0  501    0  0.00000000000E+00 -0.00000000000E+00 -0.15435096744E+03  0.15435096744E+03  0.00000000000E+00 0. -1.
        -13    1    1    2    0    0  0.15097472636E+02  0.39707130899E+01 -0.61438041901E+02  0.63390324460E+02  0.00000000000E+00 0. -1.
         13    1    1    2    0    0 -0.15097472636E+02 -0.39707130899E+01 -0.91274099986E+02  0.92599468523E+02  0.00000000000E+00 0.  1.
<mgrwt>
<rscale>  0 0.31809075E+02</rscale>
<asrwt>0</asrwt>
<pdfrwt beam="2">  1        2 0.23746300E-01 0.31809075E+02</pdfrwt>
<pdfrwt beam="1">  1       -2 0.25212704E-03 0.31809075E+02</pdfrwt>
<totfact> 0.20428711E+06</totfact>
</mgrwt>
</event>
<event>
 4    1  0.4118611E+000  0.5507484E+02  0.7546771E-02  0.1419745E+00
         -2   -1    0    0    0  501 -0.00000000000E+00  0.00000000000E+00  0.47010137493E+02  0.47010137493E+02  0.00000000000E+00 0. -1.
          2   -1    0    0  501    0  0.00000000000E+00 -0.00000000000E+00 -0.16130763997E+02  0.16130763997E+02  0.00000000000E+00 0.  1.
        -13    1    1    2    0    0  0.24958250945E+02 -0.39947636007E+01  0.27968992544E+02  0.37697970375E+02  0.00000000000E+00 0. -1.
         13    1    1    2    0    0 -0.24958250945E+02  0.39947636007E+01  0.29103809529E+01  0.25442931115E+02  0.00000000000E+00 0.  1.
<mgrwt>
<rscale>  0 0.55074838E+02</rscale>
<asrwt>0</asrwt>
<pdfrwt beam="2">  1        2 0.24816560E-02 0.55074838E+02</pdfrwt>
<pdfrwt beam="1">  1       -2 0.72323288E-02 0.55074838E+02</pdfrwt>
<totfact> 0.32678272E+05</totfact>
</mgrwt>
</event>
<event>
 4    1  0.4118611E+000  0.4160397E+02  0.7546771E-02  0.1496729E+00
         -2   -1    0    0    0  501 -0.00000000000E+00  0.00000000000E+00  0.23590692718E+02  0.23590692718E+02  0.00000000000E+00 0. -1.
          2   -1    0    0  501    0  0.00000000000E+00 -0.00000000000E+00 -0.18342940418E+02  0.18342940418E+02  0.00000000000E+00 0.  1.
        -11    1    1    2    0    0  0.19275349610E+02  0.77946423124E+01  0.32825985016E+01  0.21049251870E+02  0.00000000000E+00 0. -1.
         11    1    1    2    0    0 -0.19275349610E+02 -0.77946423124E+01  0.19651537988E+01  0.20884381265E+02  0.00000000000E+00 0.  1.
<mgrwt>
<rscale>  0 0.41603974E+02</rscale>
<asrwt>0</asrwt>
<pdfrwt beam="2">  1        2 0.28219908E-02 0.41603974E+02</pdfrwt>
<pdfrwt beam="1">  1       -2 0.36293373E-02 0.41603974E+02</pdfrwt>
<totfact> 0.70451912E+05</totfact>
</mgrwt>
</event>
<event>
 4    1  0.4118611E+000  0.2486710E+02  0.7546771E-02  0.1662918E+00
         -2   -1    0    0    0  501 -0.00000000000E+00  0.00000000000E+00  0.83815470440E+01  0.83815470440E+01  0.00000000000E+00 0. -1.
          2   -1    0    0  501    0  0.00000000000E+00 -0.00000000000E+00 -0.18444468700E+02  0.18444468700E+02  0.00000000000E+00 0.  1.
        -11    1    1    2    0    0  0.11401139058E+02 -0.85524352176E+00 -0.10302663244E+02  0.15390330836E+02  0.00000000000E+00 0. -1.
         11    1    1    2    0    0 -0.11401139058E+02  0.85524352176E+00  0.23974158768E+00  0.11435684909E+02  0.00000000000E+00 0.  1.
<mgrwt>
<rscale>  0 0.24867101E+02</rscale>
<asrwt>0</asrwt>
<pdfrwt beam="2">  1        2 0.28376105E-02 0.24867101E+02</pdfrwt>
<pdfrwt beam="1">  1       -2 0.12894688E-02 0.24867101E+02</pdfrwt>
<totfact> 0.25051214E+06</totfact>
</mgrwt>
</event>
<event>
 4    1  0.4118611E+000  0.2820423E+02  0.7546771E-02  0.1618831E+00
          4   -1    0    0  501    0  0.00000000000E+00  0.00000000000E+00  0.16200096854E+02  0.16200096854E+02  0.00000000000E+00 0. -1.
         -4   -1    0    0    0  501 -0.00000000000E+00 -0.00000000000E+00 -0.12275834211E+02  0.12275834211E+02  0.00000000000E+00 0.  1.
        -13    1    1    2    0    0  0.11926585947E+02  0.33624919483E+01  0.87589876483E+01  0.15174639010E+02  0.00000000000E+00 0. -1.
         13    1    1    2    0    0 -0.11926585947E+02 -0.33624919483E+01 -0.48347250058E+01  0.13301292055E+02  0.00000000000E+00 0.  1.
<mgrwt>
<rscale>  0 0.28204234E+02</rscale>
<asrwt>0</asrwt>
<pdfrwt beam="1">  1        4 0.24923226E-02 0.28204234E+02</pdfrwt>
<pdfrwt beam="2">  1       -4 0.18885899E-02 0.28204234E+02</pdfrwt>
<totfact> 0.60123218E+05</totfact>
</mgrwt>
</event>
<event>
 4    1  0.4118611E+000  0.5720568E+02  0.7546771E-02  0.1409947E+00
          2   -1    0    0  501    0  0.00000000000E+00  0.00000000000E+00  0.18489509271E+03  0.18489509271E+03  0.00000000000E+00 0. -1.
         -2   -1    0    0    0  501 -0.00000000000E+00 -0.00000000000E+00 -0.44247929819E+01  0.44247929819E+01  0.00000000000E+00 0.  1.
        -13    1    1    2    0    0  0.98603103107E+01  0.25270584610E+02  0.12025731833E+03  0.12327875234E+03  0.00000000000E+00 0. -1.
         13    1    1    2    0    0 -0.98603103107E+01 -0.25270584610E+02  0.60212981401E+02  0.66041133358E+02  0.00000000000E+00 0.  1.
<mgrwt>
<rscale>  0 0.57205682E+02</rscale>
<asrwt>0</asrwt>
<pdfrwt beam="1">  1        2 0.28445393E-01 0.57205682E+02</pdfrwt>
<pdfrwt beam="2">  1       -2 0.68073752E-03 0.57205682E+02</pdfrwt>
<totfact> 0.51045503E+05</totfact>
</mgrwt>
</event>
<event>
 4    1  0.4118611E+000  0.3588912E+02  0.7546771E-02  0.1540844E+00
         -2   -1    0    0    0  501 -0.00000000000E+00  0.00000000000E+00  0.16842705049E+02  0.16842705049E+02  0.00000000000E+00 0.  1.
          2   -1    0    0  501    0  0.00000000000E+00 -0.00000000000E+00 -0.19118502798E+02  0.19118502798E+02  0.00000000000E+00 0. -1.
        -13    1    1    2    0    0 -0.13109794323E+02  0.65007568511E+01 -0.11545326646E+02  0.18639235880E+02  0.00000000000E+00 0. -1.
         13    1    1    2    0    0  0.13109794323E+02 -0.65007568511E+01  0.92695288976E+01  0.17321971967E+02  0.00000000000E+00 0.  1.
<mgrwt>
<rscale>  0 0.35889124E+02</rscale>
<asrwt>0</asrwt>
<pdfrwt beam="2">  1        2 0.29413081E-02 0.35889124E+02</pdfrwt>
<pdfrwt beam="1">  1       -2 0.25911854E-02 0.35889124E+02</pdfrwt>
<totfact> 0.10316468E+06</totfact>
</mgrwt>
</event>
<event>
 4    1  0.4118611E+000  0.2499273E+02  0.7546771E-02  0.1661106E+00
         -2   -1    0    0    0  501 -0.00000000000E+00  0.00000000000E+00  0.39965905117E+01  0.39965905117E+01  0.00000000000E+00 0. -1.
          2   -1    0    0  501    0  0.00000000000E+00 -0.00000000000E+00 -0.39073086838E+02  0.39073086838E+02  0.00000000000E+00 0.  1.
        -11    1    1    2    0    0  0.69816917903E+01 -0.75048659169E+01 -0.52204015371E+01  0.11503026771E+02  0.00000000000E+00 0. -1.
         11    1    1    2    0    0 -0.69816917903E+01  0.75048659169E+01 -0.29856094789E+02  0.31566650578E+02  0.00000000000E+00 0.  1.
<mgrwt>
<rscale>  0 0.24992729E+02</rscale>
<asrwt>0</asrwt>
<pdfrwt beam="2">  1        2 0.60112441E-02 0.24992729E+02</pdfrwt>
<pdfrwt beam="1">  1       -2 0.61486008E-03 0.24992729E+02</pdfrwt>
<totfact> 0.26931381E+06</totfact>
</mgrwt>
</event>
<event>
 4    1  0.4118611E+000  0.2509515E+02  0.7546771E-02  0.1659639E+00
          2   -1    0    0  501    0  0.00000000000E+00  0.00000000000E+00  0.61673221768E+01  0.61673221768E+01  0.00000000000E+00 0.  1.
         -2   -1    0    0    0  501 -0.00000000000E+00 -0.00000000000E+00 -0.25528366011E+02  0.25528366011E+02  0.00000000000E+00 0. -1.
        -13    1    1    2    0    0  0.22611095787E+01  0.10792717384E+02 -0.21185948071E+01  0.11228704690E+02  0.00000000000E+00 0.  1.
         13    1    1    2    0    0 -0.22611095787E+01 -0.10792717384E+02 -0.17242449027E+02  0.20466983498E+02  0.00000000000E+00 0. -1.
<mgrwt>
<rscale>  0 0.25095152E+02</rscale>
<asrwt>0</asrwt>
<pdfrwt beam="1">  1        2 0.94881882E-03 0.25095152E+02</pdfrwt>
<pdfrwt beam="2">  1       -2 0.39274408E-02 0.25095152E+02</pdfrwt>
<totfact> 0.22181943E+06</totfact>
</mgrwt>
</event>
<event>
 4    1  0.4118611E+000  0.3254623E+02  0.7546771E-02  0.1571537E+00
          2   -1    0    0  501    0  0.00000000000E+00  0.00000000000E+00  0.66892111979E+02  0.66892111979E+02  0.00000000000E+00 0. -1.
         -2   -1    0    0    0  501 -0.00000000000E+00 -0.00000000000E+00 -0.39588260540E+01  0.39588260540E+01  0.00000000000E+00 0.  1.
        -11    1    1    2    0    0 -0.14110522099E+02 -0.59316958011E+01  0.19439729385E+02  0.24742573179E+02  0.00000000000E+00 0. -1.
         11    1    1    2    0    0  0.14110522099E+02  0.59316958011E+01  0.43493556540E+02  0.46108364854E+02  0.00000000000E+00 0.  1.
<mgrwt>
<rscale>  0 0.32546228E+02</rscale>
<asrwt>0</asrwt>
<pdfrwt beam="1">  1        2 0.10291093E-01 0.32546228E+02</pdfrwt>
<pdfrwt beam="2">  1       -2 0.60905021E-03 0.32546228E+02</pdfrwt>
<totfact> 0.15765654E+06</totfact>
</mgrwt>
</event>
<event>
 4    1  0.4118611E+000  0.2641537E+02  0.7546771E-02  0.1641467E+00
          4   -1    0    0  501    0  0.00000000000E+00  0.00000000000E+00  0.55485225607E+01  0.55485225607E+01  0.00000000000E+00 0. -1.
         -4   -1    0    0    0  501 -0.00000000000E+00 -0.00000000000E+00 -0.31439534430E+02  0.31439534430E+02  0.00000000000E+00 0.  1.
        -11    1    1    2    0    0 -0.92979717949E+01 -0.90171178378E+01 -0.16565158460E+02  0.21027723804E+02  0.00000000000E+00 0. -1.
         11    1    1    2    0    0  0.92979717949E+01  0.90171178378E+01 -0.93258534094E+01  0.15960333186E+02  0.00000000000E+00 0.  1.
<mgrwt>
<rscale>  0 0.26415372E+02</rscale>
<asrwt>0</asrwt>
<pdfrwt beam="1">  1        4 0.85361887E-03 0.26415372E+02</pdfrwt>
<pdfrwt beam="2">  1       -4 0.48368514E-02 0.26415372E+02</pdfrwt>
<totfact> 0.67244276E+05</totfact>
</mgrwt>
</event>
<event>
 4    1  0.4118611E+000  0.2760268E+02  0.7546771E-02  0.1626207E+00
         -2   -1    0    0    0  501 -0.00000000000E+00  0.00000000000E+00  0.62923930492E+02  0.62923930492E+02  0.00000000000E+00 0. -1.
          2   -1    0    0  501    0  0.00000000000E+00 -0.00000000000E+00 -0.30270996322E+01  0.30270996322E+01  0.00000000000E+00 0.  1.
        -13    1    1    2    0    0  0.13011804523E+02  0.41118429854E+01  0.34881431712E+02  0.37455688326E+02  0.00000000000E+00 0.  1.
         13    1    1    2    0    0 -0.13011804523E+02 -0.41118429854E+01  0.25015399147E+02  0.28495341798E+02  0.00000000000E+00 0. -1.
<mgrwt>
<rscale>  0 0.27602682E+02</rscale>
<asrwt>0</asrwt>
<pdfrwt beam="2">  1        2 0.46570768E-03 0.27602682E+02</pdfrwt>
<pdfrwt beam="1">  1       -2 0.96806037E-02 0.27602682E+02</pdfrwt>
<totfact> 0.15889416E+06</totfact>
</mgrwt>
</event>
<event>
 4    1  0.4118611E+000  0.3959929E+02  0.7546771E-02  0.1511181E+00
         -2   -1    0    0    0  501 -0.00000000000E+00  0.00000000000E+00  0.59219079309E+01  0.59219079309E+01  0.00000000000E+00 0.  1.
          2   -1    0    0  501    0  0.00000000000E+00 -0.00000000000E+00 -0.66199265865E+02  0.66199265865E+02  0.00000000000E+00 0. -1.
        -11    1    1    2    0    0 -0.77299445715E+01  0.82156670696E+01 -0.59774385462E+02  0.60829486155E+02  0.00000000000E+00 0. -1.
         11    1    1    2    0    0  0.77299445715E+01 -0.82156670696E+01 -0.50297247204E+00  0.11291687641E+02  0.00000000000E+00 0.  1.
<mgrwt>
<rscale>  0 0.39599291E+02</rscale>
<asrwt>0</asrwt>
<pdfrwt beam="2">  1        2 0.10184503E-01 0.39599291E+02</pdfrwt>
<pdfrwt beam="1">  1       -2 0.91106274E-03 0.39599291E+02</pdfrwt>
<totfact> 0.97554717E+05</totfact>
</mgrwt>
</event>
<event>
 4    1  0.4118611E+000  0.2371075E+02  0.7546771E-02  0.1680241E+00
         -1   -1    0    0    0  501 -0.00000000000E+00  0.00000000000E+00  0.18251360515E+01  0.18251360515E+01  0.00000000000E+00 0.  1.
          1   -1    0    0  501    0  0.00000000000E+00 -0.00000000000E+00 -0.77007942896E+02  0.77007942896E+02  0.00000000000E+00 0. -1.
        -13    1    1    2    0    0 -0.71422871079E+01  0.88400014880E+01 -0.48813258346E+02  0.50118779732E+02  0.00000000000E+00 0. -1.
         13    1    1    2    0    0  0.71422871079E+01 -0.88400014880E+01 -0.26369548499E+02  0.28714299216E+02  0.00000000000E+00 0.  1.
<mgrwt>
<rscale>  0 0.23710755E+02</rscale>
<asrwt>0</asrwt>
<pdfrwt beam="2">  1        1 0.11847375E-01 0.23710755E+02</pdfrwt>
<pdfrwt beam="1">  1       -1 0.28079017E-03 0.23710755E+02</pdfrwt>
<totfact> 0.29478929E+06</totfact>
</mgrwt>
</event>
<event>
 4    1  0.4118611E+000  0.2294416E+02  0.7546771E-02  0.1692417E+00
          4   -1    0    0  501    0  0.00000000000E+00  0.00000000000E+00  0.85359404384E+02  0.85359404384E+02  0.00000000000E+00 0.  1.
         -4   -1    0    0    0  501 -0.00000000000E+00 -0.00000000000E+00 -0.15418179531E+01  0.15418179531E+01  0.00000000000E+00 0. -1.
        -13    1    1    2    0    0 -0.10792630235E+01  0.10772726026E+02  0.27540087204E+02  0.29591769766E+02  0.00000000000E+00 0. -1.
         13    1    1    2    0    0  0.10792630235E+01 -0.10772726026E+02  0.56277499227E+02  0.57309452571E+02  0.00000000000E+00 0.  1.
<mgrwt>
<rscale>  0 0.22944164E+02</rscale>
<asrwt>0</asrwt>
<pdfrwt beam="1">  1        4 0.13132212E-01 0.22944164E+02</pdfrwt>
<pdfrwt beam="2">  1       -4 0.23720283E-03 0.22944164E+02</pdfrwt>
<totfact> 0.76949295E+05</totfact>
</mgrwt>
</event>
<event>
 4    1  0.4118611E+000  0.2140738E+02  0.7546771E-02  0.1718707E+00
          4   -1    0    0  501    0  0.00000000000E+00  0.00000000000E+00  0.19894863411E+02  0.19894863411E+02  0.00000000000E+00 0.  1.
         -4   -1    0    0    0  501 -0.00000000000E+00 -0.00000000000E+00 -0.57587236593E+01  0.57587236593E+01  0.00000000000E+00 0. -1.
        -11    1    1    2    0    0 -0.11594884150E+01  0.10640326844E+02  0.69605388822E+01  0.12767539710E+02  0.00000000000E+00 0. -1.
         11    1    1    2    0    0  0.11594884150E+01 -0.10640326844E+02  0.71756008693E+01  0.12886047360E+02  0.00000000000E+00 0.  1.
<mgrwt>
<rscale>  0 0.21407384E+02</rscale>
<asrwt>0</asrwt>
<pdfrwt beam="1">  1        4 0.30607482E-02 0.21407384E+02</pdfrwt>
<pdfrwt beam="2">  1       -4 0.88595750E-03 0.21407384E+02</pdfrwt>
<totfact> 0.11028083E+06</totfact>
</mgrwt>
</event>
<event>
 4    1  0.4118611E+000  0.5007795E+02  0.7546771E-02  0.1444922E+00
         -4   -1    0    0    0  501 -0.00000000000E+00  0.00000000000E+00  0.29133338753E+02  0.29133338753E+02  0.00000000000E+00 0.  1.
          4   -1    0    0  501    0  0.00000000000E+00 -0.00000000000E+00 -0.21520026315E+02  0.21520026315E+02  0.00000000000E+00 0. -1.
        -13    1    1    2    0    0  0.18204872182E+02 -0.16990186720E+02  0.64571473137E+01  0.25725057189E+02  0.00000000000E+00 0. -1.
         13    1    1    2    0    0 -0.18204872182E+02  0.16990186720E+02  0.11561651235E+01  0.24928307879E+02  0.00000000000E+00 0.  1.
<mgrwt>
<rscale>  0 0.50077948E+02</rscale>
<asrwt>0</asrwt>
<pdfrwt beam="2">  1        4 0.33107733E-02 0.50077948E+02</pdfrwt>
<pdfrwt beam="1">  1       -4 0.44820521E-02 0.50077948E+02</pdfrwt>
<totfact> 0.14332968E+05</totfact>
</mgrwt>
</event>
<event>
 4    1  0.4118611E+000  0.2946085E+02  0.7546771E-02  0.1604126E+00
         -2   -1    0    0    0  501 -0.00000000000E+00  0.00000000000E+00  0.80133523020E+01  0.80133523020E+01  0.00000000000E+00 0. -1.
          2   -1    0    0  501    0  0.00000000000E+00 -0.00000000000E+00 -0.27077989469E+02  0.27077989469E+02  0.00000000000E+00 0.  1.
        -11    1    1    2    0    0  0.14421049270E+02  0.19973071291E+01 -0.12203603076E+02  0.18996942540E+02  0.00000000000E+00 0. -1.
         11    1    1    2    0    0 -0.14421049270E+02 -0.19973071291E+01 -0.68610340913E+01  0.16094399232E+02  0.00000000000E+00 0.  1.
<mgrwt>
<rscale>  0 0.29460853E+02</rscale>
<asrwt>0</asrwt>
<pdfrwt beam="2">  1        2 0.41658445E-02 0.29460853E+02</pdfrwt>
<pdfrwt beam="1">  1       -2 0.12328234E-02 0.29460853E+02</pdfrwt>
<totfact> 0.17440130E+06</totfact>
</mgrwt>
</event>
<event>
 4    1  0.4118611E+000  0.2454202E+02  0.7546771E-02  0.1667668E+00
          2   -1    0    0  501    0  0.00000000000E+00  0.00000000000E+00  0.12159788240E+01  0.12159788240E+01  0.00000000000E+00 0.  1.
         -2   -1    0    0    0  501 -0.00000000000E+00 -0.00000000000E+00 -0.12383250745E+03  0.12383250745E+03  0.00000000000E+00 0. -1.
        -11    1    1    2    0    0 -0.20287066453E+01 -0.12098952586E+02 -0.59890691240E+02  0.61134239192E+02  0.00000000000E+00 0. -1.
         11    1    1    2    0    0  0.20287066453E+01  0.12098952586E+02 -0.62725837383E+02  0.63914247079E+02  0.00000000000E+00 0.  1.
<mgrwt>
<rscale>  0 0.24542022E+02</rscale>
<asrwt>0</asrwt>
<pdfrwt beam="1">  1        2 0.18707365E-03 0.24542022E+02</pdfrwt>
<pdfrwt beam="2">  1       -2 0.19051157E-01 0.24542022E+02</pdfrwt>
<totfact> 0.17846494E+06</totfact>
</mgrwt>
</event>
<event>
 4    1  0.4118611E+000  0.3239381E+02  0.7546771E-02  0.1573042E+00
         -2   -1    0    0    0  501 -0.00000000000E+00  0.00000000000E+00  0.51293185749E+01  0.51293185749E+01  0.00000000000E+00 0. -1.
          2   -1    0    0  501    0  0.00000000000E+00 -0.00000000000E+00 -0.51145146668E+02  0.51145146668E+02  0.00000000000E+00 0.  1.
        -11    1    1    2    0    0  0.23581420764E+01 -0.15974307656E+02 -0.25205597748E+02  0.29934286311E+02  0.00000000000E+00 0.  1.
         11    1    1    2    0    0 -0.23581420764E+01  0.15974307656E+02 -0.20810230345E+02  0.26340178932E+02  0.00000000000E+00 0. -1.
<mgrwt>
<rscale>  0 0.32393811E+02</rscale>
<asrwt>0</asrwt>
<pdfrwt beam="2">  1        2 0.78684839E-02 0.32393811E+02</pdfrwt>
<pdfrwt beam="1">  1       -2 0.78912596E-03 0.32393811E+02</pdfrwt>
<totfact> 0.15183079E+06</totfact>
</mgrwt>
</event>
<event>
 4    1  0.4118611E+000  0.4723209E+02  0.7546771E-02  0.1460870E+00
         -2   -1    0    0    0  501 -0.00000000000E+00  0.00000000000E+00  0.80246130751E+02  0.80246130751E+02  0.00000000000E+00 0.  1.
          2   -1    0    0  501    0  0.00000000000E+00 -0.00000000000E+00 -0.69500869910E+01  0.69500869910E+01  0.00000000000E+00 0. -1.
        -13    1    1    2    0    0 -0.11761299513E+01 -0.22875127011E+02  0.26032758637E+02  0.34675052122E+02  0.00000000000E+00 0. -1.
         13    1    1    2    0    0  0.11761299513E+01  0.22875127011E+02  0.47263285123E+02  0.52521165620E+02  0.00000000000E+00 0.  1.
<mgrwt>
<rscale>  0 0.47232090E+02</rscale>
<asrwt>0</asrwt>
<pdfrwt beam="2">  1        2 0.10692442E-02 0.47232090E+02</pdfrwt>
<pdfrwt beam="1">  1       -2 0.12345558E-01 0.47232090E+02</pdfrwt>
<totfact> 0.42682334E+05</totfact>
</mgrwt>
</event>
<event>
 4    1  0.4118611E+000  0.5148893E+02  0.7546771E-02  0.1437472E+00
         -2   -1    0    0    0  501 -0.00000000000E+00  0.00000000000E+00  0.43428553424E+02  0.43428553424E+02  0.00000000000E+00 0.  1.
          2   -1    0    0  501    0  0.00000000000E+00 -0.00000000000E+00 -0.15261328290E+02  0.15261328290E+02  0.00000000000E+00 0. -1.
        -13    1    1    2    0    0  0.15892829158E+01  0.23297272928E+02  0.17284810185E+01  0.23415302533E+02  0.00000000000E+00 0. -1.
         13    1    1    2    0    0 -0.15892829158E+01 -0.23297272928E+02  0.26438744115E+02  0.35274579181E+02  0.00000000000E+00 0.  1.
<mgrwt>
<rscale>  0 0.51488927E+02</rscale>
<asrwt>0</asrwt>
<pdfrwt beam="2">  1        2 0.23478967E-02 0.51488927E+02</pdfrwt>
<pdfrwt beam="1">  1       -2 0.66813159E-02 0.51488927E+02</pdfrwt>
<totfact> 0.38937748E+05</totfact>
</mgrwt>
</event>
<event>
 4    1  0.4118611E+000  0.3812064E+02  0.7546771E-02  0.1522515E+00
          2   -1    0    0  501    0  0.00000000000E+00  0.00000000000E+00  0.90054189525E+02  0.90054189525E+02  0.00000000000E+00 0. -1.
         -2   -1    0    0    0  501 -0.00000000000E+00 -0.00000000000E+00 -0.40341899465E+01  0.40341899465E+01  0.00000000000E+00 0.  1.
        -13    1    1    2    0    0 -0.15565210235E+02  0.68638488896E+01  0.21791232004E+02  0.27644999249E+02  0.00000000000E+00 0.  1.
         13    1    1    2    0    0  0.15565210235E+02 -0.68638488896E+01  0.64228767575E+02  0.66443380223E+02  0.00000000000E+00 0. -1.
<mgrwt>
<rscale>  0 0.38120635E+02</rscale>
<asrwt>0</asrwt>
<pdfrwt beam="1">  1        2 0.13854489E-01 0.38120635E+02</pdfrwt>
<pdfrwt beam="2">  1       -2 0.62064467E-03 0.38120635E+02</pdfrwt>
<totfact> 0.11460579E+06</totfact>
</mgrwt>
</event>
<event>
 4    1  0.4118611E+000  0.3404001E+02  0.7546771E-02  0.1557295E+00
          2   -1    0    0  501    0  0.00000000000E+00  0.00000000000E+00  0.28678938250E+01  0.28678938250E+01  0.00000000000E+00 0. -1.
         -2   -1    0    0    0  501 -0.00000000000E+00 -0.00000000000E+00 -0.10100814076E+03  0.10100814076E+03  0.00000000000E+00 0.  1.
        -11    1    1    2    0    0  0.13009377547E+02 -0.88627517439E+01 -0.68820358719E+02  0.70597691512E+02  0.00000000000E+00 0.  1.
         11    1    1    2    0    0 -0.13009377547E+02  0.88627517439E+01 -0.29319888214E+02  0.33278343070E+02  0.00000000000E+00 0. -1.
<mgrwt>
<rscale>  0 0.34040013E+02</rscale>
<asrwt>0</asrwt>
<pdfrwt beam="1">  1        2 0.44121449E-03 0.34040013E+02</pdfrwt>
<pdfrwt beam="2">  1       -2 0.15539712E-01 0.34040013E+02</pdfrwt>
<totfact> 0.88580000E+05</totfact>
</mgrwt>
</event>
<event>
 4    1  0.4118611E+000  0.2328999E+02  0.7546771E-02  0.1686852E+00
         -2   -1    0    0    0  501 -0.00000000000E+00  0.00000000000E+00  0.22588720685E+02  0.22588720685E+02  0.00000000000E+00 0.  1.
          2   -1    0    0  501    0  0.00000000000E+00 -0.00000000000E+00 -0.60032581557E+01  0.60032581557E+01  0.00000000000E+00 0. -1.
        -13    1    1    2    0    0 -0.72212358450E+01  0.91032489035E+01  0.92361344257E+01  0.14843233033E+02  0.00000000000E+00 0.  1.
         13    1    1    2    0    0  0.72212358450E+01 -0.91032489035E+01  0.73493281038E+01  0.13748745808E+02  0.00000000000E+00 0. -1.
<mgrwt>
<rscale>  0 0.23289991E+02</rscale>
<asrwt>0</asrwt>
<pdfrwt beam="2">  1        2 0.92357819E-03 0.23289991E+02</pdfrwt>
<pdfrwt beam="1">  1       -2 0.34751877E-02 0.23289991E+02</pdfrwt>
<totfact> 0.26509032E+06</totfact>
</mgrwt>
</event>
<event>
 4    1  0.4118611E+000  0.2975932E+02  0.7546771E-02  0.1600764E+00
         -2   -1    0    0    0  501 -0.00000000000E+00  0.00000000000E+00  0.51198377401E+02  0.51198377401E+02  0.00000000000E+00 0. -1.
          2   -1    0    0  501    0  0.00000000000E+00 -0.00000000000E+00 -0.43244405923E+01  0.43244405923E+01  0.00000000000E+00 0.  1.
        -11    1    1    2    0    0  0.10138007205E+02  0.95138674835E+01  0.33329108757E+02  0.36112634287E+02  0.00000000000E+00 0. -1.
         11    1    1    2    0    0 -0.10138007205E+02 -0.95138674835E+01  0.13544828052E+02  0.19410183707E+02  0.00000000000E+00 0.  1.
<mgrwt>
<rscale>  0 0.29759324E+02</rscale>
<asrwt>0</asrwt>
<pdfrwt beam="2">  1        2 0.66529859E-03 0.29759324E+02</pdfrwt>
<pdfrwt beam="1">  1       -2 0.78766730E-02 0.29759324E+02</pdfrwt>
<totfact> 0.13819268E+06</totfact>
</mgrwt>
</event>
<event>
 4    1  0.4118611E+000  0.3839235E+02  0.7546771E-02  0.1520387E+00
         -2   -1    0    0    0  501 -0.00000000000E+00  0.00000000000E+00  0.24225964935E+02  0.24225964935E+02  0.00000000000E+00 0. -1.
          2   -1    0    0  501    0  0.00000000000E+00 -0.00000000000E+00 -0.15210668564E+02  0.15210668564E+02  0.00000000000E+00 0.  1.
        -13    1    1    2    0    0  0.20229127604E+01 -0.13787796808E+02  0.18068933605E+02  0.22818454778E+02  0.00000000000E+00 0. -1.
         13    1    1    2    0    0 -0.20229127604E+01  0.13787796808E+02 -0.90536372338E+01  0.16618178721E+02  0.00000000000E+00 0.  1.
<mgrwt>
<rscale>  0 0.38392349E+02</rscale>
<asrwt>0</asrwt>
<pdfrwt beam="2">  1        2 0.23401029E-02 0.38392349E+02</pdfrwt>
<pdfrwt beam="1">  1       -2 0.37270715E-02 0.38392349E+02</pdfrwt>
<totfact> 0.84543735E+05</totfact>
</mgrwt>
</event>
<event>
 4    1  0.4118611E+000  0.2400171E+02  0.7546771E-02  0.1675769E+00
          2   -1    0    0  501    0  0.00000000000E+00  0.00000000000E+00  0.24352968956E+01  0.24352968956E+01  0.00000000000E+00 0.  1.
         -2   -1    0    0    0  501 -0.00000000000E+00 -0.00000000000E+00 -0.59138805871E+02  0.59138805871E+02  0.00000000000E+00 0. -1.
        -13    1    1    2    0    0 -0.11150228680E+02  0.23294621095E+01 -0.38041568730E+02  0.39710388373E+02  0.00000000000E+00 0. -1.
         13    1    1    2    0    0  0.11150228680E+02 -0.23294621095E+01 -0.18661940246E+02  0.21863714393E+02  0.00000000000E+00 0.  1.
<mgrwt>
<rscale>  0 0.24001712E+02</rscale>
<asrwt>0</asrwt>
<pdfrwt beam="1">  1        2 0.37466106E-03 0.24001712E+02</pdfrwt>
<pdfrwt beam="2">  1       -2 0.90982779E-02 0.24001712E+02</pdfrwt>
<totfact> 0.22049050E+06</totfact>
</mgrwt>
</event>
<event>
 4    1  0.4118611E+000  0.5511262E+02  0.7546771E-02  0.1419567E+00
          2   -1    0    0  501    0  0.00000000000E+00  0.00000000000E+00  0.82029527299E+01  0.82029527299E+01  0.00000000000E+00 0. -1.
         -2   -1    0    0    0  501 -0.00000000000E+00 -0.00000000000E+00 -0.92570362024E+02  0.92570362024E+02  0.00000000000E+00 0.  1.
        -11    1    1    2    0    0 -0.36431317654E+01  0.17874347373E+02 -0.44180029084E+01  0.18769215561E+02  0.00000000000E+00 0. -1.
         11    1    1    2    0    0  0.36431317654E+01 -0.17874347373E+02 -0.79949406386E+02  0.82004099194E+02  0.00000000000E+00 0.  1.
<mgrwt>
<rscale>  0 0.55112623E+02</rscale>
<asrwt>0</asrwt>
<pdfrwt beam="1">  1        2 0.12619926E-02 0.55112623E+02</pdfrwt>
<pdfrwt beam="2">  1       -2 0.14241595E-01 0.55112623E+02</pdfrwt>
<totfact> 0.28355626E+05</totfact>
</mgrwt>
</event>
<event>
 4    1  0.4118611E+000  0.3905735E+02  0.7546771E-02  0.1515265E+00
         -2   -1    0    0    0  501 -0.00000000000E+00  0.00000000000E+00  0.11602186063E+02  0.11602186063E+02  0.00000000000E+00 0.  1.
          2   -1    0    0  501    0  0.00000000000E+00 -0.00000000000E+00 -0.32870462755E+02  0.32870462755E+02  0.00000000000E+00 0. -1.
        -11    1    1    2    0    0  0.13303413929E+02 -0.12818042708E+02 -0.17843346020E+02  0.25684003547E+02  0.00000000000E+00 0. -1.
         11    1    1    2    0    0 -0.13303413929E+02  0.12818042708E+02 -0.34249306717E+01  0.18788645271E+02  0.00000000000E+00 0.  1.
<mgrwt>
<rscale>  0 0.39057354E+02</rscale>
<asrwt>0</asrwt>
<pdfrwt beam="2">  1        2 0.50569943E-02 0.39057354E+02</pdfrwt>
<pdfrwt beam="1">  1       -2 0.17849517E-02 0.39057354E+02</pdfrwt>
<totfact> 0.89565464E+05</totfact>
</mgrwt>
</event>
<event>
 4    1  0.4118611E+000  0.2390456E+02  0.7546771E-02  0.1677253E+00
         -4   -1    0    0    0  501 -0.00000000000E+00  0.00000000000E+00  0.44071000667E+01  0.44071000667E+01  0.00000000000E+00 0.  1.
          4   -1    0    0  501    0  0.00000000000E+00 -0.00000000000E+00 -0.32415205240E+02  0.32415205240E+02  0.00000000000E+00 0. -1.
        -13    1    1    2    0    0 -0.11851926958E+02 -0.94824337674E+00 -0.15884156007E+02  0.19841213425E+02  0.00000000000E+00 0. -1.
         13    1    1    2    0    0  0.11851926958E+02  0.94824337674E+00 -0.12123949166E+02  0.16981091882E+02  0.00000000000E+00 0.  1.
<mgrwt>
<rscale>  0 0.23904565E+02</rscale>
<asrwt>0</asrwt>
<pdfrwt beam="2">  1        4 0.49869546E-02 0.23904565E+02</pdfrwt>
<pdfrwt beam="1">  1       -4 0.67801540E-03 0.23904565E+02</pdfrwt>
<totfact> 0.83527652E+05</totfact>
</mgrwt>
</event>
<event>
 4    1  0.4118611E+000  0.2649218E+02  0.7546771E-02  0.1640450E+00
         -4   -1    0    0    0  501 -0.00000000000E+00  0.00000000000E+00  0.38226372296E+01  0.38226372296E+01  0.00000000000E+00 0.  1.
          4   -1    0    0  501    0  0.00000000000E+00 -0.00000000000E+00 -0.45899947391E+02  0.45899947391E+02  0.00000000000E+00 0. -1.
        -13    1    1    2    0    0 -0.11119031427E+02  0.37127059290E+01 -0.32614870686E+02  0.34657565337E+02  0.00000000000E+00 0. -1.
         13    1    1    2    0    0  0.11119031427E+02 -0.37127059290E+01 -0.94624394749E+01  0.15065019283E+02  0.00000000000E+00 0.  1.
<mgrwt>
<rscale>  0 0.26492176E+02</rscale>
<asrwt>0</asrwt>
<pdfrwt beam="2">  1        4 0.70615305E-02 0.26492176E+02</pdfrwt>
<pdfrwt beam="1">  1       -4 0.58809803E-03 0.26492176E+02</pdfrwt>
<totfact> 0.63807339E+05</totfact>
</mgrwt>
</event>
<event>
 4    1  0.4118611E+000  0.4360347E+02  0.7546771E-02  0.1483253E+00
          4   -1    0    0  501    0  0.00000000000E+00  0.00000000000E+00  0.77928891854E+02  0.77928891854E+02  0.00000000000E+00 0.  1.
         -4   -1    0    0    0  501 -0.00000000000E+00 -0.00000000000E+00 -0.60993511507E+01  0.60993511507E+01  0.00000000000E+00 0. -1.
        -13    1    1    2    0    0  0.75427348844E+01 -0.16326184307E+02  0.59664157898E+02  0.62315719375E+02  0.00000000000E+00 0.  1.
         13    1    1    2    0    0 -0.75427348844E+01  0.16326184307E+02  0.12165382806E+02  0.21712523630E+02  0.00000000000E+00 0. -1.
<mgrwt>
<rscale>  0 0.43603471E+02</rscale>
<asrwt>0</asrwt>
<pdfrwt beam="1">  1        4 0.11989060E-01 0.43603471E+02</pdfrwt>
<pdfrwt beam="2">  1       -4 0.93836177E-03 0.43603471E+02</pdfrwt>
<totfact> 0.18246632E+05</totfact>
</mgrwt>
</event>
<event>
 4    1  0.4118611E+000  0.4588150E+02  0.7546771E-02  0.1468912E+00
         -2   -1    0    0    0  501 -0.00000000000E+00  0.00000000000E+00  0.25516066835E+01  0.25516066835E+01  0.00000000000E+00 0.  1.
          2   -1    0    0  501    0  0.00000000000E+00 -0.00000000000E+00 -0.20625360620E+03  0.20625360620E+03  0.00000000000E+00 0. -1.
        -11    1    1    2    0    0  0.91839320919E+00  0.22131946994E+02 -0.12900908686E+03  0.13089694807E+03  0.00000000000E+00 0. -1.
         11    1    1    2    0    0 -0.91839320919E+00 -0.22131946994E+02 -0.74692912665E+02  0.77908264814E+02  0.00000000000E+00 0.  1.
<mgrwt>
<rscale>  0 0.45881503E+02</rscale>
<asrwt>0</asrwt>
<pdfrwt beam="2">  1        2 0.31731321E-01 0.45881503E+02</pdfrwt>
<pdfrwt beam="1">  1       -2 0.39255491E-03 0.45881503E+02</pdfrwt>
<totfact> 0.92119705E+05</totfact>
</mgrwt>
</event>
<event>
 4    1  0.4118611E+000  0.2289193E+02  0.7546771E-02  0.1693268E+00
          1   -1    0    0  501    0  0.00000000000E+00  0.00000000000E+00  0.25881320955E+02  0.25881320955E+02  0.00000000000E+00 0.  1.
         -1   -1    0    0    0  501 -0.00000000000E+00 -0.00000000000E+00 -0.50619546995E+01  0.50619546995E+01  0.00000000000E+00 0. -1.
        -11    1    1    2    0    0 -0.80532710389E+01 -0.70033206716E+01  0.16000672080E+02  0.19233387166E+02  0.00000000000E+00 0. -1.
         11    1    1    2    0    0  0.80532710389E+01  0.70033206716E+01  0.48186941750E+01  0.11709888488E+02  0.00000000000E+00 0.  1.
<mgrwt>
<rscale>  0 0.22891926E+02</rscale>
<asrwt>0</asrwt>
<pdfrwt beam="1">  1        1 0.39817416E-02 0.22891926E+02</pdfrwt>
<pdfrwt beam="2">  1       -1 0.77876227E-03 0.22891926E+02</pdfrwt>
<totfact> 0.29577205E+06</totfact>
</mgrwt>
</event>
<event>
 4    1  0.4118611E+000  0.3235161E+02  0.7546771E-02  0.1573460E+00
         -1   -1    0    0    0  501 -0.00000000000E+00  0.00000000000E+00  0.45052495054E+01  0.45052495054E+01  0.00000000000E+00 0. -1.
          1   -1    0    0  501    0  0.00000000000E+00 -0.00000000000E+00 -0.58078177331E+02  0.58078177331E+02  0.00000000000E+00 0.  1.
        -13    1    1    2    0    0 -0.10174089741E+02 -0.56446471230E+01 -0.48525239504E+02  0.49900631380E+02  0.00000000000E+00 0.  1.
         13    1    1    2    0    0  0.10174089741E+02  0.56446471230E+01 -0.50476883212E+01  0.12682795456E+02  0.00000000000E+00 0. -1.
<mgrwt>
<rscale>  0 0.32351611E+02</rscale>
<asrwt>0</asrwt>
<pdfrwt beam="2">  1        1 0.89351036E-02 0.32351611E+02</pdfrwt>
<pdfrwt beam="1">  1       -1 0.69311536E-03 0.32351611E+02</pdfrwt>
<totfact> 0.13884286E+06</totfact>
</mgrwt>
</event>
<event>
 4    1  0.4118611E+000  0.4679743E+02  0.7546771E-02  0.1463423E+00
         -2   -1    0    0    0  501 -0.00000000000E+00  0.00000000000E+00  0.49300950094E+02  0.49300950094E+02  0.00000000000E+00 0. -1.
          2   -1    0    0  501    0  0.00000000000E+00 -0.00000000000E+00 -0.11105257845E+02  0.11105257845E+02  0.00000000000E+00 0.  1.
        -13    1    1    2    0    0 -0.67254195371E+01  0.22105582127E+02  0.23860141536E+02  0.33214370131E+02  0.00000000000E+00 0. -1.
         13    1    1    2    0    0  0.67254195371E+01 -0.22105582127E+02  0.14335550713E+02  0.27191837807E+02  0.00000000000E+00 0.  1.
<mgrwt>
<rscale>  0 0.46797426E+02</rscale>
<asrwt>0</asrwt>
<pdfrwt beam="2">  1        2 0.17085012E-02 0.46797426E+02</pdfrwt>
<pdfrwt beam="1">  1       -2 0.75847614E-02 0.46797426E+02</pdfrwt>
<totfact> 0.47888888E+05</totfact>
</mgrwt>
</event>
<event>
 4    1  0.4118611E+000  0.4054148E+02  0.7546771E-02  0.1504264E+00
          2   -1    0    0  501    0  0.00000000000E+00  0.00000000000E+00  0.71254894553E+02  0.71254894553E+02  0.00000000000E+00 0. -1.
         -2   -1    0    0    0  501 -0.00000000000E+00 -0.00000000000E+00 -0.57666633464E+01  0.57666633464E+01  0.00000000000E+00 0.  1.
        -13    1    1    2    0    0  0.12036964554E+02  0.16245274518E+02  0.29987391835E+02  0.36166851244E+02  0.00000000000E+00 0. -1.
         13    1    1    2    0    0 -0.12036964554E+02 -0.16245274518E+02  0.35500839372E+02  0.40854706656E+02  0.00000000000E+00 0.  1.
<mgrwt>
<rscale>  0 0.40541484E+02</rscale>
<asrwt>0</asrwt>
<pdfrwt beam="1">  1        2 0.10962291E-01 0.40541484E+02</pdfrwt>
<pdfrwt beam="2">  1       -2 0.88717903E-03 0.40541484E+02</pdfrwt>
<totfact> 0.93460514E+05</totfact>
</mgrwt>
</event>
<event>
 4    1  0.4118611E+000  0.2552119E+02  0.7546771E-02  0.1653627E+00
          2   -1    0    0  501    0  0.00000000000E+00  0.00000000000E+00  0.78014917393E+02  0.78014917393E+02  0.00000000000E+00 0. -1.
         -2   -1    0    0    0  501 -0.00000000000E+00 -0.00000000000E+00 -0.20872004161E+01  0.20872004161E+01  0.00000000000E+00 0.  1.
        -11    1    1    2    0    0 -0.42822996679E+01 -0.11335884214E+02  0.25412231834E+02  0.28153541307E+02  0.00000000000E+00 0.  1.
         11    1    1    2    0    0  0.42822996679E+01  0.11335884214E+02  0.50515485143E+02  0.51948576502E+02  0.00000000000E+00 0. -1.
<mgrwt>
<rscale>  0 0.25521189E+02</rscale>
<asrwt>0</asrwt>
<pdfrwt beam="1">  1        2 0.12002293E-01 0.25521189E+02</pdfrwt>
<pdfrwt beam="2">  1       -2 0.32110782E-03 0.25521189E+02</pdfrwt>
<totfact> 0.28832722E+06</totfact>
</mgrwt>
</event>
<event>
 4    1  0.4118611E+000  0.3748311E+02  0.7546771E-02  0.1527594E+00
          2   -1    0    0  501    0  0.00000000000E+00  0.00000000000E+00  0.56476208964E+01  0.56476208964E+01  0.00000000000E+00 0. -1.
         -2   -1    0    0    0  501 -0.00000000000E+00 -0.00000000000E+00 -0.62193595215E+02  0.62193595215E+02  0.00000000000E+00 0.  1.
        -11    1    1    2    0    0  0.10303936895E+02  0.68987892676E+01 -0.28386062658E+01  0.12720931351E+02  0.00000000000E+00 0. -1.
         11    1    1    2    0    0 -0.10303936895E+02 -0.68987892676E+01 -0.53707368052E+02  0.55120284760E+02  0.00000000000E+00 0.  1.
<mgrwt>
<rscale>  0 0.37483108E+02</rscale>
<asrwt>0</asrwt>
<pdfrwt beam="1">  1        2 0.86886473E-03 0.37483108E+02</pdfrwt>
<pdfrwt beam="2">  1       -2 0.95682456E-02 0.37483108E+02</pdfrwt>
<totfact> 0.78056203E+05</totfact>
</mgrwt>
</event>
<event>
 4    1  0.4118611E+000  0.2236636E+02  0.7546771E-02  0.1701992E+00
         -2   -1    0    0    0  501 -0.00000000000E+00  0.00000000000E+00  0.43244973654E+01  0.43244973654E+01  0.00000000000E+00 0.  1.
          2   -1    0    0  501    0  0.00000000000E+00 -0.00000000000E+00 -0.28919785840E+02  0.28919785840E+02  0.00000000000E+00 0. -1.
        -13    1    1    2    0    0  0.21998709694E+01  0.10951369298E+02 -0.11494992372E+02  0.16028311559E+02  0.00000000000E+00 0.  1.
         13    1    1    2    0    0 -0.21998709694E+01 -0.10951369298E+02 -0.13100296103E+02  0.17215971647E+02  0.00000000000E+00 0. -1.
<mgrwt>
<rscale>  0 0.22366362E+02</rscale>
<asrwt>0</asrwt>
<pdfrwt beam="2">  1        2 0.44491977E-02 0.22366362E+02</pdfrwt>
<pdfrwt beam="1">  1       -2 0.66530730E-03 0.22366362E+02</pdfrwt>
<totfact> 0.33524405E+06</totfact>
</mgrwt>
</event>
<event>
 4    1  0.4118611E+000  0.2405627E+02  0.7546771E-02  0.1674939E+00
         -3   -1    0    0    0  501 -0.00000000000E+00  0.00000000000E+00  0.13126748707E+03  0.13126748707E+03  0.00000000000E+00 0. -1.
          3   -1    0    0  501    0  0.00000000000E+00 -0.00000000000E+00 -0.11021463782E+01  0.11021463782E+01  0.00000000000E+00 0.  1.
        -13    1    1    2    0    0  0.11793396048E+02  0.23563086813E+01  0.63987624228E+02  0.65108005923E+02  0.00000000000E+00 0.  1.
         13    1    1    2    0    0 -0.11793396048E+02 -0.23563086813E+01  0.66177716463E+02  0.67261627525E+02  0.00000000000E+00 0. -1.
<mgrwt>
<rscale>  0 0.24056266E+02</rscale>
<asrwt>0</asrwt>
<pdfrwt beam="2">  1        3 0.16956109E-03 0.24056266E+02</pdfrwt>
<pdfrwt beam="1">  1       -3 0.20194986E-01 0.24056266E+02</pdfrwt>
<totfact> 0.87805535E+05</totfact>
</mgrwt>
</event>
<event>
 4    1  0.4118611E+000  0.2538887E+02  0.7546771E-02  0.1655478E+00
         -2   -1    0    0    0  501 -0.00000000000E+00  0.00000000000E+00  0.16424128757E+01  0.16424128757E+01  0.00000000000E+00 0.  1.
          2   -1    0    0  501    0  0.00000000000E+00 -0.00000000000E+00 -0.98117050796E+02  0.98117050796E+02  0.00000000000E+00 0. -1.
        -11    1    1    2    0    0  0.47601017654E+01 -0.11767529512E+02 -0.47749902084E+02  0.49408364359E+02  0.00000000000E+00 0. -1.
         11    1    1    2    0    0 -0.47601017654E+01  0.11767529512E+02 -0.48724735836E+02  0.50351099312E+02  0.00000000000E+00 0.  1.
<mgrwt>
<rscale>  0 0.25388872E+02</rscale>
<asrwt>0</asrwt>
<pdfrwt beam="2">  1        2 0.15094930E-01 0.25388872E+02</pdfrwt>
<pdfrwt beam="1">  1       -2 0.25267892E-03 0.25388872E+02</pdfrwt>
<totfact> 0.30683977E+06</totfact>
</mgrwt>
</event>
<event>
 4    1  0.4118611E+000  0.3258126E+02  0.7546771E-02  0.1571192E+00
          3   -1    0    0  501    0  0.00000000000E+00  0.00000000000E+00  0.38311908045E+02  0.38311908045E+02  0.00000000000E+00 0.  1.
         -3   -1    0    0    0  501 -0.00000000000E+00 -0.00000000000E+00 -0.69269485497E+01  0.69269485497E+01  0.00000000000E+00 0. -1.
        -11    1    1    2    0    0 -0.14558128596E+02  0.43862607736E+01  0.23813233106E+02  0.28253291184E+02  0.00000000000E+00 0. -1.
         11    1    1    2    0    0  0.14558128596E+02 -0.43862607736E+01  0.75717263896E+01  0.16985565410E+02  0.00000000000E+00 0.  1.
<mgrwt>
<rscale>  0 0.32581259E+02</rscale>
<asrwt>0</asrwt>
<pdfrwt beam="1">  1        3 0.58941396E-02 0.32581259E+02</pdfrwt>
<pdfrwt beam="2">  1       -3 0.10656844E-02 0.32581259E+02</pdfrwt>
<totfact> 0.54591254E+05</totfact>
</mgrwt>
</event>
<event>
 4    1  0.4118611E+000  0.2184829E+02  0.7546771E-02  0.1710889E+00
         -4   -1    0    0    0  501 -0.00000000000E+00  0.00000000000E+00  0.46020216543E+02  0.46020216543E+02  0.00000000000E+00 0. -1.
          4   -1    0    0  501    0  0.00000000000E+00 -0.00000000000E+00 -0.25931406748E+01  0.25931406748E+01  0.00000000000E+00 0.  1.
        -11    1    1    2    0    0  0.96449673047E+01 -0.51282429359E+01  0.21963550559E+02  0.24530018815E+02  0.00000000000E+00 0. -1.
         11    1    1    2    0    0 -0.96449673047E+01  0.51282429359E+01  0.21463525310E+02  0.24083338403E+02  0.00000000000E+00 0.  1.
<mgrwt>
<rscale>  0 0.21848286E+02</rscale>
<asrwt>0</asrwt>
<pdfrwt beam="2">  1        4 0.39894475E-03 0.21848286E+02</pdfrwt>
<pdfrwt beam="1">  1       -4 0.70800327E-02 0.21848286E+02</pdfrwt>
<totfact> 0.96587415E+05</totfact>
</mgrwt>
</event>
<event>
 4    1  0.4118611E+000  0.6317808E+02  0.7546771E-02  0.1384959E+00
          4   -1    0    0  501    0  0.00000000000E+00  0.00000000000E+00  0.55182963047E+02  0.55182963047E+02  0.00000000000E+00 0.  1.
         -4   -1    0    0    0  501 -0.00000000000E+00 -0.00000000000E+00 -0.18082892013E+02  0.18082892013E+02  0.00000000000E+00 0. -1.
        -13    1    1    2    0    0 -0.49755391705E+01  0.26646677069E+02  0.37359120889E+02  0.46157397050E+02  0.00000000000E+00 0.  1.
         13    1    1    2    0    0  0.49755391705E+01 -0.26646677069E+02 -0.25904985439E+00  0.27108458010E+02  0.00000000000E+00 0. -1.
<mgrwt>
<rscale>  0 0.63178084E+02</rscale>
<asrwt>0</asrwt>
<pdfrwt beam="1">  1        4 0.84896866E-02 0.63178084E+02</pdfrwt>
<pdfrwt beam="2">  1       -4 0.27819834E-02 0.63178084E+02</pdfrwt>
<totfact> 0.74588514E+04</totfact>
</mgrwt>
</event>
<event>
 4    1  0.4118611E+000  0.2394789E+02  0.7546771E-02  0.1676590E+00
         -2   -1    0    0    0  501 -0.00000000000E+00  0.00000000000E+00  0.25268747600E+02  0.25268747600E+02  0.00000000000E+00 0.  1.
          2   -1    0    0  501    0  0.00000000000E+00 -0.00000000000E+00 -0.56740185639E+01  0.56740185639E+01  0.00000000000E+00 0. -1.
        -13    1    1    2    0    0 -0.69090550130E+01 -0.88943001074E+01  0.45438368673E+01  0.12144548944E+02  0.00000000000E+00 0. -1.
         13    1    1    2    0    0  0.69090550130E+01  0.88943001074E+01  0.15050892169E+02  0.18798217220E+02  0.00000000000E+00 0.  1.
<mgrwt>
<rscale>  0 0.23947889E+02</rscale>
<asrwt>0</asrwt>
<pdfrwt beam="2">  1        2 0.87292595E-03 0.23947889E+02</pdfrwt>
<pdfrwt beam="1">  1       -2 0.38874995E-02 0.23947889E+02</pdfrwt>
<totfact> 0.24653083E+06</totfact>
</mgrwt>
</event>
<event>
 4    1  0.4118611E+000  0.3005614E+02  0.7546771E-02  0.1597469E+00
         -2   -1    0    0    0  501 -0.00000000000E+00  0.00000000000E+00  0.15399384637E+02  0.15399384637E+02  0.00000000000E+00 0.  1.
          2   -1    0    0  501    0  0.00000000000E+00 -0.00000000000E+00 -0.14665712653E+02  0.14665712653E+02  0.00000000000E+00 0. -1.
        -13    1    1    2    0    0  0.10624537161E+02 -0.81788856303E+01  0.71561982381E+01  0.15198227965E+02  0.00000000000E+00 0.  1.
         13    1    1    2    0    0 -0.10624537161E+02  0.81788856303E+01 -0.64225262542E+01  0.14866869325E+02  0.00000000000E+00 0. -1.
<mgrwt>
<rscale>  0 0.30056144E+02</rscale>
<asrwt>0</asrwt>
<pdfrwt beam="2">  1        2 0.22562635E-02 0.30056144E+02</pdfrwt>
<pdfrwt beam="1">  1       -2 0.23691361E-02 0.30056144E+02</pdfrwt>
<totfact> 0.15548617E+06</totfact>
</mgrwt>
</event>
<event>
 4    1  0.4118611E+000  0.3623828E+02  0.7546771E-02  0.1537871E+00
          1   -1    0    0  501    0  0.00000000000E+00  0.00000000000E+00  0.27676886681E+02  0.27676886681E+02  0.00000000000E+00 0. -1.
         -1   -1    0    0    0  501 -0.00000000000E+00 -0.00000000000E+00 -0.11861998334E+02  0.11861998334E+02  0.00000000000E+00 0.  1.
        -13    1    1    2    0    0  0.13197182300E+02  0.91615136152E+01  0.17049387394E+02  0.23426065886E+02  0.00000000000E+00 0. -1.
         13    1    1    2    0    0 -0.13197182300E+02 -0.91615136152E+01 -0.12344990468E+01  0.16112819129E+02  0.00000000000E+00 0.  1.
<mgrwt>
<rscale>  0 0.36238277E+02</rscale>
<asrwt>0</asrwt>
<pdfrwt beam="1">  1        1 0.42579825E-02 0.36238277E+02</pdfrwt>
<pdfrwt beam="2">  1       -1 0.18249228E-02 0.36238277E+02</pdfrwt>
<totfact> 0.99607091E+05</totfact>
</mgrwt>
</event>
<event>
 4    1  0.4118611E+000  0.3170941E+02  0.7546771E-02  0.1579927E+00
          2   -1    0    0  501    0  0.00000000000E+00  0.00000000000E+00  0.23403016644E+01  0.23403016644E+01  0.00000000000E+00 0.  1.
         -2   -1    0    0    0  501 -0.00000000000E+00 -0.00000000000E+00 -0.10740991662E+03  0.10740991662E+03  0.00000000000E+00 0. -1.
        -13    1    1    2    0    0 -0.22225160087E+01  0.15561179498E+02 -0.45372936165E+02  0.48018675752E+02  0.00000000000E+00 0.  1.
         13    1    1    2    0    0  0.22225160087E+01 -0.15561179498E+02 -0.59696678791E+02  0.61731542533E+02  0.00000000000E+00 0. -1.
<mgrwt>
<rscale>  0 0.31709406E+02</rscale>
<asrwt>0</asrwt>
<pdfrwt beam="1">  1        2 0.36004642E-03 0.31709406E+02</pdfrwt>
<pdfrwt beam="2">  1       -2 0.16524602E-01 0.31709406E+02</pdfrwt>
<totfact> 0.10300317E+06</totfact>
</mgrwt>
</event>
<event>
 4    1  0.4118611E+000  0.2220090E+02  0.7546771E-02  0.1704801E+00
         -1   -1    0    0    0  501 -0.00000000000E+00  0.00000000000E+00  0.50467614411E+01  0.50467614411E+01  0.00000000000E+00 0.  1.
          1   -1    0    0  501    0  0.00000000000E+00 -0.00000000000E+00 -0.24415650174E+02  0.24415650174E+02  0.00000000000E+00 0. -1.
        -13    1    1    2    0    0  0.98546986907E+01  0.34652659176E+01 -0.14667068757E+02  0.18006833705E+02  0.00000000000E+00 0. -1.
         13    1    1    2    0    0 -0.98546986907E+01 -0.34652659176E+01 -0.47018199761E+01  0.11455577910E+02  0.00000000000E+00 0.  1.
<mgrwt>
<rscale>  0 0.22200897E+02</rscale>
<asrwt>0</asrwt>
<pdfrwt beam="2">  1        1 0.37562539E-02 0.22200897E+02</pdfrwt>
<pdfrwt beam="1">  1       -1 0.77642484E-03 0.22200897E+02</pdfrwt>
<totfact> 0.31632252E+06</totfact>
</mgrwt>
</event>
<event>
 4    1  0.4118611E+000  0.2598654E+02  0.7546771E-02  0.1647223E+00
          1   -1    0    0  501    0  0.00000000000E+00  0.00000000000E+00  0.25404397380E+01  0.25404397380E+01  0.00000000000E+00 0.  1.
         -1   -1    0    0    0  501 -0.00000000000E+00 -0.00000000000E+00 -0.66455075934E+02  0.66455075934E+02  0.00000000000E+00 0. -1.
        -11    1    1    2    0    0  0.87917890841E+01 -0.61370791606E+01 -0.51443599866E+02  0.52549055777E+02  0.00000000000E+00 0. -1.
         11    1    1    2    0    0 -0.87917890841E+01  0.61370791606E+01 -0.12471036330E+02  0.16446459895E+02  0.00000000000E+00 0.  1.
<mgrwt>
<rscale>  0 0.25986544E+02</rscale>
<asrwt>0</asrwt>
<pdfrwt beam="1">  1        1 0.39083687E-03 0.25986544E+02</pdfrwt>
<pdfrwt beam="2">  1       -1 0.10223858E-01 0.25986544E+02</pdfrwt>
<totfact> 0.18796198E+06</totfact>
</mgrwt>
</event>
<event>
 4    1  0.4118611E+000  0.2306740E+02  0.7546771E-02  0.1690420E+00
          2   -1    0    0  501    0  0.00000000000E+00  0.00000000000E+00  0.68283284176E+01  0.68283284176E+01  0.00000000000E+00 0.  1.
         -2   -1    0    0    0  501 -0.00000000000E+00 -0.00000000000E+00 -0.19481524760E+02  0.19481524760E+02  0.00000000000E+00 0. -1.
        -11    1    1    2    0    0 -0.19907318758E+01 -0.11221146420E+02 -0.43025838240E+01  0.12181517472E+02  0.00000000000E+00 0.  1.
         11    1    1    2    0    0  0.19907318758E+01  0.11221146420E+02 -0.83506125189E+01  0.14128335706E+02  0.00000000000E+00 0. -1.
<mgrwt>
<rscale>  0 0.23067401E+02</rscale>
<asrwt>0</asrwt>
<pdfrwt beam="1">  1        2 0.10505121E-02 0.23067401E+02</pdfrwt>
<pdfrwt beam="2">  1       -2 0.29971576E-02 0.23067401E+02</pdfrwt>
<totfact> 0.27442393E+06</totfact>
</mgrwt>
</event>
<event>
 4    1  0.4118611E+000  0.2632198E+02  0.7546771E-02  0.1642709E+00
          2   -1    0    0  501    0  0.00000000000E+00  0.00000000000E+00  0.61402403129E+02  0.61402403129E+02  0.00000000000E+00 0. -1.
         -2   -1    0    0    0  501 -0.00000000000E+00 -0.00000000000E+00 -0.28209259552E+01  0.28209259552E+01  0.00000000000E+00 0.  1.
        -11    1    1    2    0    0  0.12650867121E+02  0.21978846804E+01  0.36335496642E+02  0.38537558981E+02  0.00000000000E+00 0. -1.
         11    1    1    2    0    0 -0.12650867121E+02 -0.21978846804E+01  0.22245980532E+02  0.25685770103E+02  0.00000000000E+00 0.  1.
<mgrwt>
<rscale>  0 0.26321978E+02</rscale>
<asrwt>0</asrwt>
<pdfrwt beam="1">  1        2 0.94465226E-02 0.26321978E+02</pdfrwt>
<pdfrwt beam="2">  1       -2 0.43398865E-03 0.26321978E+02</pdfrwt>
<totfact> 0.25628552E+06</totfact>
</mgrwt>
</event>
<event>
 4    1  0.4118611E+000  0.5423314E+02  0.7546771E-02  0.1423761E+00
         -2   -1    0    0    0  501 -0.00000000000E+00  0.00000000000E+00  0.18818242685E+03  0.18818242685E+03  0.00000000000E+00 0.  1.
          2   -1    0    0  501    0  0.00000000000E+00 -0.00000000000E+00 -0.39074235224E+01  0.39074235224E+01  0.00000000000E+00 0. -1.
        -11    1    1    2    0    0  0.26625173480E+02 -0.45625251643E+01  0.83761804002E+02  0.88009978460E+02  0.00000000000E+00 0. -1.
         11    1    1    2    0    0 -0.26625173480E+02  0.45625251643E+01  0.10051319932E+03  0.10407987191E+03  0.00000000000E+00 0.  1.
<mgrwt>
<rscale>  0 0.54233143E+02</rscale>
<asrwt>0</asrwt>
<pdfrwt beam="2">  1        2 0.60114223E-03 0.54233143E+02</pdfrwt>
<pdfrwt beam="1">  1       -2 0.28951136E-01 0.54233143E+02</pdfrwt>
<totfact> 0.23648968E+05</totfact>
</mgrwt>
</event>
<event>
 4    1  0.4118611E+000  0.5199423E+02  0.7546771E-02  0.1434873E+00
         -2   -1    0    0    0  501 -0.00000000000E+00  0.00000000000E+00  0.52141415892E+01  0.52141415892E+01  0.00000000000E+00 0. -1.
          2   -1    0    0  501    0  0.00000000000E+00 -0.00000000000E+00 -0.12961864149E+03  0.12961864149E+03  0.00000000000E+00 0.  1.
        -11    1    1    2    0    0  0.16952475605E+02  0.19005355246E+02 -0.48662731336E+02  0.54924051000E+02  0.00000000000E+00 0. -1.
         11    1    1    2    0    0 -0.16952475605E+02 -0.19005355246E+02 -0.75741768563E+02  0.79908732078E+02  0.00000000000E+00 0.  1.
<mgrwt>
<rscale>  0 0.51994228E+02</rscale>
<asrwt>0</asrwt>
<pdfrwt beam="2">  1        2 0.19941326E-01 0.51994228E+02</pdfrwt>
<pdfrwt beam="1">  1       -2 0.80217576E-03 0.51994228E+02</pdfrwt>
<totfact> 0.58251923E+05</totfact>
</mgrwt>
</event>
<event>
 4    1  0.4118611E+000  0.2267957E+02  0.7546771E-02  0.1696758E+00
          2   -1    0    0  501    0  0.00000000000E+00  0.00000000000E+00  0.20809381171E+01  0.20809381171E+01  0.00000000000E+00 0.  1.
         -2   -1    0    0    0  501 -0.00000000000E+00 -0.00000000000E+00 -0.61794565754E+02  0.61794565754E+02  0.00000000000E+00 0. -1.
        -13    1    1    2    0    0 -0.11195657821E+02 -0.54972764628E+00 -0.34690682154E+02  0.36456664450E+02  0.00000000000E+00 0. -1.
         13    1    1    2    0    0  0.11195657821E+02  0.54972764628E+00 -0.25022945484E+02  0.27418839422E+02  0.00000000000E+00 0.  1.
<mgrwt>
<rscale>  0 0.22679565E+02</rscale>
<asrwt>0</asrwt>
<pdfrwt beam="1">  1        2 0.32014435E-03 0.22679565E+02</pdfrwt>
<pdfrwt beam="2">  1       -2 0.95068556E-02 0.22679565E+02</pdfrwt>
<totfact> 0.24847278E+06</totfact>
</mgrwt>
</event>
<event>
 4    1  0.4118611E+000  0.2492984E+02  0.7546771E-02  0.1662012E+00
          2   -1    0    0  501    0  0.00000000000E+00  0.00000000000E+00  0.23069377281E+01  0.23069377281E+01  0.00000000000E+00 0. -1.
         -2   -1    0    0    0  501 -0.00000000000E+00 -0.00000000000E+00 -0.67350845682E+02  0.67350845682E+02  0.00000000000E+00 0.  1.
        -11    1    1    2    0    0 -0.48079144648E+01  0.96200423224E+01 -0.14913700833E+02  0.18386944507E+02  0.00000000000E+00 0. -1.
         11    1    1    2    0    0  0.48079144648E+01 -0.96200423224E+01 -0.50130207122E+02  0.51270838903E+02  0.00000000000E+00 0.  1.
<mgrwt>
<rscale>  0 0.24929838E+02</rscale>
<asrwt>0</asrwt>
<pdfrwt beam="1">  1        2 0.35491346E-03 0.24929838E+02</pdfrwt>
<pdfrwt beam="2">  1       -2 0.10361670E-01 0.24929838E+02</pdfrwt>
<totfact> 0.19795854E+06</totfact>
</mgrwt>
</event>
<event>
 4    1  0.4118611E+000  0.2774718E+02  0.7546771E-02  0.1624415E+00
         -2   -1    0    0    0  501 -0.00000000000E+00  0.00000000000E+00  0.46151576844E+02  0.46151576844E+02  0.00000000000E+00 0.  1.
          2   -1    0    0  501    0  0.00000000000E+00 -0.00000000000E+00 -0.41705293226E+01  0.41705293226E+01  0.00000000000E+00 0. -1.
        -11    1    1    2    0    0  0.95981071308E+01 -0.10015207949E+02  0.21389735879E+02  0.25494094448E+02  0.00000000000E+00 0. -1.
         11    1    1    2    0    0 -0.95981071308E+01  0.10015207949E+02  0.20591311642E+02  0.24828011719E+02  0.00000000000E+00 0.  1.
<mgrwt>
<rscale>  0 0.27747180E+02</rscale>
<asrwt>0</asrwt>
<pdfrwt beam="2">  1        2 0.64161993E-03 0.27747180E+02</pdfrwt>
<pdfrwt beam="1">  1       -2 0.71002422E-02 0.27747180E+02</pdfrwt>
<totfact> 0.16474632E+06</totfact>
</mgrwt>
</event>
<event>
 4    1  0.4118611E+000  0.3995117E+02  0.7546771E-02  0.1508571E+00
         -2   -1    0    0    0  501 -0.00000000000E+00  0.00000000000E+00  0.13958945164E+03  0.13958945164E+03  0.00000000000E+00 0. -1.
          2   -1    0    0  501    0  0.00000000000E+00 -0.00000000000E+00 -0.28585540938E+01  0.28585540938E+01  0.00000000000E+00 0.  1.
        -13    1    1    2    0    0  0.89942852886E+01 -0.17691000786E+02  0.60269742213E+02  0.63453215073E+02  0.00000000000E+00 0. -1.
         13    1    1    2    0    0 -0.89942852886E+01  0.17691000786E+02  0.76461155332E+02  0.78994790660E+02  0.00000000000E+00 0.  1.
<mgrwt>
<rscale>  0 0.39951170E+02</rscale>
<asrwt>0</asrwt>
<pdfrwt beam="2">  1        2 0.43977766E-03 0.39951170E+02</pdfrwt>
<pdfrwt beam="1">  1       -2 0.21475295E-01 0.39951170E+02</pdfrwt>
<totfact> 0.55340771E+05</totfact>
</mgrwt>
</event>
<event>
 4    1  0.4118611E+000  0.3296049E+02  0.7546771E-02  0.1567495E+00
         -2   -1    0    0    0  501 -0.00000000000E+00  0.00000000000E+00  0.59557541875E+02  0.59557541875E+02  0.00000000000E+00 0. -1.
          2   -1    0    0  501    0  0.00000000000E+00 -0.00000000000E+00 -0.45602707692E+01  0.45602707692E+01  0.00000000000E+00 0.  1.
        -11    1    1    2    0    0 -0.57512942665E+01 -0.11598334761E+02  0.76604851512E+01  0.15042665579E+02  0.00000000000E+00 0.  1.
         11    1    1    2    0    0  0.57512942665E+01  0.11598334761E+02  0.47336785955E+02  0.49075147066E+02  0.00000000000E+00 0. -1.
<mgrwt>
<rscale>  0 0.32960493E+02</rscale>
<asrwt>0</asrwt>
<pdfrwt beam="2">  1        2 0.70158016E-03 0.32960493E+02</pdfrwt>
<pdfrwt beam="1">  1       -2 0.91626982E-02 0.32960493E+02</pdfrwt>
<totfact> 0.10640134E+06</totfact>
</mgrwt>
</event>
<event>
 4    1  0.4118611E+000  0.2514246E+02  0.7546771E-02  0.1658964E+00
          1   -1    0    0  501    0  0.00000000000E+00  0.00000000000E+00  0.27397161108E+01  0.27397161108E+01  0.00000000000E+00 0. -1.
         -1   -1    0    0    0  501 -0.00000000000E+00 -0.00000000000E+00 -0.57683274141E+02  0.57683274141E+02  0.00000000000E+00 0.  1.
        -13    1    1    2    0    0  0.66829276009E+01  0.98755465089E+01 -0.17904691783E+02  0.21511994980E+02  0.00000000000E+00 0. -1.
         13    1    1    2    0    0 -0.66829276009E+01 -0.98755465089E+01 -0.37038866247E+02  0.38910995272E+02  0.00000000000E+00 0.  1.
<mgrwt>
<rscale>  0 0.25142458E+02</rscale>
<asrwt>0</asrwt>
<pdfrwt beam="1">  1        1 0.42149484E-03 0.25142458E+02</pdfrwt>
<pdfrwt beam="2">  1       -1 0.88743488E-02 0.25142458E+02</pdfrwt>
<totfact> 0.20607472E+06</totfact>
</mgrwt>
</event>
<event>
 4    1  0.4118611E+000  0.2952676E+02  0.7546771E-02  0.1603379E+00
         -2   -1    0    0    0  501 -0.00000000000E+00  0.00000000000E+00  0.20381228846E+02  0.20381228846E+02  0.00000000000E+00 0.  1.
          2   -1    0    0  501    0  0.00000000000E+00 -0.00000000000E+00 -0.10694024732E+02  0.10694024732E+02  0.00000000000E+00 0. -1.
        -11    1    1    2    0    0  0.14140343873E+02  0.42236839084E+01  0.44115424900E+01  0.15402939256E+02  0.00000000000E+00 0.  1.
         11    1    1    2    0    0 -0.14140343873E+02 -0.42236839084E+01  0.52756616241E+01  0.15672314321E+02  0.00000000000E+00 0. -1.
<mgrwt>
<rscale>  0 0.29526758E+02</rscale>
<asrwt>0</asrwt>
<pdfrwt beam="2">  1        2 0.16452346E-02 0.29526758E+02</pdfrwt>
<pdfrwt beam="1">  1       -2 0.31355737E-02 0.29526758E+02</pdfrwt>
<totfact> 0.15728760E+06</totfact>
</mgrwt>
</event>
<event>
 4    1  0.4118611E+000  0.2579372E+02  0.7546771E-02  0.1649856E+00
          2   -1    0    0  501    0  0.00000000000E+00  0.00000000000E+00  0.67580246766E+01  0.67580246766E+01  0.00000000000E+00 0. -1.
         -2   -1    0    0    0  501 -0.00000000000E+00 -0.00000000000E+00 -0.24612073769E+02  0.24612073769E+02  0.00000000000E+00 0.  1.
        -11    1    1    2    0    0  0.81655875257E+01  0.58480539820E+01 -0.18766338960E+02  0.21285018980E+02  0.00000000000E+00 0.  1.
         11    1    1    2    0    0 -0.81655875257E+01 -0.58480539820E+01  0.91228986811E+00  0.10085079465E+02  0.00000000000E+00 0. -1.
<mgrwt>
<rscale>  0 0.25793720E+02</rscale>
<asrwt>0</asrwt>
<pdfrwt beam="1">  1        2 0.10396961E-02 0.25793720E+02</pdfrwt>
<pdfrwt beam="2">  1       -2 0.37864728E-02 0.25793720E+02</pdfrwt>
<totfact> 0.20932109E+06</totfact>
</mgrwt>
</event>
<event>
 4    1  0.4118611E+000  0.4278094E+02  0.7546771E-02  0.1488690E+00
          4   -1    0    0  501    0  0.00000000000E+00  0.00000000000E+00  0.19362996992E+02  0.19362996992E+02  0.00000000000E+00 0. -1.
         -4   -1    0    0    0  501 -0.00000000000E+00 -0.00000000000E+00 -0.23630240423E+02  0.23630240423E+02  0.00000000000E+00 0.  1.
        -11    1    1    2    0    0 -0.86115199366E+01 -0.66492383615E+01  0.16374653731E+02  0.19659601502E+02  0.00000000000E+00 0. -1.
         11    1    1    2    0    0  0.86115199366E+01  0.66492383615E+01 -0.20641897162E+02  0.23333635912E+02  0.00000000000E+00 0.  1.
<mgrwt>
<rscale>  0 0.42780943E+02</rscale>
<asrwt>0</asrwt>
<pdfrwt beam="1">  1        4 0.29789226E-02 0.42780943E+02</pdfrwt>
<pdfrwt beam="2">  1       -4 0.36354216E-02 0.42780943E+02</pdfrwt>
<totfact> 0.21624997E+05</totfact>
</mgrwt>
</event>
<event>
 4    1  0.4118611E+000  0.4474130E+02  0.7546771E-02  0.1475963E+00
         -2   -1    0    0    0  501 -0.00000000000E+00  0.00000000000E+00  0.61468590622E+01  0.61468590622E+01  0.00000000000E+00 0. -1.
          2   -1    0    0  501    0  0.00000000000E+00 -0.00000000000E+00 -0.81414905581E+02  0.81414905581E+02  0.00000000000E+00 0.  1.
        -13    1    1    2    0    0  0.18941805793E+00  0.12448654371E+02 -0.12598686360E+01  0.12513678269E+02  0.00000000000E+00 0. -1.
         13    1    1    2    0    0 -0.18941805793E+00 -0.12448654371E+02 -0.74008177883E+02  0.75048086374E+02  0.00000000000E+00 0.  1.
<mgrwt>
<rscale>  0 0.44741299E+02</rscale>
<asrwt>0</asrwt>
<pdfrwt beam="2">  1        2 0.12525369E-01 0.44741299E+02</pdfrwt>
<pdfrwt beam="1">  1       -2 0.94567073E-03 0.44741299E+02</pdfrwt>
<totfact> 0.75309088E+05</totfact>
</mgrwt>
</event>
<event>
 4    1  0.4118611E+000  0.2606134E+02  0.7546771E-02  0.1646209E+00
          4   -1    0    0  501    0  0.00000000000E+00  0.00000000000E+00  0.29527213155E+01  0.29527213155E+01  0.00000000000E+00 0. -1.
         -4   -1    0    0    0  501 -0.00000000000E+00 -0.00000000000E+00 -0.57505739149E+02  0.57505739149E+02  0.00000000000E+00 0.  1.
        -13    1    1    2    0    0 -0.12460108271E+02  0.13946329272E+01 -0.19042138204E+02  0.22799173812E+02  0.00000000000E+00 0. -1.
         13    1    1    2    0    0  0.12460108271E+02 -0.13946329272E+01 -0.35510879630E+02  0.37659286653E+02  0.00000000000E+00 0.  1.
<mgrwt>
<rscale>  0 0.26061345E+02</rscale>
<asrwt>0</asrwt>
<pdfrwt beam="1">  1        4 0.45426484E-03 0.26061345E+02</pdfrwt>
<pdfrwt beam="2">  1       -4 0.88470364E-02 0.26061345E+02</pdfrwt>
<totfact> 0.63763665E+05</totfact>
</mgrwt>
</event>
<event>
 4    1  0.4118611E+000  0.6459211E+02  0.7546771E-02  0.1379512E+00
          2   -1    0    0  501    0  0.00000000000E+00  0.00000000000E+00  0.11944754886E+02  0.11944754886E+02  0.00000000000E+00 0. -1.
         -2   -1    0    0    0  501 -0.00000000000E+00 -0.00000000000E+00 -0.87321613256E+02  0.87321613256E+02  0.00000000000E+00 0.  1.
        -13    1    1    2    0    0  0.28911098812E+02  0.21592032302E+01 -0.15817955979E+02  0.33026073404E+02  0.00000000000E+00 0. -1.
         13    1    1    2    0    0 -0.28911098812E+02 -0.21592032302E+01 -0.59558902390E+02  0.66240294738E+02  0.00000000000E+00 0.  1.
<mgrwt>
<rscale>  0 0.64592113E+02</rscale>
<asrwt>0</asrwt>
<pdfrwt beam="1">  1        2 0.18376547E-02 0.64592113E+02</pdfrwt>
<pdfrwt beam="2">  1       -2 0.13434094E-01 0.64592113E+02</pdfrwt>
<totfact> 0.19467876E+05</totfact>
</mgrwt>
</event>
<event>
 4    1  0.4118611E+000  0.2236569E+02  0.7546771E-02  0.1702003E+00
          2   -1    0    0  501    0  0.00000000000E+00  0.00000000000E+00  0.33834251876E+02  0.33834251876E+02  0.00000000000E+00 0. -1.
         -2   -1    0    0    0  501 -0.00000000000E+00 -0.00000000000E+00 -0.36961357529E+01  0.36961357529E+01  0.00000000000E+00 0.  1.
        -13    1    1    2    0    0 -0.64752301651E+01  0.81257500381E+01  0.81301140053E+01  0.13192997124E+02  0.00000000000E+00 0.  1.
         13    1    1    2    0    0  0.64752301651E+01 -0.81257500381E+01  0.22008002118E+02  0.24337390505E+02  0.00000000000E+00 0. -1.
<mgrwt>
<rscale>  0 0.22365687E+02</rscale>
<asrwt>0</asrwt>
<pdfrwt beam="1">  1        2 0.52052693E-02 0.22365687E+02</pdfrwt>
<pdfrwt beam="2">  1       -2 0.56863629E-03 0.22365687E+02</pdfrwt>
<totfact> 0.34143029E+06</totfact>
</mgrwt>
</event>
<event>
 4    1  0.4118611E+000  0.3256343E+02  0.7546771E-02  0.1571367E+00
         -2   -1    0    0    0  501 -0.00000000000E+00  0.00000000000E+00  0.14068257870E+02  0.14068257870E+02  0.00000000000E+00 0. -1.
          2   -1    0    0  501    0  0.00000000000E+00 -0.00000000000E+00 -0.18843431688E+02  0.18843431688E+02  0.00000000000E+00 0.  1.
        -11    1    1    2    0    0  0.97689448893E+01 -0.48740259093E+01 -0.14595919882E+02  0.18227158034E+02  0.00000000000E+00 0.  1.
         11    1    1    2    0    0 -0.97689448893E+01  0.48740259093E+01  0.98207460634E+01  0.14684531523E+02  0.00000000000E+00 0. -1.
<mgrwt>
<rscale>  0 0.32563431E+02</rscale>
<asrwt>0</asrwt>
<pdfrwt beam="2">  1        2 0.28989895E-02 0.32563431E+02</pdfrwt>
<pdfrwt beam="1">  1       -2 0.21643474E-02 0.32563431E+02</pdfrwt>
<totfact> 0.13115326E+06</totfact>
</mgrwt>
</event>
<event>
 4    1  0.4118611E+000  0.4488900E+02  0.7546771E-02  0.1475036E+00
         -2   -1    0    0    0  501 -0.00000000000E+00  0.00000000000E+00  0.73605021745E+01  0.73605021745E+01  0.00000000000E+00 0. -1.
          2   -1    0    0  501    0  0.00000000000E+00 -0.00000000000E+00 -0.68440383957E+02  0.68440383957E+02  0.00000000000E+00 0.  1.
        -11    1    1    2    0    0 -0.42509852020E+01  0.20917019280E+02 -0.18820922925E+02  0.28457331402E+02  0.00000000000E+00 0.  1.
         11    1    1    2    0    0  0.42509852020E+01 -0.20917019280E+02 -0.42258958858E+02  0.47343554730E+02  0.00000000000E+00 0. -1.
<mgrwt>
<rscale>  0 0.44889001E+02</rscale>
<asrwt>0</asrwt>
<pdfrwt beam="2">  1        2 0.10529290E-01 0.44889001E+02</pdfrwt>
<pdfrwt beam="1">  1       -2 0.11323849E-02 0.44889001E+02</pdfrwt>
<totfact> 0.71866609E+05</totfact>
</mgrwt>
</event>
<event>
 4    1  0.4118611E+000  0.2120964E+02  0.7546771E-02  0.1722290E+00
         -2   -1    0    0    0  501 -0.00000000000E+00  0.00000000000E+00  0.22153296431E+01  0.22153296431E+01  0.00000000000E+00 0.  1.
          2   -1    0    0  501    0  0.00000000000E+00 -0.00000000000E+00 -0.50765473853E+02  0.50765473853E+02  0.00000000000E+00 0. -1.
        -13    1    1    2    0    0 -0.84277267054E+01  0.58822303787E+01 -0.17744429620E+02  0.20505901448E+02  0.00000000000E+00 0.  1.
         13    1    1    2    0    0  0.84277267054E+01 -0.58822303787E+01 -0.30805714589E+02  0.32474902048E+02  0.00000000000E+00 0. -1.
<mgrwt>
<rscale>  0 0.21209645E+02</rscale>
<asrwt>0</asrwt>
<pdfrwt beam="2">  1        2 0.78100723E-02 0.21209645E+02</pdfrwt>
<pdfrwt beam="1">  1       -2 0.34081997E-03 0.21209645E+02</pdfrwt>
<totfact> 0.40710895E+06</totfact>
</mgrwt>
</event>
<event>
 4    1  0.4118611E+000  0.2130169E+02  0.7546771E-02  0.1720616E+00
         -3   -1    0    0    0  501 -0.00000000000E+00  0.00000000000E+00  0.74681258085E+01  0.74681258085E+01  0.00000000000E+00 0.  1.
          3   -1    0    0  501    0  0.00000000000E+00 -0.00000000000E+00 -0.15189957959E+02  0.15189957959E+02  0.00000000000E+00 0. -1.
        -11    1    1    2    0    0 -0.29666041795E+01 -0.10101329630E+02 -0.55770026531E+01  0.11913880948E+02  0.00000000000E+00 0. -1.
         11    1    1    2    0    0  0.29666041795E+01  0.10101329630E+02 -0.21448294969E+01  0.10744202819E+02  0.00000000000E+00 0.  1.
<mgrwt>
<rscale>  0 0.21301692E+02</rscale>
<asrwt>0</asrwt>
<pdfrwt beam="2">  1        3 0.23369166E-02 0.21301692E+02</pdfrwt>
<pdfrwt beam="1">  1       -3 0.11489424E-02 0.21301692E+02</pdfrwt>
<totfact> 0.15444056E+06</totfact>
</mgrwt>
</event>
<event>
 4    1  0.4118611E+000  0.2180063E+02  0.7546771E-02  0.1711723E+00
         -2   -1    0    0    0  501 -0.00000000000E+00  0.00000000000E+00  0.17244894832E+02  0.17244894832E+02  0.00000000000E+00 0.  1.
          2   -1    0    0  501    0  0.00000000000E+00 -0.00000000000E+00 -0.68899719770E+01  0.68899719770E+01  0.00000000000E+00 0. -1.
        -13    1    1    2    0    0  0.45923538431E+01  0.98843055072E+01  0.53614918430E+01  0.12146390573E+02  0.00000000000E+00 0. -1.
         13    1    1    2    0    0 -0.45923538431E+01 -0.98843055072E+01  0.49934310120E+01  0.11988476236E+02  0.00000000000E+00 0.  1.
<mgrwt>
<rscale>  0 0.21800628E+02</rscale>
<asrwt>0</asrwt>
<pdfrwt beam="2">  1        2 0.10599957E-02 0.21800628E+02</pdfrwt>
<pdfrwt beam="1">  1       -2 0.26530607E-02 0.21800628E+02</pdfrwt>
<totfact> 0.31396206E+06</totfact>
</mgrwt>
</event>
<event>
 4    1  0.4118611E+000  0.3109002E+02  0.7546771E-02  0.1586343E+00
          2   -1    0    0  501    0  0.00000000000E+00  0.00000000000E+00  0.23287656148E+02  0.23287656148E+02  0.00000000000E+00 0.  1.
         -2   -1    0    0    0  501 -0.00000000000E+00 -0.00000000000E+00 -0.10376628531E+02  0.10376628531E+02  0.00000000000E+00 0. -1.
        -13    1    1    2    0    0 -0.93755008487E+01  0.67792722212E+01  0.17697297050E+02  0.21143624828E+02  0.00000000000E+00 0.  1.
         13    1    1    2    0    0  0.93755008487E+01 -0.67792722212E+01 -0.47862694331E+01  0.12520659851E+02  0.00000000000E+00 0. -1.
<mgrwt>
<rscale>  0 0.31090021E+02</rscale>
<asrwt>0</asrwt>
<pdfrwt beam="1">  1        2 0.35827163E-02 0.31090021E+02</pdfrwt>
<pdfrwt beam="2">  1       -2 0.15964044E-02 0.31090021E+02</pdfrwt>
<totfact> 0.15045077E+06</totfact>
</mgrwt>
</event>
<event>
 4    1  0.4118611E+000  0.4266203E+02  0.7546771E-02  0.1489488E+00
          4   -1    0    0  501    0  0.00000000000E+00  0.00000000000E+00  0.46346419693E+02  0.46346419693E+02  0.00000000000E+00 0.  1.
         -4   -1    0    0    0  501 -0.00000000000E+00 -0.00000000000E+00 -0.98176332164E+01  0.98176332164E+01  0.00000000000E+00 0. -1.
        -13    1    1    2    0    0 -0.11870977030E+02  0.76170652518E+01 -0.28023939782E+01  0.14380305654E+02  0.00000000000E+00 0. -1.
         13    1    1    2    0    0  0.11870977030E+02 -0.76170652518E+01  0.39331180455E+02  0.41783747255E+02  0.00000000000E+00 0.  1.
<mgrwt>
<rscale>  0 0.42662028E+02</rscale>
<asrwt>0</asrwt>
<pdfrwt beam="1">  1        4 0.71302183E-02 0.42662028E+02</pdfrwt>
<pdfrwt beam="2">  1       -4 0.15104051E-02 0.42662028E+02</pdfrwt>
<totfact> 0.20870418E+05</totfact>
</mgrwt>
</event>
<event>
 4    1  0.4118611E+000  0.2660689E+02  0.7546771E-02  0.1638939E+00
         -1   -1    0    0    0  501 -0.00000000000E+00  0.00000000000E+00  0.48199266416E+02  0.48199266416E+02  0.00000000000E+00 0.  1.
          1   -1    0    0  501    0  0.00000000000E+00 -0.00000000000E+00 -0.36718730795E+01  0.36718730795E+01  0.00000000000E+00 0. -1.
        -13    1    1    2    0    0  0.11625795952E+02 -0.45188886027E+01  0.31282729625E+02  0.33677717537E+02  0.00000000000E+00 0. -1.
         13    1    1    2    0    0 -0.11625795952E+02  0.45188886027E+01  0.13244663712E+02  0.18193421959E+02  0.00000000000E+00 0.  1.
<mgrwt>
<rscale>  0 0.26606885E+02</rscale>
<asrwt>0</asrwt>
<pdfrwt beam="2">  1        1 0.56490359E-03 0.26606885E+02</pdfrwt>
<pdfrwt beam="1">  1       -1 0.74152713E-02 0.26606885E+02</pdfrwt>
<totfact> 0.18446828E+06</totfact>
</mgrwt>
</event>
<event>
 4    1  0.4118611E+000  0.3278923E+02  0.7546771E-02  0.1569157E+00
          2   -1    0    0  501    0  0.00000000000E+00  0.00000000000E+00  0.49596379982E+01  0.49596379982E+01  0.00000000000E+00 0. -1.
         -2   -1    0    0    0  501 -0.00000000000E+00 -0.00000000000E+00 -0.54194170586E+02  0.54194170586E+02  0.00000000000E+00 0.  1.
        -11    1    1    2    0    0 -0.15893567049E+02  0.38834669317E+01 -0.26506523807E+02  0.31149359436E+02  0.00000000000E+00 0. -1.
         11    1    1    2    0    0  0.15893567049E+02 -0.38834669317E+01 -0.22728008781E+02  0.28004449148E+02  0.00000000000E+00 0.  1.
<mgrwt>
<rscale>  0 0.32789234E+02</rscale>
<asrwt>0</asrwt>
<pdfrwt beam="1">  1        2 0.76302124E-03 0.32789234E+02</pdfrwt>
<pdfrwt beam="2">  1       -2 0.83375646E-02 0.32789234E+02</pdfrwt>
<totfact> 0.10938425E+06</totfact>
</mgrwt>
</event>
<event>
 4    1  0.4118611E+000  0.2191238E+02  0.7546771E-02  0.1709772E+00
         -2   -1    0    0    0  501 -0.00000000000E+00  0.00000000000E+00  0.37543149005E+01  0.37543149005E+01  0.00000000000E+00 0. -1.
          2   -1    0    0  501    0  0.00000000000E+00 -0.00000000000E+00 -0.31973361626E+02  0.31973361626E+02  0.00000000000E+00 0.  1.
        -11    1    1    2    0    0  0.23187936392E+00  0.10907779988E+02 -0.12475269287E+02  0.16573043658E+02  0.00000000000E+00 0. -1.
         11    1    1    2    0    0 -0.23187936392E+00 -0.10907779988E+02 -0.15743777439E+02  0.19154632869E+02  0.00000000000E+00 0.  1.
<mgrwt>
<rscale>  0 0.21912377E+02</rscale>
<asrwt>0</asrwt>
<pdfrwt beam="2">  1        2 0.49189787E-02 0.21912377E+02</pdfrwt>
<pdfrwt beam="1">  1       -2 0.57758691E-03 0.21912377E+02</pdfrwt>
<totfact> 0.35535489E+06</totfact>
</mgrwt>
</event>
<event>
 4    1  0.4118611E+000  0.3229869E+02  0.7546771E-02  0.1573986E+00
         -2   -1    0    0    0  501 -0.00000000000E+00  0.00000000000E+00  0.16855361596E+02  0.16855361596E+02  0.00000000000E+00 0. -1.
          2   -1    0    0  501    0  0.00000000000E+00 -0.00000000000E+00 -0.15472901445E+02  0.15472901445E+02  0.00000000000E+00 0.  1.
        -13    1    1    2    0    0 -0.15750146681E+02  0.81678275508E+00  0.41681830029E+01  0.16312817172E+02  0.00000000000E+00 0.  1.
         13    1    1    2    0    0  0.15750146681E+02 -0.81678275508E+00 -0.27857228521E+01  0.16015445868E+02  0.00000000000E+00 0. -1.
<mgrwt>
<rscale>  0 0.32298690E+02</rscale>
<asrwt>0</asrwt>
<pdfrwt beam="2">  1        2 0.23804464E-02 0.32298690E+02</pdfrwt>
<pdfrwt beam="1">  1       -2 0.25931326E-02 0.32298690E+02</pdfrwt>
<totfact> 0.13095477E+06</totfact>
</mgrwt>
</event>
<event>
 4    1  0.4118611E+000  0.2667634E+02  0.7546771E-02  0.1638029E+00
          2   -1    0    0  501    0  0.00000000000E+00  0.00000000000E+00  0.88770250177E+01  0.88770250177E+01  0.00000000000E+00 0. -1.
         -2   -1    0    0    0  501 -0.00000000000E+00 -0.00000000000E+00 -0.20041258764E+02  0.20041258764E+02  0.00000000000E+00 0.  1.
        -11    1    1    2    0    0  0.45969823159E+01  0.12126367769E+02 -0.89628200487E+01  0.15764300965E+02  0.00000000000E+00 0.  1.
         11    1    1    2    0    0 -0.45969823159E+01 -0.12126367769E+02 -0.22014136980E+01  0.13153982817E+02  0.00000000000E+00 0. -1.
<mgrwt>
<rscale>  0 0.26676338E+02</rscale>
<asrwt>0</asrwt>
<pdfrwt beam="1">  1        2 0.13656962E-02 0.26676338E+02</pdfrwt>
<pdfrwt beam="2">  1       -2 0.30832705E-02 0.26676338E+02</pdfrwt>
<totfact> 0.19802205E+06</totfact>
</mgrwt>
</event>
<event>
 4    1  0.4118611E+000  0.2245136E+02  0.7546771E-02  0.1700561E+00
          1   -1    0    0  501    0  0.00000000000E+00  0.00000000000E+00  0.22447167376E+01  0.22447167376E+01  0.00000000000E+00 0.  1.
         -1   -1    0    0    0  501 -0.00000000000E+00 -0.00000000000E+00 -0.56138896248E+02  0.56138896248E+02  0.00000000000E+00 0. -1.
        -13    1    1    2    0    0  0.10129877217E+02  0.21706918863E+01 -0.15704967131E+02  0.18814151808E+02  0.00000000000E+00 0.  1.
         13    1    1    2    0    0 -0.10129877217E+02 -0.21706918863E+01 -0.38189212380E+02  0.39569461178E+02  0.00000000000E+00 0. -1.
<mgrwt>
<rscale>  0 0.22451363E+02</rscale>
<asrwt>0</asrwt>
<pdfrwt beam="1">  1        1 0.34534103E-03 0.22451363E+02</pdfrwt>
<pdfrwt beam="2">  1       -1 0.86367534E-02 0.22451363E+02</pdfrwt>
<totfact> 0.26692391E+06</totfact>
</mgrwt>
</event>
<event>
 4    1  0.4118611E+000  0.2331332E+02  0.7546771E-02  0.1686481E+00
         -2   -1    0    0    0  501 -0.00000000000E+00  0.00000000000E+00  0.78878968514E+01  0.78878968514E+01  0.00000000000E+00 0.  1.
          2   -1    0    0  501    0  0.00000000000E+00 -0.00000000000E+00 -0.17226106185E+02  0.17226106185E+02  0.00000000000E+00 0. -1.
        -11    1    1    2    0    0  0.76050984750E+01  0.84991818074E+01 -0.72643624981E+01  0.13522003428E+02  0.00000000000E+00 0. -1.
         11    1    1    2    0    0 -0.76050984750E+01 -0.84991818074E+01 -0.20738468351E+01  0.11591999608E+02  0.00000000000E+00 0.  1.
<mgrwt>
<rscale>  0 0.23313322E+02</rscale>
<asrwt>0</asrwt>
<pdfrwt beam="2">  1        2 0.26501702E-02 0.23313322E+02</pdfrwt>
<pdfrwt beam="1">  1       -2 0.12135226E-02 0.23313322E+02</pdfrwt>
<totfact> 0.28946780E+06</totfact>
</mgrwt>
</event>
<event>
 4    1  0.4118611E+000  0.2082443E+02  0.7546771E-02  0.1729413E+00
          2   -1    0    0  501    0  0.00000000000E+00  0.00000000000E+00  0.74624341831E+01  0.74624341831E+01  0.00000000000E+00 0.  1.
         -2   -1    0    0    0  501 -0.00000000000E+00 -0.00000000000E+00 -0.14527991841E+02  0.14527991841E+02  0.00000000000E+00 0. -1.
        -13    1    1    2    0    0 -0.93227945712E+01  0.46194454696E+01 -0.31098440314E+01  0.10859323412E+02  0.00000000000E+00 0.  1.
         13    1    1    2    0    0  0.93227945712E+01 -0.46194454696E+01 -0.39557136262E+01  0.11131102612E+02  0.00000000000E+00 0. -1.
<mgrwt>
<rscale>  0 0.20824426E+02</rscale>
<asrwt>0</asrwt>
<pdfrwt beam="1">  1        2 0.11480668E-02 0.20824426E+02</pdfrwt>
<pdfrwt beam="2">  1       -2 0.22350757E-02 0.20824426E+02</pdfrwt>
<totfact> 0.35174037E+06</totfact>
</mgrwt>
</event>
<event>
 4    1  0.4118611E+000  0.2126878E+02  0.7546771E-02  0.1721214E+00
         -2   -1    0    0    0  501 -0.00000000000E+00  0.00000000000E+00  0.98117950734E+02  0.98117950734E+02  0.00000000000E+00 0. -1.
          2   -1    0    0  501    0  0.00000000000E+00 -0.00000000000E+00 -0.11525953266E+01  0.11525953266E+01  0.00000000000E+00 0.  1.
        -13    1    1    2    0    0 -0.10499128593E+02 -0.45081795380E+00  0.40876982435E+02  0.42206191857E+02  0.00000000000E+00 0. -1.
         13    1    1    2    0    0  0.10499128593E+02  0.45081795380E+00  0.56088372972E+02  0.57064354204E+02  0.00000000000E+00 0.  1.
<mgrwt>
<rscale>  0 0.21268784E+02</rscale>
<asrwt>0</asrwt>
<pdfrwt beam="2">  1        2 0.17732244E-03 0.21268784E+02</pdfrwt>
<pdfrwt beam="1">  1       -2 0.15095063E-01 0.21268784E+02</pdfrwt>
<totfact> 0.26098747E+06</totfact>
</mgrwt>
</event>
<event>
 4    1  0.4118611E+000  0.2546315E+02  0.7546771E-02  0.1654437E+00
         -2   -1    0    0    0  501 -0.00000000000E+00  0.00000000000E+00  0.12246565183E+02  0.12246565183E+02  0.00000000000E+00 0. -1.
          2   -1    0    0  501    0  0.00000000000E+00 -0.00000000000E+00 -0.13235791176E+02  0.13235791176E+02  0.00000000000E+00 0.  1.
        -11    1    1    2    0    0 -0.89553126805E+01  0.82268495390E+01 -0.42676428208E+01  0.12887647333E+02  0.00000000000E+00 0.  1.
         11    1    1    2    0    0  0.89553126805E+01 -0.82268495390E+01  0.32784168283E+01  0.12594709026E+02  0.00000000000E+00 0. -1.
<mgrwt>
<rscale>  0 0.25463148E+02</rscale>
<asrwt>0</asrwt>
<pdfrwt beam="2">  1        2 0.20362756E-02 0.25463148E+02</pdfrwt>
<pdfrwt beam="1">  1       -2 0.18840869E-02 0.25463148E+02</pdfrwt>
<totfact> 0.22976687E+06</totfact>
</mgrwt>
</event>
<event>
 4    1  0.4118611E+000  0.3315865E+02  0.7546771E-02  0.1565588E+00
         -2   -1    0    0    0  501 -0.00000000000E+00  0.00000000000E+00  0.54324535427E+01  0.54324535427E+01  0.00000000000E+00 0. -1.
          2   -1    0    0  501    0  0.00000000000E+00 -0.00000000000E+00 -0.50598515655E+02  0.50598515655E+02  0.00000000000E+00 0.  1.
        -11    1    1    2    0    0  0.16292822552E+02 -0.28361665138E+01 -0.24563886588E+02  0.29612234491E+02  0.00000000000E+00 0.  1.
         11    1    1    2    0    0 -0.16292822552E+02  0.28361665138E+01 -0.20602175523E+02  0.26418734707E+02  0.00000000000E+00 0. -1.
<mgrwt>
<rscale>  0 0.33158654E+02</rscale>
<asrwt>0</asrwt>
<pdfrwt beam="2">  1        2 0.77843870E-02 0.33158654E+02</pdfrwt>
<pdfrwt beam="1">  1       -2 0.83576209E-03 0.33158654E+02</pdfrwt>
<totfact> 0.14325365E+06</totfact>
</mgrwt>
</event>
<event>
 4    1  0.4118611E+000  0.2348203E+02  0.7546771E-02  0.1683814E+00
         -2   -1    0    0    0  501 -0.00000000000E+00  0.00000000000E+00  0.15057838363E+01  0.15057838363E+01  0.00000000000E+00 0. -1.
          2   -1    0    0  501    0  0.00000000000E+00 -0.00000000000E+00 -0.91547955345E+02  0.91547955345E+02  0.00000000000E+00 0.  1.
        -13    1    1    2    0    0 -0.10502166100E+02 -0.47282510044E+01 -0.54057213660E+02  0.55270554539E+02  0.00000000000E+00 0.  1.
         13    1    1    2    0    0  0.10502166100E+02  0.47282510044E+01 -0.35984957849E+02  0.37783184642E+02  0.00000000000E+00 0. -1.
<mgrwt>
<rscale>  0 0.23482030E+02</rscale>
<asrwt>0</asrwt>
<pdfrwt beam="2">  1        2 0.14084299E-01 0.23482030E+02</pdfrwt>
<pdfrwt beam="1">  1       -2 0.23165909E-03 0.23482030E+02</pdfrwt>
<totfact> 0.36105875E+06</totfact>
</mgrwt>
</event>
<event>
 4    1  0.4118611E+000  0.2434496E+02  0.7546771E-02  0.1670593E+00
         -2   -1    0    0    0  501 -0.00000000000E+00  0.00000000000E+00  0.63336244239E+01  0.63336244239E+01  0.00000000000E+00 0. -1.
          2   -1    0    0  501    0  0.00000000000E+00 -0.00000000000E+00 -0.23394072055E+02  0.23394072055E+02  0.00000000000E+00 0.  1.
        -13    1    1    2    0    0 -0.37224631058E+01  0.96536344125E+01 -0.69992921213E+00  0.10370115228E+02  0.00000000000E+00 0. -1.
         13    1    1    2    0    0  0.37224631058E+01 -0.96536344125E+01 -0.16360518419E+02  0.19357581251E+02  0.00000000000E+00 0.  1.
<mgrwt>
<rscale>  0 0.24344960E+02</rscale>
<asrwt>0</asrwt>
<pdfrwt beam="2">  1        2 0.35990880E-02 0.24344960E+02</pdfrwt>
<pdfrwt beam="1">  1       -2 0.97440375E-03 0.24344960E+02</pdfrwt>
<totfact> 0.26950443E+06</totfact>
</mgrwt>
</event>
<event>
 4    1  0.4118611E+000  0.2799703E+02  0.7546771E-02  0.1621346E+00
         -2   -1    0    0    0  501 -0.00000000000E+00  0.00000000000E+00  0.42183681055E+01  0.42183681055E+01  0.00000000000E+00 0. -1.
          2   -1    0    0  501    0  0.00000000000E+00 -0.00000000000E+00 -0.46453604750E+02  0.46453604750E+02  0.00000000000E+00 0.  1.
        -13    1    1    2    0    0  0.12752157564E+02  0.46015271546E+01 -0.27430746246E+02  0.30597996900E+02  0.00000000000E+00 0.  1.
         13    1    1    2    0    0 -0.12752157564E+02 -0.46015271546E+01 -0.14804490398E+02  0.20073975955E+02  0.00000000000E+00 0. -1.
<mgrwt>
<rscale>  0 0.27997029E+02</rscale>
<asrwt>0</asrwt>
<pdfrwt beam="2">  1        2 0.71467086E-02 0.27997029E+02</pdfrwt>
<pdfrwt beam="1">  1       -2 0.64897970E-03 0.27997029E+02</pdfrwt>
<totfact> 0.21169623E+06</totfact>
</mgrwt>
</event>
<event>
 4    1  0.4118611E+000  0.2588246E+02  0.7546771E-02  0.1648641E+00
          2   -1    0    0  501    0  0.00000000000E+00  0.00000000000E+00  0.27300017782E+02  0.27300017782E+02  0.00000000000E+00 0. -1.
         -2   -1    0    0    0  501 -0.00000000000E+00 -0.00000000000E+00 -0.61346282106E+01  0.61346282106E+01  0.00000000000E+00 0.  1.
        -13    1    1    2    0    0 -0.81387476722E+01 -0.61460743341E+01  0.29191993526E+00  0.10202875116E+02  0.00000000000E+00 0.  1.
         13    1    1    2    0    0  0.81387476722E+01  0.61460743341E+01  0.20873469636E+02  0.23231770876E+02  0.00000000000E+00 0. -1.
<mgrwt>
<rscale>  0 0.25882462E+02</rscale>
<asrwt>0</asrwt>
<pdfrwt beam="1">  1        2 0.42000027E-02 0.25882462E+02</pdfrwt>
<pdfrwt beam="2">  1       -2 0.94378897E-03 0.25882462E+02</pdfrwt>
<totfact> 0.23740960E+06</totfact>
</mgrwt>
</event>
<event>
 4    1  0.4118611E+000  0.2825212E+02  0.7546771E-02  0.1618254E+00
          1   -1    0    0  501    0  0.00000000000E+00  0.00000000000E+00  0.43177523302E+01  0.43177523302E+01  0.00000000000E+00 0. -1.
         -1   -1    0    0    0  501 -0.00000000000E+00 -0.00000000000E+00 -0.46215148144E+02  0.46215148144E+02  0.00000000000E+00 0.  1.
        -11    1    1    2    0    0  0.12923882306E+02  0.43942138108E+01 -0.14447851404E+02  0.19876525327E+02  0.00000000000E+00 0. -1.
         11    1    1    2    0    0 -0.12923882306E+02 -0.43942138108E+01 -0.27449544410E+02  0.30656375148E+02  0.00000000000E+00 0.  1.
<mgrwt>
<rscale>  0 0.28252119E+02</rscale>
<asrwt>0</asrwt>
<pdfrwt beam="1">  1        1 0.66426960E-03 0.28252119E+02</pdfrwt>
<pdfrwt beam="2">  1       -1 0.71100227E-02 0.28252119E+02</pdfrwt>
<totfact> 0.16130030E+06</totfact>
</mgrwt>
</event>
<event>
 4    1  0.4118611E+000  0.3022107E+02  0.7546771E-02  0.1595658E+00
         -2   -1    0    0    0  501 -0.00000000000E+00  0.00000000000E+00  0.35355989146E+01  0.35355989146E+01  0.00000000000E+00 0.  1.
          2   -1    0    0  501    0  0.00000000000E+00 -0.00000000000E+00 -0.64579788738E+02  0.64579788738E+02  0.00000000000E+00 0. -1.
        -11    1    1    2    0    0 -0.14727441698E+02 -0.10594315416E+01 -0.23285589550E+02  0.27572424900E+02  0.00000000000E+00 0. -1.
         11    1    1    2    0    0  0.14727441698E+02  0.10594315416E+01 -0.37758600273E+02  0.40542962752E+02  0.00000000000E+00 0.  1.
<mgrwt>
<rscale>  0 0.30221068E+02</rscale>
<asrwt>0</asrwt>
<pdfrwt beam="2">  1        2 0.99353519E-02 0.30221068E+02</pdfrwt>
<pdfrwt beam="1">  1       -2 0.54393831E-03 0.30221068E+02</pdfrwt>
<totfact> 0.18693524E+06</totfact>
</mgrwt>
</event>
<event>
 4    1  0.4118611E+000  0.5633046E+02  0.7546771E-02  0.1413910E+00
          2   -1    0    0  501    0  0.00000000000E+00  0.00000000000E+00  0.10432969270E+03  0.10432969270E+03  0.00000000000E+00 0.  1.
         -2   -1    0    0    0  501 -0.00000000000E+00 -0.00000000000E+00 -0.76035901203E+01  0.76035901203E+01  0.00000000000E+00 0. -1.
        -13    1    1    2    0    0  0.25850071730E+02  0.57986973961E+01  0.67363252679E+02  0.72385488265E+02  0.00000000000E+00 0.  1.
         13    1    1    2    0    0 -0.25850071730E+02 -0.57986973961E+01  0.29362849904E+02  0.39547794558E+02  0.00000000000E+00 0. -1.
<mgrwt>
<rscale>  0 0.56330461E+02</rscale>
<asrwt>0</asrwt>
<pdfrwt beam="1">  1        2 0.16050721E-01 0.56330461E+02</pdfrwt>
<pdfrwt beam="2">  1       -2 0.11697832E-02 0.56330461E+02</pdfrwt>
<totfact> 0.44667108E+05</totfact>
</mgrwt>
</event>
<event>
 4    1  0.4118611E+000  0.2818259E+02  0.7546771E-02  0.1619092E+00
          2   -1    0    0  501    0  0.00000000000E+00  0.00000000000E+00  0.13770851169E+03  0.13770851169E+03  0.00000000000E+00 0. -1.
         -2   -1    0    0    0  501 -0.00000000000E+00 -0.00000000000E+00 -0.14419200556E+01  0.14419200556E+01  0.00000000000E+00 0.  1.
        -11    1    1    2    0    0  0.11515146591E+02 -0.81158453697E+01  0.69687754864E+02  0.71097459343E+02  0.00000000000E+00 0. -1.
         11    1    1    2    0    0 -0.11515146591E+02  0.81158453697E+01  0.66578836766E+02  0.68052972398E+02  0.00000000000E+00 0.  1.
<mgrwt>
<rscale>  0 0.28182595E+02</rscale>
<asrwt>0</asrwt>
<pdfrwt beam="1">  1        2 0.21185915E-01 0.28182595E+02</pdfrwt>
<pdfrwt beam="2">  1       -2 0.22183396E-03 0.28182595E+02</pdfrwt>
<totfact> 0.26271903E+06</totfact>
</mgrwt>
</event>
<event>
 4    1  0.4118611E+000  0.2220454E+02  0.7546771E-02  0.1704738E+00
         -2   -1    0    0    0  501 -0.00000000000E+00  0.00000000000E+00  0.37161478507E+01  0.37161478507E+01  0.00000000000E+00 0. -1.
          2   -1    0    0  501    0  0.00000000000E+00 -0.00000000000E+00 -0.33168860232E+02  0.33168860232E+02  0.00000000000E+00 0.  1.
        -13    1    1    2    0    0 -0.62015989187E+01  0.87576258453E+01 -0.99973209664E+01  0.14666365129E+02  0.00000000000E+00 0.  1.
         13    1    1    2    0    0  0.62015989187E+01 -0.87576258453E+01 -0.19455391414E+02  0.22218642953E+02  0.00000000000E+00 0. -1.
<mgrwt>
<rscale>  0 0.22204539E+02</rscale>
<asrwt>0</asrwt>
<pdfrwt beam="2">  1        2 0.51029018E-02 0.22204539E+02</pdfrwt>
<pdfrwt beam="1">  1       -2 0.57171503E-03 0.22204539E+02</pdfrwt>
<totfact> 0.34628350E+06</totfact>
</mgrwt>
</event>
<event>
 4    1  0.4118611E+000  0.3947745E+02  0.7546771E-02  0.1512092E+00
          2   -1    0    0  501    0  0.00000000000E+00  0.00000000000E+00  0.42768783035E+01  0.42768783035E+01  0.00000000000E+00 0.  1.
         -2   -1    0    0    0  501 -0.00000000000E+00 -0.00000000000E+00 -0.91098504940E+02  0.91098504940E+02  0.00000000000E+00 0. -1.
        -13    1    1    2    0    0 -0.18066502585E+02 -0.13270882142E+00 -0.24204256286E+02  0.30203677750E+02  0.00000000000E+00 0.  1.
         13    1    1    2    0    0  0.18066502585E+02  0.13270882142E+00 -0.62617370351E+02  0.65171705494E+02  0.00000000000E+00 0. -1.
<mgrwt>
<rscale>  0 0.39477448E+02</rscale>
<asrwt>0</asrwt>
<pdfrwt beam="1">  1        2 0.65798130E-03 0.39477448E+02</pdfrwt>
<pdfrwt beam="2">  1       -2 0.14015154E-01 0.39477448E+02</pdfrwt>
<totfact> 0.63873332E+05</totfact>
</mgrwt>
</event>
<event>
 4    1  0.4118611E+000  0.4454048E+02  0.7546771E-02  0.1477231E+00
         -2   -1    0    0    0  501 -0.00000000000E+00  0.00000000000E+00  0.32441897030E+02  0.32441897030E+02  0.00000000000E+00 0. -1.
          2   -1    0    0  501    0  0.00000000000E+00 -0.00000000000E+00 -0.15287751107E+02  0.15287751107E+02  0.00000000000E+00 0.  1.
        -13    1    1    2    0    0  0.34101068186E+00 -0.19217273286E+02  0.20631697631E+02  0.28197284053E+02  0.00000000000E+00 0. -1.
         13    1    1    2    0    0 -0.34101068186E+00  0.19217273286E+02 -0.34775517081E+01  0.19532364084E+02  0.00000000000E+00 0.  1.
<mgrwt>
<rscale>  0 0.44540483E+02</rscale>
<asrwt>0</asrwt>
<pdfrwt beam="2">  1        2 0.23519617E-02 0.44540483E+02</pdfrwt>
<pdfrwt beam="1">  1       -2 0.49910611E-02 0.44540483E+02</pdfrwt>
<totfact> 0.57477247E+05</totfact>
</mgrwt>
</event>
<event>
 4    1  0.4118611E+000  0.6987684E+02  0.7546771E-02  0.1360512E+00
          1   -1    0    0  501    0  0.00000000000E+00  0.00000000000E+00  0.82745746426E+02  0.82745746426E+02  0.00000000000E+00 0. -1.
         -1   -1    0    0    0  501 -0.00000000000E+00 -0.00000000000E+00 -0.14752337314E+02  0.14752337314E+02  0.00000000000E+00 0.  1.
        -11    1    1    2    0    0  0.95469378426E+01  0.10055873048E+02  0.78742258836E+02  0.79953786224E+02  0.00000000000E+00 0. -1.
         11    1    1    2    0    0 -0.95469378426E+01 -0.10055873048E+02 -0.10748849724E+02  0.17544297516E+02  0.00000000000E+00 0.  1.
<mgrwt>
<rscale>  0 0.69876839E+02</rscale>
<asrwt>0</asrwt>
<pdfrwt beam="1">  1        1 0.12730115E-01 0.69876839E+02</pdfrwt>
<pdfrwt beam="2">  1       -1 0.22695904E-02 0.69876839E+02</pdfrwt>
<totfact> 0.20728769E+05</totfact>
</mgrwt>
</event>
<event>
 4    1  0.4118611E+000  0.3777153E+02  0.7546771E-02  0.1525282E+00
          4   -1    0    0  501    0  0.00000000000E+00  0.00000000000E+00  0.11618053418E+03  0.11618053418E+03  0.00000000000E+00 0.  1.
         -4   -1    0    0    0  501 -0.00000000000E+00 -0.00000000000E+00 -0.30699816926E+01  0.30699816926E+01  0.00000000000E+00 0. -1.
        -13    1    1    2    0    0 -0.17041655033E+02 -0.70309417873E+01  0.43607111148E+02  0.47343767185E+02  0.00000000000E+00 0. -1.
         13    1    1    2    0    0  0.17041655033E+02  0.70309417873E+01  0.69503441335E+02  0.71906748682E+02  0.00000000000E+00 0.  1.
<mgrwt>
<rscale>  0 0.37771530E+02</rscale>
<asrwt>0</asrwt>
<pdfrwt beam="1">  1        4 0.17873925E-01 0.37771530E+02</pdfrwt>
<pdfrwt beam="2">  1       -4 0.47230497E-03 0.37771530E+02</pdfrwt>
<totfact> 0.23353386E+05</totfact>
</mgrwt>
</event>
<event>
 4    1  0.4118611E+000  0.1227485E+03  0.7546771E-02  0.1238631E+00
          2   -1    0    0  501    0  0.00000000000E+00  0.00000000000E+00  0.38038647062E+03  0.38038647062E+03  0.00000000000E+00 0.  1.
         -2   -1    0    0    0  501 -0.00000000000E+00 -0.00000000000E+00 -0.99025594396E+01  0.99025594396E+01  0.00000000000E+00 0. -1.
        -11    1    1    2    0    0 -0.31478954785E+02  0.45404141253E+02  0.10026087106E+03  0.11447577430E+03  0.00000000000E+00 0. -1.
         11    1    1    2    0    0  0.31478954785E+02 -0.45404141253E+02  0.27022304013E+03  0.27581325576E+03  0.00000000000E+00 0.  1.
<mgrwt>
<rscale>  0 0.12274852E+03</rscale>
<asrwt>0</asrwt>
<pdfrwt beam="1">  1        2 0.58520984E-01 0.12274852E+03</pdfrwt>
<pdfrwt beam="2">  1       -2 0.15234710E-02 0.12274852E+03</pdfrwt>
<totfact> 0.87814323E+04</totfact>
</mgrwt>
</event>
<event>
 4    1  0.4118611E+000  0.2138709E+02  0.7546771E-02  0.1719073E+00
          4   -1    0    0  501    0  0.00000000000E+00  0.00000000000E+00  0.45857963100E+02  0.45857963100E+02  0.00000000000E+00 0. -1.
         -4   -1    0    0    0  501 -0.00000000000E+00 -0.00000000000E+00 -0.24936117637E+01  0.24936117637E+01  0.00000000000E+00 0.  1.
        -11    1    1    2    0    0  0.55475232777E+01 -0.87048098052E+01  0.15366846715E+02  0.18511853128E+02  0.00000000000E+00 0.  1.
         11    1    1    2    0    0 -0.55475232777E+01  0.87048098052E+01  0.27997504621E+02  0.29839721736E+02  0.00000000000E+00 0. -1.
<mgrwt>
<rscale>  0 0.21387095E+02</rscale>
<asrwt>0</asrwt>
<pdfrwt beam="1">  1        4 0.70550706E-02 0.21387095E+02</pdfrwt>
<pdfrwt beam="2">  1       -4 0.38363261E-03 0.21387095E+02</pdfrwt>
<totfact> 0.10104743E+06</totfact>
</mgrwt>
</event>
<event>
 4    1  0.4118611E+000  0.2495435E+02  0.7546771E-02  0.1661658E+00
          1   -1    0    0  501    0  0.00000000000E+00  0.00000000000E+00  0.38172157601E+02  0.38172157601E+02  0.00000000000E+00 0.  1.
         -1   -1    0    0    0  501 -0.00000000000E+00 -0.00000000000E+00 -0.40783625511E+01  0.40783625511E+01  0.00000000000E+00 0. -1.
        -13    1    1    2    0    0 -0.10592711286E+02 -0.49094011134E+01  0.95948663016E+01  0.15111889724E+02  0.00000000000E+00 0. -1.
         13    1    1    2    0    0  0.10592711286E+02  0.49094011134E+01  0.24498928749E+02  0.27138630428E+02  0.00000000000E+00 0.  1.
<mgrwt>
<rscale>  0 0.24954350E+02</rscale>
<asrwt>0</asrwt>
<pdfrwt beam="1">  1        1 0.58726394E-02 0.24954350E+02</pdfrwt>
<pdfrwt beam="2">  1       -1 0.62744042E-03 0.24954350E+02</pdfrwt>
<totfact> 0.24792407E+06</totfact>
</mgrwt>
</event>
<event>
 4    1  0.4118611E+000  0.4087859E+02  0.7546771E-02  0.1501844E+00
         -2   -1    0    0    0  501 -0.00000000000E+00  0.00000000000E+00  0.12061262622E+03  0.12061262622E+03  0.00000000000E+00 0.  1.
          2   -1    0    0  501    0  0.00000000000E+00 -0.00000000000E+00 -0.34636908091E+01  0.34636908091E+01  0.00000000000E+00 0. -1.
        -13    1    1    2    0    0  0.68496333079E+01  0.17237611698E+02  0.84633745656E+02  0.86642504796E+02  0.00000000000E+00 0.  1.
         13    1    1    2    0    0 -0.68496333079E+01 -0.17237611698E+02  0.32515189754E+02  0.37433812232E+02  0.00000000000E+00 0. -1.
<mgrwt>
<rscale>  0 0.40878593E+02</rscale>
<asrwt>0</asrwt>
<pdfrwt beam="2">  1        2 0.53287560E-03 0.40878593E+02</pdfrwt>
<pdfrwt beam="1">  1       -2 0.18555785E-01 0.40878593E+02</pdfrwt>
<totfact> 0.54701630E+05</totfact>
</mgrwt>
</event>
<event>
 4    1  0.4118611E+000  0.3151074E+02  0.7546771E-02  0.1581966E+00
          2   -1    0    0  501    0  0.00000000000E+00  0.00000000000E+00  0.16718702132E+02  0.16718702132E+02  0.00000000000E+00 0.  1.
         -2   -1    0    0    0  501 -0.00000000000E+00 -0.00000000000E+00 -0.14847542408E+02  0.14847542408E+02  0.00000000000E+00 0. -1.
        -11    1    1    2    0    0 -0.13053249800E+02  0.80792247151E+01  0.44873065130E+01  0.15993658809E+02  0.00000000000E+00 0.  1.
         11    1    1    2    0    0  0.13053249800E+02 -0.80792247151E+01 -0.26161467884E+01  0.15572585731E+02  0.00000000000E+00 0. -1.
<mgrwt>
<rscale>  0 0.31510737E+02</rscale>
<asrwt>0</asrwt>
<pdfrwt beam="1">  1        2 0.25721080E-02 0.31510737E+02</pdfrwt>
<pdfrwt beam="2">  1       -2 0.22842373E-02 0.31510737E+02</pdfrwt>
<totfact> 0.14035964E+06</totfact>
</mgrwt>
</event>
<event>
 4    1  0.4118611E+000  0.2335063E+02  0.7546771E-02  0.1685889E+00
          2   -1    0    0  501    0  0.00000000000E+00  0.00000000000E+00  0.88253213338E+02  0.88253213338E+02  0.00000000000E+00 0. -1.
         -2   -1    0    0    0  501 -0.00000000000E+00 -0.00000000000E+00 -0.15445665802E+01  0.15445665802E+01  0.00000000000E+00 0.  1.
        -11    1    1    2    0    0 -0.13857132592E+01  0.11109134854E+02  0.30611492223E+02  0.32594424900E+02  0.00000000000E+00 0. -1.
         11    1    1    2    0    0  0.13857132592E+01 -0.11109134854E+02  0.56097154534E+02  0.57203355018E+02  0.00000000000E+00 0.  1.
<mgrwt>
<rscale>  0 0.23350629E+02</rscale>
<asrwt>0</asrwt>
<pdfrwt beam="1">  1        2 0.13577414E-01 0.23350629E+02</pdfrwt>
<pdfrwt beam="2">  1       -2 0.23762570E-03 0.23350629E+02</pdfrwt>
<totfact> 0.36275638E+06</totfact>
</mgrwt>
</event>
<event>
 4    1  0.4118611E+000  0.4742987E+02  0.7546771E-02  0.1459719E+00
          2   -1    0    0  501    0  0.00000000000E+00  0.00000000000E+00  0.41649156662E+02  0.41649156662E+02  0.00000000000E+00 0. -1.
         -2   -1    0    0    0  501 -0.00000000000E+00 -0.00000000000E+00 -0.13503228565E+02  0.13503228565E+02  0.00000000000E+00 0.  1.
        -11    1    1    2    0    0  0.21719883257E+02  0.16255761236E+01  0.24981319726E+02  0.33143056010E+02  0.00000000000E+00 0. -1.
         11    1    1    2    0    0 -0.21719883257E+02 -0.16255761236E+01  0.31646083707E+01  0.22009329216E+02  0.00000000000E+00 0.  1.
<mgrwt>
<rscale>  0 0.47429867E+02</rscale>
<asrwt>0</asrwt>
<pdfrwt beam="1">  1        2 0.64075625E-02 0.47429867E+02</pdfrwt>
<pdfrwt beam="2">  1       -2 0.20774198E-02 0.47429867E+02</pdfrwt>
<totfact> 0.56831863E+05</totfact>
</mgrwt>
</event>
<event>
 4    1  0.4118611E+000  0.4351088E+02  0.7546771E-02  0.1483858E+00
          1   -1    0    0  501    0  0.00000000000E+00  0.00000000000E+00  0.13052513256E+03  0.13052513256E+03  0.00000000000E+00 0. -1.
         -1   -1    0    0    0  501 -0.00000000000E+00 -0.00000000000E+00 -0.36261157344E+01  0.36261157344E+01  0.00000000000E+00 0.  1.
        -11    1    1    2    0    0  0.19148145474E+02 -0.90301367258E+01  0.48001529117E+02  0.52462764338E+02  0.00000000000E+00 0. -1.
         11    1    1    2    0    0 -0.19148145474E+02  0.90301367258E+01  0.78897487706E+02  0.81688483954E+02  0.00000000000E+00 0.  1.
<mgrwt>
<rscale>  0 0.43510883E+02</rscale>
<asrwt>0</asrwt>
<pdfrwt beam="1">  1        1 0.20080786E-01 0.43510883E+02</pdfrwt>
<pdfrwt beam="2">  1       -1 0.55786406E-03 0.43510883E+02</pdfrwt>
<totfact> 0.74176740E+05</totfact>
</mgrwt>
</event>
<event>
 4    1  0.4118611E+000  0.2511210E+02  0.7546771E-02  0.1659397E+00
         -1   -1    0    0    0  501 -0.00000000000E+00  0.00000000000E+00  0.11004886651E+03  0.11004886651E+03  0.00000000000E+00 0. -1.
          1   -1    0    0  501    0  0.00000000000E+00 -0.00000000000E+00 -0.14325851815E+01  0.14325851815E+01  0.00000000000E+00 0.  1.
        -13    1    1    2    0    0 -0.46736567580E+01 -0.11651633068E+02  0.55308274086E+02  0.56715154968E+02  0.00000000000E+00 0. -1.
         13    1    1    2    0    0  0.46736567580E+01  0.11651633068E+02  0.53308007239E+02  0.54766296720E+02  0.00000000000E+00 0.  1.
<mgrwt>
<rscale>  0 0.25112099E+02</rscale>
<asrwt>0</asrwt>
<pdfrwt beam="2">  1        1 0.22039781E-03 0.25112099E+02</pdfrwt>
<pdfrwt beam="1">  1       -1 0.16930588E-01 0.25112099E+02</pdfrwt>
<totfact> 0.18858079E+06</totfact>
</mgrwt>
</event>
<event>
 4    1  0.4118611E+000  0.3057149E+02  0.7546771E-02  0.1591856E+00
         -2   -1    0    0    0  501 -0.00000000000E+00  0.00000000000E+00  0.26971526638E+02  0.26971526638E+02  0.00000000000E+00 0. -1.
          2   -1    0    0  501    0  0.00000000000E+00 -0.00000000000E+00 -0.86629886593E+01  0.86629886593E+01  0.00000000000E+00 0.  1.
        -11    1    1    2    0    0  0.10832794186E+02 -0.76456700869E+01  0.18019695414E+02  0.22372195328E+02  0.00000000000E+00 0. -1.
         11    1    1    2    0    0 -0.10832794186E+02  0.76456700869E+01  0.28884256497E+00  0.13262319970E+02  0.00000000000E+00 0.  1.
<mgrwt>
<rscale>  0 0.30571492E+02</rscale>
<asrwt>0</asrwt>
<pdfrwt beam="2">  1        2 0.13327675E-02 0.30571492E+02</pdfrwt>
<pdfrwt beam="1">  1       -2 0.41494656E-02 0.30571492E+02</pdfrwt>
<totfact> 0.14102751E+06</totfact>
</mgrwt>
</event>
<event>
 4    1  0.4118611E+000  0.3940758E+02  0.7546771E-02  0.1512617E+00
         -1   -1    0    0    0  501 -0.00000000000E+00  0.00000000000E+00  0.29654318020E+01  0.29654318020E+01  0.00000000000E+00 0.  1.
          1   -1    0    0  501    0  0.00000000000E+00 -0.00000000000E+00 -0.13092166166E+03  0.13092166166E+03  0.00000000000E+00 0. -1.
        -11    1    1    2    0    0  0.16904246614E+02 -0.31714424471E+01 -0.96641408044E+02  0.98159937599E+02  0.00000000000E+00 0. -1.
         11    1    1    2    0    0 -0.16904246614E+02  0.31714424471E+01 -0.31314821811E+02  0.35727155860E+02  0.00000000000E+00 0.  1.
<mgrwt>
<rscale>  0 0.39407576E+02</rscale>
<asrwt>0</asrwt>
<pdfrwt beam="2">  1        1 0.20141800E-01 0.39407576E+02</pdfrwt>
<pdfrwt beam="1">  1       -1 0.45622015E-03 0.39407576E+02</pdfrwt>
<totfact> 0.94648985E+05</totfact>
</mgrwt>
</event>
<event>
 4    1  0.4118611E+000  0.3203587E+02  0.7546771E-02  0.1576617E+00
         -2   -1    0    0    0  501 -0.00000000000E+00  0.00000000000E+00  0.11793649750E+02  0.11793649750E+02  0.00000000000E+00 0. -1.
          2   -1    0    0  501    0  0.00000000000E+00 -0.00000000000E+00 -0.21755287460E+02  0.21755287460E+02  0.00000000000E+00 0.  1.
        -11    1    1    2    0    0 -0.93777211938E+01 -0.58508410688E+01  0.71598405209E+01  0.13169560064E+02  0.00000000000E+00 0. -1.
         11    1    1    2    0    0  0.93777211938E+01  0.58508410688E+01 -0.17121478231E+02  0.20379377145E+02  0.00000000000E+00 0.  1.
<mgrwt>
<rscale>  0 0.32035870E+02</rscale>
<asrwt>0</asrwt>
<pdfrwt beam="2">  1        2 0.33469673E-02 0.32035870E+02</pdfrwt>
<pdfrwt beam="1">  1       -2 0.18144077E-02 0.32035870E+02</pdfrwt>
<totfact> 0.13875363E+06</totfact>
</mgrwt>
</event>
<event>
 4    1  0.4118611E+000  0.6503335E+02  0.7546771E-02  0.1377846E+00
         -2   -1    0    0    0  501 -0.00000000000E+00  0.00000000000E+00  0.13446175110E+02  0.13446175110E+02  0.00000000000E+00 0.  1.
          2   -1    0    0  501    0  0.00000000000E+00 -0.00000000000E+00 -0.78634568314E+02  0.78634568314E+02  0.00000000000E+00 0. -1.
        -13    1    1    2    0    0 -0.25772853720E+02  0.19583005848E+02 -0.28207174229E+02  0.42934587280E+02  0.00000000000E+00 0. -1.
         13    1    1    2    0    0  0.25772853720E+02 -0.19583005848E+02 -0.36981218975E+02  0.49146156144E+02  0.00000000000E+00 0.  1.
<mgrwt>
<rscale>  0 0.65033351E+02</rscale>
<asrwt>0</asrwt>
<pdfrwt beam="2">  1        2 0.12097626E-01 0.65033351E+02</pdfrwt>
<pdfrwt beam="1">  1       -2 0.20686423E-02 0.65033351E+02</pdfrwt>
<totfact> 0.28545097E+05</totfact>
</mgrwt>
</event>
<event>
 4    1  0.4118611E+000  0.2433743E+02  0.7546771E-02  0.1670705E+00
         -4   -1    0    0    0  501 -0.00000000000E+00  0.00000000000E+00  0.10112319209E+03  0.10112319209E+03  0.00000000000E+00 0.  1.
          4   -1    0    0  501    0  0.00000000000E+00 -0.00000000000E+00 -0.14643284378E+01  0.14643284378E+01  0.00000000000E+00 0. -1.
        -11    1    1    2    0    0  0.25861180845E+01 -0.11857791303E+02  0.46101062371E+02  0.47671827876E+02  0.00000000000E+00 0. -1.
         11    1    1    2    0    0 -0.25861180845E+01  0.11857791303E+02  0.53557801283E+02  0.54915692653E+02  0.00000000000E+00 0.  1.
<mgrwt>
<rscale>  0 0.24337425E+02</rscale>
<asrwt>0</asrwt>
<pdfrwt beam="2">  1        4 0.22528138E-03 0.24337425E+02</pdfrwt>
<pdfrwt beam="1">  1       -4 0.15557409E-01 0.24337425E+02</pdfrwt>
<totfact> 0.64975900E+05</totfact>
</mgrwt>
</event>
<event>
 4    1  0.4118611E+000  0.5021684E+02  0.7546771E-02  0.1444175E+00
         -1   -1    0    0    0  501 -0.00000000000E+00  0.00000000000E+00  0.49174661591E+02  0.49174661591E+02  0.00000000000E+00 0.  1.
          1   -1    0    0  501    0  0.00000000000E+00 -0.00000000000E+00 -0.12820277717E+02  0.12820277717E+02  0.00000000000E+00 0. -1.
        -11    1    1    2    0    0  0.10901903591E+02  0.62387852726E+01 -0.86626989118E+01  0.15258318912E+02  0.00000000000E+00 0. -1.
         11    1    1    2    0    0 -0.10901903591E+02 -0.62387852726E+01  0.45017082785E+02  0.46736620396E+02  0.00000000000E+00 0.  1.
<mgrwt>
<rscale>  0 0.50216843E+02</rscale>
<asrwt>0</asrwt>
<pdfrwt beam="2">  1        1 0.19723504E-02 0.50216843E+02</pdfrwt>
<pdfrwt beam="1">  1       -1 0.75653325E-02 0.50216843E+02</pdfrwt>
<totfact> 0.40511696E+05</totfact>
</mgrwt>
</event>
<event>
 4    1  0.4118611E+000  0.5452011E+02  0.7546771E-02  0.1422382E+00
         -2   -1    0    0    0  501 -0.00000000000E+00  0.00000000000E+00  0.98435301517E+01  0.98435301517E+01  0.00000000000E+00 0.  1.
          2   -1    0    0  501    0  0.00000000000E+00 -0.00000000000E+00 -0.75492298393E+02  0.75492298393E+02  0.00000000000E+00 0. -1.
        -11    1    1    2    0    0 -0.11487100606E+02 -0.38847423835E+01 -0.71038325345E+02  0.72065861345E+02  0.00000000000E+00 0. -1.
         11    1    1    2    0    0  0.11487100606E+02  0.38847423835E+01  0.53895571028E+01  0.13269967200E+02  0.00000000000E+00 0.  1.
<mgrwt>
<rscale>  0 0.54520114E+02</rscale>
<asrwt>0</asrwt>
<pdfrwt beam="2">  1        2 0.11614200E-01 0.54520114E+02</pdfrwt>
<pdfrwt beam="1">  1       -2 0.15143892E-02 0.54520114E+02</pdfrwt>
<totfact> 0.44778688E+05</totfact>
</mgrwt>
</event>
<event>
 4    1  0.4118611E+000  0.2661509E+02  0.7546771E-02  0.1638832E+00
          2   -1    0    0  501    0  0.00000000000E+00  0.00000000000E+00  0.55332541363E+02  0.55332541363E+02  0.00000000000E+00 0. -1.
         -2   -1    0    0    0  501 -0.00000000000E+00 -0.00000000000E+00 -0.32004807003E+01  0.32004807003E+01  0.00000000000E+00 0.  1.
        -13    1    1    2    0    0 -0.20018359383E+01 -0.10721548163E+02  0.42833976824E+02  0.44200775024E+02  0.00000000000E+00 0. -1.
         13    1    1    2    0    0  0.20018359383E+01  0.10721548163E+02  0.92980838381E+01  0.14332247039E+02  0.00000000000E+00 0.  1.
<mgrwt>
<rscale>  0 0.26615088E+02</rscale>
<asrwt>0</asrwt>
<pdfrwt beam="1">  1        2 0.85126980E-02 0.26615088E+02</pdfrwt>
<pdfrwt beam="2">  1       -2 0.49238169E-03 0.26615088E+02</pdfrwt>
<totfact> 0.24524789E+06</totfact>
</mgrwt>
</event>
<event>
 4    1  0.4118611E+000  0.2378963E+02  0.7546771E-02  0.1679021E+00
         -1   -1    0    0    0  501 -0.00000000000E+00  0.00000000000E+00  0.84610874623E+02  0.84610874623E+02  0.00000000000E+00 0.  1.
          1   -1    0    0  501    0  0.00000000000E+00 -0.00000000000E+00 -0.16722030952E+01  0.16722030952E+01  0.00000000000E+00 0. -1.
        -11    1    1    2    0    0  0.27832889363E+01  0.10705739920E+02  0.25607206710E+02  0.27894239549E+02  0.00000000000E+00 0. -1.
         11    1    1    2    0    0 -0.27832889363E+01 -0.10705739920E+02  0.57331464818E+02  0.58388838169E+02  0.00000000000E+00 0.  1.
<mgrwt>
<rscale>  0 0.23789625E+02</rscale>
<asrwt>0</asrwt>
<pdfrwt beam="2">  1        1 0.25726208E-03 0.23789625E+02</pdfrwt>
<pdfrwt beam="1">  1       -1 0.13017054E-01 0.23789625E+02</pdfrwt>
<totfact> 0.22242532E+06</totfact>
</mgrwt>
</event>
<event>
 4    1  0.4118611E+000  0.3946953E+02  0.7546771E-02  0.1512152E+00
          1   -1    0    0  501    0  0.00000000000E+00  0.00000000000E+00  0.66044759364E+01  0.66044759364E+01  0.00000000000E+00 0.  1.
         -1   -1    0    0    0  501 -0.00000000000E+00 -0.00000000000E+00 -0.58969230728E+02  0.58969230728E+02  0.00000000000E+00 0. -1.
        -13    1    1    2    0    0  0.13591399636E+02  0.14183942519E+02 -0.23051887307E+02  0.30286958874E+02  0.00000000000E+00 0.  1.
         13    1    1    2    0    0 -0.13591399636E+02 -0.14183942519E+02 -0.29312867485E+02  0.35286747790E+02  0.00000000000E+00 0. -1.
<mgrwt>
<rscale>  0 0.39469526E+02</rscale>
<asrwt>0</asrwt>
<pdfrwt beam="1">  1        1 0.10160732E-02 0.39469526E+02</pdfrwt>
<pdfrwt beam="2">  1       -1 0.90721898E-02 0.39469526E+02</pdfrwt>
<totfact> 0.71344507E+05</totfact>
</mgrwt>
</event>
<event>
 4    1  0.4118611E+000  0.4116901E+02  0.7546771E-02  0.1499781E+00
          1   -1    0    0  501    0  0.00000000000E+00  0.00000000000E+00  0.18068388449E+02  0.18068388449E+02  0.00000000000E+00 0. -1.
         -1   -1    0    0    0  501 -0.00000000000E+00 -0.00000000000E+00 -0.23450999973E+02  0.23450999973E+02  0.00000000000E+00 0.  1.
        -11    1    1    2    0    0 -0.14645470498E+02  0.14200461522E+02 -0.54677093836E+01  0.21119629718E+02  0.00000000000E+00 0. -1.
         11    1    1    2    0    0  0.14645470498E+02 -0.14200461522E+02  0.85097859809E-01  0.20399758704E+02  0.00000000000E+00 0.  1.
<mgrwt>
<rscale>  0 0.41169007E+02</rscale>
<asrwt>0</asrwt>
<pdfrwt beam="1">  1        1 0.27797521E-02 0.41169007E+02</pdfrwt>
<pdfrwt beam="2">  1       -1 0.36078462E-02 0.41169007E+02</pdfrwt>
<totfact> 0.70193793E+05</totfact>
</mgrwt>
</event>
<event>
 4    1  0.4118611E+000  0.3821847E+02  0.7546771E-02  0.1521746E+00
          2   -1    0    0  501    0  0.00000000000E+00  0.00000000000E+00  0.54096726952E+02  0.54096726952E+02  0.00000000000E+00 0. -1.
         -2   -1    0    0    0  501 -0.00000000000E+00 -0.00000000000E+00 -0.67501850585E+01  0.67501850585E+01  0.00000000000E+00 0.  1.
        -11    1    1    2    0    0 -0.10998169958E+02  0.20332118682E+01  0.48341243574E+02  0.49618237808E+02  0.00000000000E+00 0. -1.
         11    1    1    2    0    0  0.10998169958E+02 -0.20332118682E+01 -0.99470167986E+00  0.11228674203E+02  0.00000000000E+00 0.  1.
<mgrwt>
<rscale>  0 0.38218473E+02</rscale>
<asrwt>0</asrwt>
<pdfrwt beam="1">  1        2 0.83225731E-02 0.38218473E+02</pdfrwt>
<pdfrwt beam="2">  1       -2 0.10384900E-02 0.38218473E+02</pdfrwt>
<totfact> 0.10244165E+06</totfact>
</mgrwt>
</event>
<event>
 4    1  0.4118611E+000  0.3429042E+02  0.7546771E-02  0.1554994E+00
         -4   -1    0    0    0  501 -0.00000000000E+00  0.00000000000E+00  0.80105139158E+01  0.80105139158E+01  0.00000000000E+00 0.  1.
          4   -1    0    0  501    0  0.00000000000E+00 -0.00000000000E+00 -0.36696548065E+02  0.36696548065E+02  0.00000000000E+00 0. -1.
        -13    1    1    2    0    0 -0.55803230075E+01  0.16140822782E+02 -0.12369164048E+02  0.21087019329E+02  0.00000000000E+00 0. -1.
         13    1    1    2    0    0  0.55803230075E+01 -0.16140822782E+02 -0.16316870102E+02  0.23620042652E+02  0.00000000000E+00 0.  1.
<mgrwt>
<rscale>  0 0.34290419E+02</rscale>
<asrwt>0</asrwt>
<pdfrwt beam="2">  1        4 0.56456228E-02 0.34290419E+02</pdfrwt>
<pdfrwt beam="1">  1       -4 0.12323867E-02 0.34290419E+02</pdfrwt>
<totfact> 0.36318213E+05</totfact>
</mgrwt>
</event>
<event>
 4    1  0.4118611E+000  0.3209189E+02  0.7546771E-02  0.1576054E+00
          2   -1    0    0  501    0  0.00000000000E+00  0.00000000000E+00  0.51224227394E+02  0.51224227394E+02  0.00000000000E+00 0.  1.
         -2   -1    0    0    0  501 -0.00000000000E+00 -0.00000000000E+00 -0.50263799101E+01  0.50263799101E+01  0.00000000000E+00 0. -1.
        -11    1    1    2    0    0 -0.11434523000E+02  0.48827127139E+01  0.53200540552E+01  0.13523763338E+02  0.00000000000E+00 0. -1.
         11    1    1    2    0    0  0.11434523000E+02 -0.48827127139E+01  0.40877793429E+02  0.42726843966E+02  0.00000000000E+00 0.  1.
<mgrwt>
<rscale>  0 0.32091895E+02</rscale>
<asrwt>0</asrwt>
<pdfrwt beam="1">  1        2 0.78806500E-02 0.32091895E+02</pdfrwt>
<pdfrwt beam="2">  1       -2 0.77328925E-03 0.32091895E+02</pdfrwt>
<totfact> 0.15533426E+06</totfact>
</mgrwt>
</event>
<event>
 4    1  0.4118611E+000  0.2373254E+02  0.7546771E-02  0.1679904E+00
          2   -1    0    0  501    0  0.00000000000E+00  0.00000000000E+00  0.14592970384E+02  0.14592970384E+02  0.00000000000E+00 0.  1.
         -2   -1    0    0    0  501 -0.00000000000E+00 -0.00000000000E+00 -0.96490563321E+01  0.96490563321E+01  0.00000000000E+00 0. -1.
        -13    1    1    2    0    0  0.12537103676E+01 -0.10725506660E+02 -0.25530113481E+01  0.11096222319E+02  0.00000000000E+00 0.  1.
         13    1    1    2    0    0 -0.12537103676E+01  0.10725506660E+02  0.74969254004E+01  0.13145804398E+02  0.00000000000E+00 0. -1.
<mgrwt>
<rscale>  0 0.23732542E+02</rscale>
<asrwt>0</asrwt>
<pdfrwt beam="1">  1        2 0.22450724E-02 0.23732542E+02</pdfrwt>
<pdfrwt beam="2">  1       -2 0.14844702E-02 0.23732542E+02</pdfrwt>
<totfact> 0.27365817E+06</totfact>
</mgrwt>
</event>
<event>
 4    1  0.4118611E+000  0.4304929E+02  0.7546771E-02  0.1486900E+00
          2   -1    0    0  501    0  0.00000000000E+00  0.00000000000E+00  0.13164604637E+02  0.13164604637E+02  0.00000000000E+00 0. -1.
         -2   -1    0    0    0  501 -0.00000000000E+00 -0.00000000000E+00 -0.35193638049E+02  0.35193638049E+02  0.00000000000E+00 0.  1.
        -11    1    1    2    0    0 -0.26323015762E+01  0.14585209715E+02  0.65198620523E+01  0.16191539618E+02  0.00000000000E+00 0. -1.
         11    1    1    2    0    0  0.26323015762E+01 -0.14585209715E+02 -0.28548895464E+02  0.32166703068E+02  0.00000000000E+00 0.  1.
<mgrwt>
<rscale>  0 0.43049289E+02</rscale>
<asrwt>0</asrwt>
<pdfrwt beam="1">  1        2 0.20253238E-02 0.43049289E+02</pdfrwt>
<pdfrwt beam="2">  1       -2 0.54144059E-02 0.43049289E+02</pdfrwt>
<totfact> 0.61549805E+05</totfact>
</mgrwt>
</event>
<event>
 4    1  0.4118611E+000  0.2805515E+02  0.7546771E-02  0.1620638E+00
         -4   -1    0    0    0  501 -0.00000000000E+00  0.00000000000E+00  0.20676449969E+02  0.20676449969E+02  0.00000000000E+00 0.  1.
          4   -1    0    0  501    0  0.00000000000E+00 -0.00000000000E+00 -0.95167640592E+01  0.95167640592E+01  0.00000000000E+00 0. -1.
        -13    1    1    2    0    0  0.16694805057E+00  0.13432067993E+02  0.12315616122E+01  0.13489442769E+02  0.00000000000E+00 0. -1.
         13    1    1    2    0    0 -0.16694805057E+00 -0.13432067993E+02  0.99281242973E+01  0.16703771259E+02  0.00000000000E+00 0.  1.
<mgrwt>
<rscale>  0 0.28055153E+02</rscale>
<asrwt>0</asrwt>
<pdfrwt beam="2">  1        4 0.14641176E-02 0.28055153E+02</pdfrwt>
<pdfrwt beam="1">  1       -4 0.31809923E-02 0.28055153E+02</pdfrwt>
<totfact> 0.60427521E+05</totfact>
</mgrwt>
</event>
<event>
 4    1  0.4118611E+000  0.5515308E+02  0.7546771E-02  0.1419376E+00
          2   -1    0    0  501    0  0.00000000000E+00  0.00000000000E+00  0.41775469760E+01  0.41775469760E+01  0.00000000000E+00 0. -1.
         -2   -1    0    0    0  501 -0.00000000000E+00 -0.00000000000E+00 -0.18203640277E+03  0.18203640277E+03  0.00000000000E+00 0.  1.
        -13    1    1    2    0    0 -0.23788435064E+02 -0.92813541537E+01 -0.53771598815E+02  0.59526616037E+02  0.00000000000E+00 0. -1.
         13    1    1    2    0    0  0.23788435064E+02  0.92813541537E+01 -0.12408725698E+03  0.12668733371E+03  0.00000000000E+00 0.  1.
<mgrwt>
<rscale>  0 0.55153082E+02</rscale>
<asrwt>0</asrwt>
<pdfrwt beam="1">  1        2 0.64269951E-03 0.55153082E+02</pdfrwt>
<pdfrwt beam="2">  1       -2 0.28005602E-01 0.55153082E+02</pdfrwt>
<totfact> 0.22980639E+05</totfact>
</mgrwt>
</event>
<event>
 4    1  0.4118611E+000  0.2550192E+02  0.7546771E-02  0.1653896E+00
          4   -1    0    0  501    0  0.00000000000E+00  0.00000000000E+00  0.12499540910E+02  0.12499540910E+02  0.00000000000E+00 0.  1.
         -4   -1    0    0    0  501 -0.00000000000E+00 -0.00000000000E+00 -0.13007433940E+02  0.13007433940E+02  0.00000000000E+00 0. -1.
        -13    1    1    2    0    0 -0.87985495482E+01 -0.89245356483E+01 -0.26049746886E+01  0.12800300927E+02  0.00000000000E+00 0.  1.
         13    1    1    2    0    0  0.87985495482E+01  0.89245356483E+01  0.20970816585E+01  0.12706673922E+02  0.00000000000E+00 0. -1.
<mgrwt>
<rscale>  0 0.25501918E+02</rscale>
<asrwt>0</asrwt>
<pdfrwt beam="1">  1        4 0.19230063E-02 0.25501918E+02</pdfrwt>
<pdfrwt beam="2">  1       -4 0.20011437E-02 0.25501918E+02</pdfrwt>
<totfact> 0.75990861E+05</totfact>
</mgrwt>
</event>
<event>
 4    1  0.4118611E+000  0.6581156E+02  0.7546771E-02  0.1374944E+00
         -4   -1    0    0    0  501 -0.00000000000E+00  0.00000000000E+00  0.14986046560E+02  0.14986046560E+02  0.00000000000E+00 0. -1.
          4   -1    0    0  501    0  0.00000000000E+00 -0.00000000000E+00 -0.72253236024E+02  0.72253236024E+02  0.00000000000E+00 0.  1.
        -13    1    1    2    0    0 -0.30900795976E+02 -0.11309520424E+02 -0.28420199112E+02  0.43479560275E+02  0.00000000000E+00 0.  1.
         13    1    1    2    0    0  0.30900795976E+02  0.11309520424E+02 -0.28846990353E+02  0.43759722309E+02  0.00000000000E+00 0. -1.
<mgrwt>
<rscale>  0 0.65811560E+02</rscale>
<asrwt>0</asrwt>
<pdfrwt beam="2">  1        4 0.11115883E-01 0.65811560E+02</pdfrwt>
<pdfrwt beam="1">  1       -4 0.23055456E-02 0.65811560E+02</pdfrwt>
<totfact> 0.64693019E+04</totfact>
</mgrwt>
</event>
<event>
 4    1  0.4118611E+000  0.2087930E+02  0.7546771E-02  0.1728387E+00
          4   -1    0    0  501    0  0.00000000000E+00  0.00000000000E+00  0.13664018310E+01  0.13664018310E+01  0.00000000000E+00 0.  1.
         -4   -1    0    0    0  501 -0.00000000000E+00 -0.00000000000E+00 -0.79761559738E+02  0.79761559738E+02  0.00000000000E+00 0. -1.
        -13    1    1    2    0    0 -0.44438978293E+00 -0.10380123845E+02 -0.35231466328E+02  0.36731467067E+02  0.00000000000E+00 0.  1.
         13    1    1    2    0    0  0.44438978293E+00  0.10380123845E+02 -0.43163691579E+02  0.44396494501E+02  0.00000000000E+00 0. -1.
<mgrwt>
<rscale>  0 0.20879305E+02</rscale>
<asrwt>0</asrwt>
<pdfrwt beam="1">  1        4 0.21021570E-03 0.20879305E+02</pdfrwt>
<pdfrwt beam="2">  1       -4 0.12271007E-01 0.20879305E+02</pdfrwt>
<totfact> 0.95107669E+05</totfact>
</mgrwt>
</event>
<event>
 4    1  0.4118611E+000  0.4128857E+02  0.7546771E-02  0.1498937E+00
          2   -1    0    0  501    0  0.00000000000E+00  0.00000000000E+00  0.12500781555E+03  0.12500781555E+03  0.00000000000E+00 0.  1.
         -2   -1    0    0    0  501 -0.00000000000E+00 -0.00000000000E+00 -0.34092794703E+01  0.34092794703E+01  0.00000000000E+00 0. -1.
        -13    1    1    2    0    0 -0.17940146529E+02  0.95391221047E+01  0.49438240626E+02  0.53450756255E+02  0.00000000000E+00 0.  1.
         13    1    1    2    0    0  0.17940146529E+02 -0.95391221047E+01  0.72160295457E+02  0.74966338769E+02  0.00000000000E+00 0. -1.
<mgrwt>
<rscale>  0 0.41288574E+02</rscale>
<asrwt>0</asrwt>
<pdfrwt beam="1">  1        2 0.19231968E-01 0.41288574E+02</pdfrwt>
<pdfrwt beam="2">  1       -2 0.52450463E-03 0.41288574E+02</pdfrwt>
<totfact> 0.10251929E+06</totfact>
</mgrwt>
</event>
<event>
 4    1  0.4118611E+000  0.4479215E+02  0.7546771E-02  0.1475643E+00
         -4   -1    0    0    0  501 -0.00000000000E+00  0.00000000000E+00  0.89653994637E+01  0.89653994637E+01  0.00000000000E+00 0.  1.
          4   -1    0    0  501    0  0.00000000000E+00 -0.00000000000E+00 -0.55946652797E+02  0.55946652797E+02  0.00000000000E+00 0. -1.
        -13    1    1    2    0    0 -0.15604976467E+02  0.57619806230E+01 -0.45222024531E+02  0.48184512179E+02  0.00000000000E+00 0. -1.
         13    1    1    2    0    0  0.15604976467E+02 -0.57619806230E+01 -0.17592288029E+01  0.16727540082E+02  0.00000000000E+00 0.  1.
<mgrwt>
<rscale>  0 0.44792146E+02</rscale>
<asrwt>0</asrwt>
<pdfrwt beam="2">  1        4 0.86071776E-02 0.44792146E+02</pdfrwt>
<pdfrwt beam="1">  1       -4 0.13792922E-02 0.44792146E+02</pdfrwt>
<totfact> 0.18058859E+05</totfact>
</mgrwt>
</event>
<event>
 4    1  0.4118611E+000  0.2521793E+02  0.7546771E-02  0.1657891E+00
         -2   -1    0    0    0  501 -0.00000000000E+00  0.00000000000E+00  0.84148450136E+02  0.84148450136E+02  0.00000000000E+00 0. -1.
          2   -1    0    0  501    0  0.00000000000E+00 -0.00000000000E+00 -0.18893513773E+01  0.18893513773E+01  0.00000000000E+00 0.  1.
        -11    1    1    2    0    0 -0.60809172787E+00 -0.11805044650E+02  0.26157690563E+02  0.28704592496E+02  0.00000000000E+00 0.  1.
         11    1    1    2    0    0  0.60809172787E+00  0.11805044650E+02  0.56101408196E+02  0.57333209018E+02  0.00000000000E+00 0. -1.
<mgrwt>
<rscale>  0 0.25217929E+02</rscale>
<asrwt>0</asrwt>
<pdfrwt beam="2">  1        2 0.29066951E-03 0.25217929E+02</pdfrwt>
<pdfrwt beam="1">  1       -2 0.12945913E-01 0.25217929E+02</pdfrwt>
<totfact> 0.18466786E+06</totfact>
</mgrwt>
</event>
<event>
 4    1  0.4118611E+000  0.2549542E+02  0.7546771E-02  0.1653986E+00
         -2   -1    0    0    0  501 -0.00000000000E+00  0.00000000000E+00  0.44123583038E+01  0.44123583038E+01  0.00000000000E+00 0.  1.
          2   -1    0    0  501    0  0.00000000000E+00 -0.00000000000E+00 -0.36829313653E+02  0.36829313653E+02  0.00000000000E+00 0. -1.
        -11    1    1    2    0    0  0.81235922867E+01  0.95809712327E+01 -0.12695480157E+02  0.17859534648E+02  0.00000000000E+00 0. -1.
         11    1    1    2    0    0 -0.81235922867E+01 -0.95809712327E+01 -0.19721475192E+02  0.23382137309E+02  0.00000000000E+00 0.  1.
<mgrwt>
<rscale>  0 0.25495421E+02</rscale>
<asrwt>0</asrwt>
<pdfrwt beam="2">  1        2 0.56660485E-02 0.25495421E+02</pdfrwt>
<pdfrwt beam="1">  1       -2 0.67882433E-03 0.25495421E+02</pdfrwt>
<totfact> 0.25507875E+06</totfact>
</mgrwt>
</event>
<event>
 4    1  0.4118611E+000  0.3023708E+02  0.7546771E-02  0.1595483E+00
          2   -1    0    0  501    0  0.00000000000E+00  0.00000000000E+00  0.54640048822E+02  0.54640048822E+02  0.00000000000E+00 0.  1.
         -2   -1    0    0    0  501 -0.00000000000E+00 -0.00000000000E+00 -0.41831999403E+01  0.41831999403E+01  0.00000000000E+00 0. -1.
        -13    1    1    2    0    0  0.11412934023E+02  0.32673325044E+01  0.43440509143E+02  0.45033413809E+02  0.00000000000E+00 0.  1.
         13    1    1    2    0    0 -0.11412934023E+02 -0.32673325044E+01  0.70163397386E+01  0.13789834953E+02  0.00000000000E+00 0. -1.
<mgrwt>
<rscale>  0 0.30237080E+02</rscale>
<asrwt>0</asrwt>
<pdfrwt beam="1">  1        2 0.84061609E-02 0.30237080E+02</pdfrwt>
<pdfrwt beam="2">  1       -2 0.64356926E-03 0.30237080E+02</pdfrwt>
<totfact> 0.18112865E+06</totfact>
</mgrwt>
</event>
<event>
 4    1  0.4118611E+000  0.2606444E+02  0.7546771E-02  0.1646167E+00
          2   -1    0    0  501    0  0.00000000000E+00  0.00000000000E+00  0.12880212953E+02  0.12880212953E+02  0.00000000000E+00 0. -1.
         -2   -1    0    0    0  501 -0.00000000000E+00 -0.00000000000E+00 -0.13186022242E+02  0.13186022242E+02  0.00000000000E+00 0.  1.
        -11    1    1    2    0    0 -0.32054837407E+01  0.11908505031E+02 -0.43664067521E+01  0.13082550440E+02  0.00000000000E+00 0.  1.
         11    1    1    2    0    0  0.32054837407E+01 -0.11908505031E+02  0.40605974636E+01  0.12983684756E+02  0.00000000000E+00 0. -1.
<mgrwt>
<rscale>  0 0.26064441E+02</rscale>
<asrwt>0</asrwt>
<pdfrwt beam="1">  1        2 0.19815712E-02 0.26064441E+02</pdfrwt>
<pdfrwt beam="2">  1       -2 0.20286188E-02 0.26064441E+02</pdfrwt>
<totfact> 0.21677826E+06</totfact>
</mgrwt>
</event>
<event>
 4    1  0.4118611E+000  0.2225188E+02  0.7546771E-02  0.1703932E+00
         -4   -1    0    0    0  501 -0.00000000000E+00  0.00000000000E+00  0.46092331986E+02  0.46092331986E+02  0.00000000000E+00 0. -1.
          4   -1    0    0  501    0  0.00000000000E+00 -0.00000000000E+00 -0.26856218565E+01  0.26856218565E+01  0.00000000000E+00 0.  1.
        -11    1    1    2    0    0 -0.67719717645E+01 -0.79797122401E+01  0.13428088396E+02  0.17024951306E+02  0.00000000000E+00 0. -1.
         11    1    1    2    0    0  0.67719717645E+01  0.79797122401E+01  0.29978621733E+02  0.31753002536E+02  0.00000000000E+00 0.  1.
<mgrwt>
<rscale>  0 0.22251883E+02</rscale>
<asrwt>0</asrwt>
<pdfrwt beam="2">  1        4 0.41317263E-03 0.22251883E+02</pdfrwt>
<pdfrwt beam="1">  1       -4 0.70911274E-02 0.22251883E+02</pdfrwt>
<totfact> 0.92920868E+05</totfact>
</mgrwt>
</event>
<event>
 4    1  0.4118611E+000  0.3968815E+02  0.7546771E-02  0.1510519E+00
          4   -1    0    0  501    0  0.00000000000E+00  0.00000000000E+00  0.40446720906E+01  0.40446720906E+01  0.00000000000E+00 0. -1.
         -4   -1    0    0    0  501 -0.00000000000E+00 -0.00000000000E+00 -0.97359532749E+02  0.97359532749E+02  0.00000000000E+00 0.  1.
        -11    1    1    2    0    0 -0.14067029867E+02 -0.11958025334E+01 -0.11026414822E+02  0.17913489241E+02  0.00000000000E+00 0. -1.
         11    1    1    2    0    0  0.14067029867E+02  0.11958025334E+01 -0.82288445836E+02  0.83490715598E+02  0.00000000000E+00 0.  1.
<mgrwt>
<rscale>  0 0.39688154E+02</rscale>
<asrwt>0</asrwt>
<pdfrwt beam="1">  1        4 0.62225721E-03 0.39688154E+02</pdfrwt>
<pdfrwt beam="2">  1       -4 0.14978390E-01 0.39688154E+02</pdfrwt>
<totfact> 0.21779150E+05</totfact>
</mgrwt>
</event>
<event>
 4    1  0.4118611E+000  0.2110937E+02  0.7546771E-02  0.1724126E+00
         -2   -1    0    0    0  501 -0.00000000000E+00  0.00000000000E+00  0.45514550901E+01  0.45514550901E+01  0.00000000000E+00 0. -1.
          2   -1    0    0  501    0  0.00000000000E+00 -0.00000000000E+00 -0.24475997373E+02  0.24475997373E+02  0.00000000000E+00 0.  1.
        -11    1    1    2    0    0  0.98628832040E+01 -0.20039290908E+01 -0.14334391598E+02  0.17514764611E+02  0.00000000000E+00 0. -1.
         11    1    1    2    0    0 -0.98628832040E+01  0.20039290908E+01 -0.55901506848E+01  0.11512687852E+02  0.00000000000E+00 0.  1.
<mgrwt>
<rscale>  0 0.21109373E+02</rscale>
<asrwt>0</asrwt>
<pdfrwt beam="2">  1        2 0.37655381E-02 0.21109373E+02</pdfrwt>
<pdfrwt beam="1">  1       -2 0.70022386E-03 0.21109373E+02</pdfrwt>
<totfact> 0.37587132E+06</totfact>
</mgrwt>
</event>
<event>
 4    1  0.4118611E+000  0.2840661E+02  0.7546771E-02  0.1616400E+00
          2   -1    0    0  501    0  0.00000000000E+00  0.00000000000E+00  0.52511902896E+02  0.52511902896E+02  0.00000000000E+00 0. -1.
         -2   -1    0    0    0  501 -0.00000000000E+00 -0.00000000000E+00 -0.38416792695E+01  0.38416792695E+01  0.00000000000E+00 0.  1.
        -13    1    1    2    0    0  0.10865468270E+02  0.82488895353E+01  0.32178429074E+02  0.34950734999E+02  0.00000000000E+00 0.  1.
         13    1    1    2    0    0 -0.10865468270E+02 -0.82488895353E+01  0.16491794552E+02  0.21402847167E+02  0.00000000000E+00 0. -1.
<mgrwt>
<rscale>  0 0.28406611E+02</rscale>
<asrwt>0</asrwt>
<pdfrwt beam="1">  1        2 0.80787538E-02 0.28406611E+02</pdfrwt>
<pdfrwt beam="2">  1       -2 0.59102762E-03 0.28406611E+02</pdfrwt>
<totfact> 0.20862935E+06</totfact>
</mgrwt>
</event>
<event>
 4    1  0.4118611E+000  0.2583712E+02  0.7546771E-02  0.1649261E+00
         -2   -1    0    0    0  501 -0.00000000000E+00  0.00000000000E+00  0.63073549986E+01  0.63073549986E+01  0.00000000000E+00 0. -1.
          2   -1    0    0  501    0  0.00000000000E+00 -0.00000000000E+00 -0.26459454209E+02  0.26459454209E+02  0.00000000000E+00 0.  1.
        -11    1    1    2    0    0  0.68399540568E+01 -0.10957683473E+02 -0.98443728948E+01  0.16240919810E+02  0.00000000000E+00 0. -1.
         11    1    1    2    0    0 -0.68399540568E+01  0.10957683473E+02 -0.10307726315E+02  0.16525889397E+02  0.00000000000E+00 0.  1.
<mgrwt>
<rscale>  0 0.25837118E+02</rscale>
<asrwt>0</asrwt>
<pdfrwt beam="2">  1        2 0.40706853E-02 0.25837118E+02</pdfrwt>
<pdfrwt beam="1">  1       -2 0.97036231E-03 0.25837118E+02</pdfrwt>
<totfact> 0.23755566E+06</totfact>
</mgrwt>
</event>
<event>
 4    1  0.4118611E+000  0.3162631E+02  0.7546771E-02  0.1580778E+00
          2   -1    0    0  501    0  0.00000000000E+00  0.00000000000E+00  0.47715499504E+02  0.47715499504E+02  0.00000000000E+00 0. -1.
         -2   -1    0    0    0  501 -0.00000000000E+00 -0.00000000000E+00 -0.52405573250E+01  0.52405573250E+01  0.00000000000E+00 0.  1.
        -13    1    1    2    0    0 -0.87606840027E+01 -0.12215033457E+02  0.29457405203E+02  0.33071065115E+02  0.00000000000E+00 0. -1.
         13    1    1    2    0    0  0.87606840027E+01  0.12215033457E+02  0.13017536976E+02  0.19884991714E+02  0.00000000000E+00 0.  1.
<mgrwt>
<rscale>  0 0.31626306E+02</rscale>
<asrwt>0</asrwt>
<pdfrwt beam="1">  1        2 0.73408458E-02 0.31626306E+02</pdfrwt>
<pdfrwt beam="2">  1       -2 0.80623962E-03 0.31626306E+02</pdfrwt>
<totfact> 0.15902013E+06</totfact>
</mgrwt>
</event>
<event>
 4    1  0.4118611E+000  0.3006044E+02  0.7546771E-02  0.1597422E+00
         -3   -1    0    0    0  501 -0.00000000000E+00  0.00000000000E+00  0.67252201565E+01  0.67252201565E+01  0.00000000000E+00 0.  1.
          3   -1    0    0  501    0  0.00000000000E+00 -0.00000000000E+00 -0.33591089949E+02  0.33591089949E+02  0.00000000000E+00 0. -1.
        -11    1    1    2    0    0  0.12555329169E+02  0.36979962543E+01 -0.35231112405E+01  0.13554474525E+02  0.00000000000E+00 0.  1.
         11    1    1    2    0    0 -0.12555329169E+02 -0.36979962543E+01 -0.23342758552E+02  0.26761835581E+02  0.00000000000E+00 0. -1.
<mgrwt>
<rscale>  0 0.30060437E+02</rscale>
<asrwt>0</asrwt>
<pdfrwt beam="2">  1        3 0.51678599E-02 0.30060437E+02</pdfrwt>
<pdfrwt beam="1">  1       -3 0.10346493E-02 0.30060437E+02</pdfrwt>
<totfact> 0.66927756E+05</totfact>
</mgrwt>
</event>
<event>
 4    1  0.4118611E+000  0.2710342E+02  0.7546771E-02  0.1632507E+00
         -3   -1    0    0    0  501 -0.00000000000E+00  0.00000000000E+00  0.13693478862E+02  0.13693478862E+02  0.00000000000E+00 0.  1.
          3   -1    0    0  501    0  0.00000000000E+00 -0.00000000000E+00 -0.13411408190E+02  0.13411408190E+02  0.00000000000E+00 0. -1.
        -13    1    1    2    0    0 -0.11917644404E+02  0.64442265674E+01 -0.15986361239E+00  0.13549312180E+02  0.00000000000E+00 0.  1.
         13    1    1    2    0    0  0.11917644404E+02 -0.64442265674E+01  0.44193428389E+00  0.13555574871E+02  0.00000000000E+00 0. -1.
<mgrwt>
<rscale>  0 0.27103419E+02</rscale>
<asrwt>0</asrwt>
<pdfrwt beam="2">  1        3 0.20632936E-02 0.27103419E+02</pdfrwt>
<pdfrwt beam="1">  1       -3 0.21066890E-02 0.27103419E+02</pdfrwt>
<totfact> 0.88657424E+05</totfact>
</mgrwt>
</event>
<event>
 4    1  0.4118611E+000  0.2528434E+02  0.7546771E-02  0.1656951E+00
          2   -1    0    0  501    0  0.00000000000E+00  0.00000000000E+00  0.35603627990E+02  0.35603627990E+02  0.00000000000E+00 0.  1.
         -2   -1    0    0    0  501 -0.00000000000E+00 -0.00000000000E+00 -0.44889940475E+01  0.44889940475E+01  0.00000000000E+00 0. -1.
        -11    1    1    2    0    0  0.98982683568E+01  0.34074145533E+01  0.26796382911E+02  0.28768599679E+02  0.00000000000E+00 0.  1.
         11    1    1    2    0    0 -0.98982683568E+01 -0.34074145533E+01  0.43182510322E+01  0.11324022359E+02  0.00000000000E+00 0. -1.
<mgrwt>
<rscale>  0 0.25284341E+02</rscale>
<asrwt>0</asrwt>
<pdfrwt beam="1">  1        2 0.54774811E-02 0.25284341E+02</pdfrwt>
<pdfrwt beam="2">  1       -2 0.69061449E-03 0.25284341E+02</pdfrwt>
<totfact> 0.25892770E+06</totfact>
</mgrwt>
</event>
<event>
 4    1  0.4118611E+000  0.7985356E+02  0.7546771E-02  0.1329468E+00
         -4   -1    0    0    0  501 -0.00000000000E+00  0.00000000000E+00  0.85778323084E+02  0.85778323084E+02  0.00000000000E+00 0.  1.
          4   -1    0    0  501    0  0.00000000000E+00 -0.00000000000E+00 -0.18584505556E+02  0.18584505556E+02  0.00000000000E+00 0. -1.
        -11    1    1    2    0    0 -0.23345025412E+02  0.29162672938E+02  0.52019306141E+02  0.64042641386E+02  0.00000000000E+00 0.  1.
         11    1    1    2    0    0  0.23345025412E+02 -0.29162672938E+02  0.15174511387E+02  0.40320187253E+02  0.00000000000E+00 0. -1.
<mgrwt>
<rscale>  0 0.79853559E+02</rscale>
<asrwt>0</asrwt>
<pdfrwt beam="2">  1        4 0.28591547E-02 0.79853559E+02</pdfrwt>
<pdfrwt beam="1">  1       -4 0.13196665E-01 0.79853559E+02</pdfrwt>
<totfact> 0.37366591E+04</totfact>
</mgrwt>
</event>
<event>
 4    1  0.4118611E+000  0.3377032E+02  0.7546771E-02  0.1559800E+00
         -2   -1    0    0    0  501 -0.00000000000E+00  0.00000000000E+00  0.10513431535E+03  0.10513431535E+03  0.00000000000E+00 0. -1.
          2   -1    0    0  501    0  0.00000000000E+00 -0.00000000000E+00 -0.27118514299E+01  0.27118514299E+01  0.00000000000E+00 0.  1.
        -11    1    1    2    0    0  0.25891787713E+01  0.16633817306E+02  0.47021852660E+02  0.49944392603E+02  0.00000000000E+00 0.  1.
         11    1    1    2    0    0 -0.25891787713E+01 -0.16633817306E+02  0.55400611265E+02  0.57901774182E+02  0.00000000000E+00 0. -1.
<mgrwt>
<rscale>  0 0.33770321E+02</rscale>
<asrwt>0</asrwt>
<pdfrwt beam="2">  1        2 0.41720799E-03 0.33770321E+02</pdfrwt>
<pdfrwt beam="1">  1       -2 0.16174507E-01 0.33770321E+02</pdfrwt>
<totfact> 0.89358855E+05</totfact>
</mgrwt>
</event>
<event>
 4    1  0.4118611E+000  0.2743279E+02  0.7546771E-02  0.1628332E+00
         -4   -1    0    0    0  501 -0.00000000000E+00  0.00000000000E+00  0.66061817642E+01  0.66061817642E+01  0.00000000000E+00 0. -1.
          4   -1    0    0  501    0  0.00000000000E+00 -0.00000000000E+00 -0.28479310222E+02  0.28479310222E+02  0.00000000000E+00 0.  1.
        -13    1    1    2    0    0 -0.13116855344E+02 -0.39421958327E+01 -0.11882215959E+02  0.18132287727E+02  0.00000000000E+00 0.  1.
         13    1    1    2    0    0  0.13116855344E+02  0.39421958327E+01 -0.99909124981E+01  0.16953204259E+02  0.00000000000E+00 0. -1.
<mgrwt>
<rscale>  0 0.27432791E+02</rscale>
<asrwt>0</asrwt>
<pdfrwt beam="2">  1        4 0.43814325E-02 0.27432791E+02</pdfrwt>
<pdfrwt beam="1">  1       -4 0.10163356E-02 0.27432791E+02</pdfrwt>
<totfact> 0.62324675E+05</totfact>
</mgrwt>
</event>
<event>
 4    1  0.4118611E+000  0.3234401E+02  0.7546771E-02  0.1573536E+00
          4   -1    0    0  501    0  0.00000000000E+00  0.00000000000E+00  0.29187248209E+02  0.29187248209E+02  0.00000000000E+00 0.  1.
         -4   -1    0    0    0  501 -0.00000000000E+00 -0.00000000000E+00 -0.89605456609E+01  0.89605456609E+01  0.00000000000E+00 0. -1.
        -13    1    1    2    0    0  0.11447216552E+02 -0.11304626797E+02  0.81752210154E+01  0.18046262562E+02  0.00000000000E+00 0. -1.
         13    1    1    2    0    0 -0.11447216552E+02  0.11304626797E+02  0.12051481533E+02  0.20101531308E+02  0.00000000000E+00 0.  1.
<mgrwt>
<rscale>  0 0.32344005E+02</rscale>
<asrwt>0</asrwt>
<pdfrwt beam="1">  1        4 0.44903458E-02 0.32344005E+02</pdfrwt>
<pdfrwt beam="2">  1       -4 0.13785455E-02 0.32344005E+02</pdfrwt>
<totfact> 0.42519791E+05</totfact>
</mgrwt>
</event>
<event>
 4    1  0.4118611E+000  0.2428084E+02  0.7546771E-02  0.1671552E+00
          2   -1    0    0  501    0  0.00000000000E+00  0.00000000000E+00  0.28149409920E+02  0.28149409920E+02  0.00000000000E+00 0. -1.
         -2   -1    0    0    0  501 -0.00000000000E+00 -0.00000000000E+00 -0.52359796948E+01  0.52359796948E+01  0.00000000000E+00 0.  1.
        -11    1    1    2    0    0 -0.43679550994E+01 -0.11030537630E+02  0.14999213867E+02  0.19124021773E+02  0.00000000000E+00 0. -1.
         11    1    1    2    0    0  0.43679550994E+01  0.11030537630E+02  0.79142163585E+01  0.14261367842E+02  0.00000000000E+00 0.  1.
<mgrwt>
<rscale>  0 0.24280835E+02</rscale>
<asrwt>0</asrwt>
<pdfrwt beam="1">  1        2 0.43306783E-02 0.24280835E+02</pdfrwt>
<pdfrwt beam="2">  1       -2 0.80553536E-03 0.24280835E+02</pdfrwt>
<totfact> 0.27659721E+06</totfact>
</mgrwt>
</event>
<event>
 4    1  0.4118611E+000  0.4268745E+02  0.7546771E-02  0.1489317E+00
          2   -1    0    0  501    0  0.00000000000E+00  0.00000000000E+00  0.63711676933E+02  0.63711676933E+02  0.00000000000E+00 0. -1.
         -2   -1    0    0    0  501 -0.00000000000E+00 -0.00000000000E+00 -0.71502517782E+01  0.71502517782E+01  0.00000000000E+00 0.  1.
        -11    1    1    2    0    0 -0.15790362207E+02 -0.53466956361E+01  0.50405198735E+02  0.53090552383E+02  0.00000000000E+00 0. -1.
         11    1    1    2    0    0  0.15790362207E+02  0.53466956361E+01  0.61562264202E+01  0.17771376328E+02  0.00000000000E+00 0.  1.
<mgrwt>
<rscale>  0 0.42687447E+02</rscale>
<asrwt>0</asrwt>
<pdfrwt beam="1">  1        2 0.98017961E-02 0.42687447E+02</pdfrwt>
<pdfrwt beam="2">  1       -2 0.11000388E-02 0.42687447E+02</pdfrwt>
<totfact> 0.80326868E+05</totfact>
</mgrwt>
</event>
<event>
 4    1  0.4118611E+000  0.4004307E+02  0.7546771E-02  0.1507895E+00
         -3   -1    0    0    0  501 -0.00000000000E+00  0.00000000000E+00  0.13280944523E+02  0.13280944523E+02  0.00000000000E+00 0.  1.
          3   -1    0    0  501    0  0.00000000000E+00 -0.00000000000E+00 -0.30183231317E+02  0.30183231317E+02  0.00000000000E+00 0. -1.
        -11    1    1    2    0    0 -0.11959683733E+02 -0.13399700988E+02 -0.18054385127E+02  0.25466582886E+02  0.00000000000E+00 0. -1.
         11    1    1    2    0    0  0.11959683733E+02  0.13399700988E+02  0.11520983332E+01  0.17997592954E+02  0.00000000000E+00 0.  1.
<mgrwt>
<rscale>  0 0.40043068E+02</rscale>
<asrwt>0</asrwt>
<pdfrwt beam="2">  1        3 0.46435740E-02 0.40043068E+02</pdfrwt>
<pdfrwt beam="1">  1       -3 0.20432222E-02 0.40043068E+02</pdfrwt>
<totfact> 0.33428078E+05</totfact>
</mgrwt>
</event>
<event>
 4    1  0.4118611E+000  0.2537017E+02  0.7546771E-02  0.1655741E+00
          3   -1    0    0  501    0  0.00000000000E+00  0.00000000000E+00  0.38508797739E+02  0.38508797739E+02  0.00000000000E+00 0.  1.
         -3   -1    0    0    0  501 -0.00000000000E+00 -0.00000000000E+00 -0.41785613265E+01  0.41785613265E+01  0.00000000000E+00 0. -1.
        -13    1    1    2    0    0 -0.40008379600E+01  0.10517294581E+02  0.73121482832E+01  0.13419675935E+02  0.00000000000E+00 0. -1.
         13    1    1    2    0    0  0.40008379600E+01 -0.10517294581E+02  0.27018088129E+02  0.29267683130E+02  0.00000000000E+00 0.  1.
<mgrwt>
<rscale>  0 0.25370169E+02</rscale>
<asrwt>0</asrwt>
<pdfrwt beam="1">  1        3 0.59244302E-02 0.25370169E+02</pdfrwt>
<pdfrwt beam="2">  1       -3 0.64285561E-03 0.25370169E+02</pdfrwt>
<totfact> 0.98063466E+05</totfact>
</mgrwt>
</event>
<event>
 4    1  0.4118611E+000  0.4024202E+02  0.7546771E-02  0.1506438E+00
          1   -1    0    0  501    0  0.00000000000E+00  0.00000000000E+00  0.27906234072E+01  0.27906234072E+01  0.00000000000E+00 0. -1.
         -1   -1    0    0    0  501 -0.00000000000E+00 -0.00000000000E+00 -0.14507694144E+03  0.14507694144E+03  0.00000000000E+00 0.  1.
        -13    1    1    2    0    0  0.13883724515E+02  0.13888174192E+02 -0.87250494417E+02  0.89433148020E+02  0.00000000000E+00 0.  1.
         13    1    1    2    0    0 -0.13883724515E+02 -0.13888174192E+02 -0.55035823612E+02  0.58434416823E+02  0.00000000000E+00 0. -1.
<mgrwt>
<rscale>  0 0.40242023E+02</rscale>
<asrwt>0</asrwt>
<pdfrwt beam="1">  1        1 0.42932644E-03 0.40242023E+02</pdfrwt>
<pdfrwt beam="2">  1       -1 0.22319542E-01 0.40242023E+02</pdfrwt>
<totfact> 0.59020431E+05</totfact>
</mgrwt>
</event>
<event>
 4    1  0.4118611E+000  0.7694781E+02  0.7546771E-02  0.1337943E+00
         -2   -1    0    0    0  501 -0.00000000000E+00  0.00000000000E+00  0.56500861365E+02  0.56500861365E+02  0.00000000000E+00 0.  1.
          2   -1    0    0  501    0  0.00000000000E+00 -0.00000000000E+00 -0.26198562070E+02  0.26198562070E+02  0.00000000000E+00 0. -1.
        -11    1    1    2    0    0  0.29700577018E+02 -0.21340337690E+01 -0.11033068808E+02  0.31755424460E+02  0.00000000000E+00 0. -1.
         11    1    1    2    0    0 -0.29700577018E+02  0.21340337690E+01  0.41335368103E+02  0.50943998975E+02  0.00000000000E+00 0.  1.
<mgrwt>
<rscale>  0 0.76947809E+02</rscale>
<asrwt>0</asrwt>
<pdfrwt beam="2">  1        2 0.40305480E-02 0.76947809E+02</pdfrwt>
<pdfrwt beam="1">  1       -2 0.86924402E-02 0.76947809E+02</pdfrwt>
<totfact> 0.14046074E+05</totfact>
</mgrwt>
</event>
<event>
 4    1  0.4118611E+000  0.1338344E+03  0.7546771E-02  0.1221875E+00
          1   -1    0    0  501    0  0.00000000000E+00  0.00000000000E+00  0.65650812604E+02  0.65650812604E+02  0.00000000000E+00 0. -1.
         -1   -1    0    0    0  501 -0.00000000000E+00 -0.00000000000E+00 -0.68207985586E+02  0.68207985586E+02  0.00000000000E+00 0.  1.
        -11    1    1    2    0    0  0.17840734658E+02 -0.62787352774E+02 -0.16024621680E+02  0.67211100136E+02  0.00000000000E+00 0.  1.
         11    1    1    2    0    0 -0.17840734658E+02  0.62787352774E+02  0.13467448698E+02  0.66647698054E+02  0.00000000000E+00 0. -1.
<mgrwt>
<rscale>  0 0.13383437E+03</rscale>
<asrwt>0</asrwt>
<pdfrwt beam="1">  1        1 0.10100125E-01 0.13383437E+03</pdfrwt>
<pdfrwt beam="2">  1       -1 0.10493536E-01 0.13383437E+03</pdfrwt>
<totfact> 0.32712373E+04</totfact>
</mgrwt>
</event>
<event>
 4    1  0.4118611E+000  0.3031555E+02  0.7546771E-02  0.1594627E+00
         -1   -1    0    0    0  501 -0.00000000000E+00  0.00000000000E+00  0.18287191053E+02  0.18287191053E+02  0.00000000000E+00 0. -1.
          1   -1    0    0  501    0  0.00000000000E+00 -0.00000000000E+00 -0.12563879824E+02  0.12563879824E+02  0.00000000000E+00 0.  1.
        -11    1    1    2    0    0  0.11776322247E+02 -0.17026957562E+01 -0.66944918964E+01  0.13652734534E+02  0.00000000000E+00 0.  1.
         11    1    1    2    0    0 -0.11776322247E+02  0.17026957562E+01  0.12417803125E+02  0.17198336343E+02  0.00000000000E+00 0. -1.
<mgrwt>
<rscale>  0 0.30315545E+02</rscale>
<asrwt>0</asrwt>
<pdfrwt beam="2">  1        1 0.19329046E-02 0.30315545E+02</pdfrwt>
<pdfrwt beam="1">  1       -1 0.28134140E-02 0.30315545E+02</pdfrwt>
<totfact> 0.14678440E+06</totfact>
</mgrwt>
</event>
<event>
 4    1  0.4118611E+000  0.4137611E+02  0.7546771E-02  0.1498322E+00
         -2   -1    0    0    0  501 -0.00000000000E+00  0.00000000000E+00  0.33375947431E+02  0.33375947431E+02  0.00000000000E+00 0. -1.
          2   -1    0    0  501    0  0.00000000000E+00 -0.00000000000E+00 -0.12823471891E+02  0.12823471891E+02  0.00000000000E+00 0.  1.
        -13    1    1    2    0    0 -0.78068055153E+01 -0.73485216594E+01 -0.94794771123E+01  0.14311096019E+02  0.00000000000E+00 0.  1.
         13    1    1    2    0    0  0.78068055153E+01  0.73485216594E+01  0.30031952652E+02  0.31888323303E+02  0.00000000000E+00 0. -1.
<mgrwt>
<rscale>  0 0.41376105E+02</rscale>
<asrwt>0</asrwt>
<pdfrwt beam="2">  1        2 0.19728418E-02 0.41376105E+02</pdfrwt>
<pdfrwt beam="1">  1       -2 0.51347611E-02 0.41376105E+02</pdfrwt>
<totfact> 0.68069598E+05</totfact>
</mgrwt>
</event>
<event>
 4    1  0.4118611E+000  0.2476399E+02  0.7546771E-02  0.1664415E+00
         -2   -1    0    0    0  501 -0.00000000000E+00  0.00000000000E+00  0.36466185637E+02  0.36466185637E+02  0.00000000000E+00 0. -1.
          2   -1    0    0  501    0  0.00000000000E+00 -0.00000000000E+00 -0.42042716783E+01  0.42042716783E+01  0.00000000000E+00 0.  1.
        -13    1    1    2    0    0 -0.11872989684E+02  0.32418641222E+01  0.13905513038E+02  0.18569891219E+02  0.00000000000E+00 0. -1.
         13    1    1    2    0    0  0.11872989684E+02 -0.32418641222E+01  0.18356400921E+02  0.22100566096E+02  0.00000000000E+00 0.  1.
<mgrwt>
<rscale>  0 0.24763986E+02</rscale>
<asrwt>0</asrwt>
<pdfrwt beam="2">  1        2 0.64681105E-03 0.24763986E+02</pdfrwt>
<pdfrwt beam="1">  1       -2 0.56101822E-02 0.24763986E+02</pdfrwt>
<totfact> 0.21983247E+06</totfact>
</mgrwt>
</event>
<event>
 4    1  0.4118611E+000  0.3606721E+02  0.7546771E-02  0.1539323E+00
          2   -1    0    0  501    0  0.00000000000E+00  0.00000000000E+00  0.85521223171E+01  0.85521223171E+01  0.00000000000E+00 0. -1.
         -2   -1    0    0    0  501 -0.00000000000E+00 -0.00000000000E+00 -0.38026914875E+02  0.38026914875E+02  0.00000000000E+00 0.  1.
        -11    1    1    2    0    0 -0.16281241880E+02 -0.57759253599E+01 -0.80553775925E+01  0.19061197735E+02  0.00000000000E+00 0. -1.
         11    1    1    2    0    0  0.16281241880E+02  0.57759253599E+01 -0.21419414965E+02  0.27517839457E+02  0.00000000000E+00 0.  1.
<mgrwt>
<rscale>  0 0.36067205E+02</rscale>
<asrwt>0</asrwt>
<pdfrwt beam="1">  1        2 0.13157111E-02 0.36067205E+02</pdfrwt>
<pdfrwt beam="2">  1       -2 0.58502947E-02 0.36067205E+02</pdfrwt>
<totfact> 0.92238902E+05</totfact>
</mgrwt>
</event>
<event>
 4    1  0.4118611E+000  0.4483869E+02  0.7546771E-02  0.1475351E+00
         -2   -1    0    0    0  501 -0.00000000000E+00  0.00000000000E+00  0.75176005664E+01  0.75176005664E+01  0.00000000000E+00 0. -1.
          2   -1    0    0  501    0  0.00000000000E+00 -0.00000000000E+00 -0.66860046930E+02  0.66860046930E+02  0.00000000000E+00 0.  1.
        -13    1    1    2    0    0  0.12113927659E+02 -0.18507866120E+02 -0.35729476852E+02  0.42022421013E+02  0.00000000000E+00 0.  1.
         13    1    1    2    0    0 -0.12113927659E+02  0.18507866120E+02 -0.23612969511E+02  0.32355226483E+02  0.00000000000E+00 0. -1.
<mgrwt>
<rscale>  0 0.44838694E+02</rscale>
<asrwt>0</asrwt>
<pdfrwt beam="2">  1        2 0.10286161E-01 0.44838694E+02</pdfrwt>
<pdfrwt beam="1">  1       -2 0.11565539E-02 0.44838694E+02</pdfrwt>
<totfact> 0.71714566E+05</totfact>
</mgrwt>
</event>
<event>
 4    1  0.4118611E+000  0.3440994E+02  0.7546771E-02  0.1553904E+00
         -2   -1    0    0    0  501 -0.00000000000E+00  0.00000000000E+00  0.21422993402E+02  0.21422993402E+02  0.00000000000E+00 0. -1.
          2   -1    0    0  501    0  0.00000000000E+00 -0.00000000000E+00 -0.13817441701E+02  0.13817441701E+02  0.00000000000E+00 0.  1.
        -11    1    1    2    0    0 -0.38727713037E+01 -0.11583142545E+02 -0.86075905777E+01  0.14941826004E+02  0.00000000000E+00 0.  1.
         11    1    1    2    0    0  0.38727713037E+01  0.11583142545E+02  0.16213142279E+02  0.20298609099E+02  0.00000000000E+00 0. -1.
<mgrwt>
<rscale>  0 0.34409938E+02</rscale>
<asrwt>0</asrwt>
<pdfrwt beam="2">  1        2 0.21257603E-02 0.34409938E+02</pdfrwt>
<pdfrwt beam="1">  1       -2 0.32958451E-02 0.34409938E+02</pdfrwt>
<totfact> 0.11039945E+06</totfact>
</mgrwt>
</event>
<event>
 4    1  0.4118611E+000  0.1479368E+03  0.7546771E-02  0.1203031E+00
         -2   -1    0    0    0  501 -0.00000000000E+00  0.00000000000E+00  0.45420892197E+02  0.45420892197E+02  0.00000000000E+00 0.  1.
          2   -1    0    0  501    0  0.00000000000E+00 -0.00000000000E+00 -0.12045833342E+03  0.12045833342E+03  0.00000000000E+00 0. -1.
        -13    1    1    2    0    0 -0.54593764631E+02 -0.43956131065E+02 -0.11015003537E+02  0.70950341068E+02  0.00000000000E+00 0.  1.
         13    1    1    2    0    0  0.54593764631E+02  0.43956131065E+02 -0.64022437690E+02  0.94928884553E+02  0.00000000000E+00 0. -1.
<mgrwt>
<rscale>  0 0.14793681E+03</rscale>
<asrwt>0</asrwt>
<pdfrwt beam="2">  1        2 0.18532051E-01 0.14793681E+03</pdfrwt>
<pdfrwt beam="1">  1       -2 0.69878296E-02 0.14793681E+03</pdfrwt>
<totfact> 0.32894860E+04</totfact>
</mgrwt>
</event>
<event>
 4    1  0.4118611E+000  0.2582205E+02  0.7546771E-02  0.1649468E+00
         -2   -1    0    0    0  501 -0.00000000000E+00  0.00000000000E+00  0.13451494402E+01  0.13451494402E+01  0.00000000000E+00 0.  1.
          2   -1    0    0  501    0  0.00000000000E+00 -0.00000000000E+00 -0.12392271894E+03  0.12392271894E+03  0.00000000000E+00 0. -1.
        -13    1    1    2    0    0  0.11173148472E+02  0.63692201513E+01 -0.66795190789E+02  0.68022082625E+02  0.00000000000E+00 0. -1.
         13    1    1    2    0    0 -0.11173148472E+02 -0.63692201513E+01 -0.55782378713E+02  0.57245785757E+02  0.00000000000E+00 0.  1.
<mgrwt>
<rscale>  0 0.25822051E+02</rscale>
<asrwt>0</asrwt>
<pdfrwt beam="2">  1        2 0.19065036E-01 0.25822051E+02</pdfrwt>
<pdfrwt beam="1">  1       -2 0.20694604E-03 0.25822051E+02</pdfrwt>
<totfact> 0.31262202E+06</totfact>
</mgrwt>
</event>
<event>
 4    1  0.4118611E+000  0.2907076E+02  0.7546771E-02  0.1608593E+00
         -2   -1    0    0    0  501 -0.00000000000E+00  0.00000000000E+00  0.18614108943E+02  0.18614108943E+02  0.00000000000E+00 0. -1.
          2   -1    0    0  501    0  0.00000000000E+00 -0.00000000000E+00 -0.11350381410E+02  0.11350381410E+02  0.00000000000E+00 0.  1.
        -13    1    1    2    0    0  0.44335952150E+01 -0.13488102760E+02  0.68406977314E+01  0.15760102412E+02  0.00000000000E+00 0. -1.
         13    1    1    2    0    0 -0.44335952150E+01  0.13488102760E+02  0.42302980136E+00  0.14204387942E+02  0.00000000000E+00 0.  1.
<mgrwt>
<rscale>  0 0.29070758E+02</rscale>
<asrwt>0</asrwt>
<pdfrwt beam="2">  1        2 0.17462125E-02 0.29070758E+02</pdfrwt>
<pdfrwt beam="1">  1       -2 0.28637091E-02 0.29070758E+02</pdfrwt>
<totfact> 0.16441525E+06</totfact>
</mgrwt>
</event>
<event>
 4    1  0.4118611E+000  0.2572922E+02  0.7546771E-02  0.1650744E+00
         -4   -1    0    0    0  501 -0.00000000000E+00  0.00000000000E+00  0.37220351785E+02  0.37220351785E+02  0.00000000000E+00 0. -1.
          4   -1    0    0  501    0  0.00000000000E+00 -0.00000000000E+00 -0.44464428433E+01  0.44464428433E+01  0.00000000000E+00 0.  1.
        -13    1    1    2    0    0  0.93669715688E+01 -0.75395676747E+01  0.89811721665E+01  0.15008220767E+02  0.00000000000E+00 0.  1.
         13    1    1    2    0    0 -0.93669715688E+01  0.75395676747E+01  0.23792736776E+02  0.26658573862E+02  0.00000000000E+00 0. -1.
<mgrwt>
<rscale>  0 0.25729218E+02</rscale>
<asrwt>0</asrwt>
<pdfrwt beam="2">  1        4 0.68406815E-03 0.25729218E+02</pdfrwt>
<pdfrwt beam="1">  1       -4 0.57262078E-02 0.25729218E+02</pdfrwt>
<totfact> 0.69992600E+05</totfact>
</mgrwt>
</event>
<event>
 4    1  0.4118611E+000  0.2799791E+02  0.7546771E-02  0.1621335E+00
         -2   -1    0    0    0  501 -0.00000000000E+00  0.00000000000E+00  0.30443337597E+01  0.30443337597E+01  0.00000000000E+00 0.  1.
          2   -1    0    0  501    0  0.00000000000E+00 -0.00000000000E+00 -0.64372309945E+02  0.64372309945E+02  0.00000000000E+00 0. -1.
        -13    1    1    2    0    0 -0.25019949527E+00  0.13555364939E+02 -0.22267199795E+02  0.26069881187E+02  0.00000000000E+00 0.  1.
         13    1    1    2    0    0  0.25019949527E+00 -0.13555364939E+02 -0.39060776391E+02  0.41346762517E+02  0.00000000000E+00 0. -1.
<mgrwt>
<rscale>  0 0.27997914E+02</rscale>
<asrwt>0</asrwt>
<pdfrwt beam="2">  1        2 0.99034319E-02 0.27997914E+02</pdfrwt>
<pdfrwt beam="1">  1       -2 0.46835906E-03 0.27997914E+02</pdfrwt>
<totfact> 0.22377684E+06</totfact>
</mgrwt>
</event>
<event>
 4    1  0.4118611E+000  0.5341286E+02  0.7546771E-02  0.1427757E+00
          2   -1    0    0  501    0  0.00000000000E+00  0.00000000000E+00  0.37030641129E+01  0.37030641129E+01  0.00000000000E+00 0.  1.
         -2   -1    0    0    0  501 -0.00000000000E+00 -0.00000000000E+00 -0.19260626128E+03  0.19260626128E+03  0.00000000000E+00 0. -1.
        -13    1    1    2    0    0 -0.17383676058E+02  0.16657888983E+02 -0.13692593650E+03  0.13902657856E+03  0.00000000000E+00 0. -1.
         13    1    1    2    0    0  0.17383676058E+02 -0.16657888983E+02 -0.51977260663E+02  0.57282746833E+02  0.00000000000E+00 0.  1.
<mgrwt>
<rscale>  0 0.53412857E+02</rscale>
<asrwt>0</asrwt>
<pdfrwt beam="1">  1        2 0.56970194E-03 0.53412857E+02</pdfrwt>
<pdfrwt beam="2">  1       -2 0.29631744E-01 0.53412857E+02</pdfrwt>
<totfact> 0.24331163E+05</totfact>
</mgrwt>
</event>
<event>
 4    1  0.4118611E+000  0.3863499E+02  0.7546771E-02  0.1518504E+00
         -2   -1    0    0    0  501 -0.00000000000E+00  0.00000000000E+00  0.48135580404E+01  0.48135580404E+01  0.00000000000E+00 0. -1.
          2   -1    0    0  501    0  0.00000000000E+00 -0.00000000000E+00 -0.77523855834E+02  0.77523855834E+02  0.00000000000E+00 0.  1.
        -11    1    1    2    0    0  0.10374512862E+02 -0.98281138112E+01 -0.64055600448E+02  0.65630345778E+02  0.00000000000E+00 0.  1.
         11    1    1    2    0    0 -0.10374512862E+02  0.98281138112E+01 -0.86546973451E+01  0.16707068096E+02  0.00000000000E+00 0. -1.
<mgrwt>
<rscale>  0 0.38634988E+02</rscale>
<asrwt>0</asrwt>
<pdfrwt beam="2">  1        2 0.11926747E-01 0.38634988E+02</pdfrwt>
<pdfrwt beam="1">  1       -2 0.74054738E-03 0.38634988E+02</pdfrwt>
<totfact> 0.10717895E+06</totfact>
</mgrwt>
</event>
<event>
 4    1  0.4118611E+000  0.2860018E+02  0.7546771E-02  0.1614098E+00
         -1   -1    0    0    0  501 -0.00000000000E+00  0.00000000000E+00  0.36414376648E+02  0.36414376648E+02  0.00000000000E+00 0.  1.
          1   -1    0    0  501    0  0.00000000000E+00 -0.00000000000E+00 -0.56157109724E+01  0.56157109724E+01  0.00000000000E+00 0. -1.
        -11    1    1    2    0    0 -0.82121955714E+01  0.10594172655E+02  0.22720107892E+02  0.26379536633E+02  0.00000000000E+00 0.  1.
         11    1    1    2    0    0  0.82121955714E+01 -0.10594172655E+02  0.80785577837E+01  0.15650550987E+02  0.00000000000E+00 0. -1.
<mgrwt>
<rscale>  0 0.28600183E+02</rscale>
<asrwt>0</asrwt>
<pdfrwt beam="2">  1        1 0.86395556E-03 0.28600183E+02</pdfrwt>
<pdfrwt beam="1">  1       -1 0.56022116E-02 0.28600183E+02</pdfrwt>
<totfact> 0.16015579E+06</totfact>
</mgrwt>
</event>
<event>
 4    1  0.4118611E+000  0.4643482E+02  0.7546771E-02  0.1465578E+00
         -2   -1    0    0    0  501 -0.00000000000E+00  0.00000000000E+00  0.35761523024E+01  0.35761523024E+01  0.00000000000E+00 0. -1.
          2   -1    0    0  501    0  0.00000000000E+00 -0.00000000000E+00 -0.15073407590E+03  0.15073407590E+03  0.00000000000E+00 0.  1.
        -13    1    1    2    0    0  0.12675400409E+02  0.16347674864E+02 -0.10861200884E+03  0.11056437361E+03  0.00000000000E+00 0.  1.
         13    1    1    2    0    0 -0.12675400409E+02 -0.16347674864E+02 -0.38545914763E+02  0.43745854591E+02  0.00000000000E+00 0. -1.
<mgrwt>
<rscale>  0 0.46434815E+02</rscale>
<asrwt>0</asrwt>
<pdfrwt beam="2">  1        2 0.23189856E-01 0.46434815E+02</pdfrwt>
<pdfrwt beam="1">  1       -2 0.55017733E-03 0.46434815E+02</pdfrwt>
<totfact> 0.80934758E+05</totfact>
</mgrwt>
</event>
<event>
 4    1  0.4118611E+000  0.2058856E+02  0.7546771E-02  0.1733871E+00
         -2   -1    0    0    0  501 -0.00000000000E+00  0.00000000000E+00  0.56497897726E+02  0.56497897726E+02  0.00000000000E+00 0. -1.
          2   -1    0    0  501    0  0.00000000000E+00 -0.00000000000E+00 -0.18756831585E+01  0.18756831585E+01  0.00000000000E+00 0.  1.
        -11    1    1    2    0    0  0.13118093190E+01  0.10134029179E+02  0.30844103763E+02  0.32492739621E+02  0.00000000000E+00 0.  1.
         11    1    1    2    0    0 -0.13118093190E+01 -0.10134029179E+02  0.23778110804E+02  0.25880841264E+02  0.00000000000E+00 0. -1.
<mgrwt>
<rscale>  0 0.20588556E+02</rscale>
<asrwt>0</asrwt>
<pdfrwt beam="2">  1        2 0.28856668E-03 0.20588556E+02</pdfrwt>
<pdfrwt beam="1">  1       -2 0.86919830E-02 0.20588556E+02</pdfrwt>
<totfact> 0.31231588E+06</totfact>
</mgrwt>
</event>
<event>
 4    1  0.4118611E+000  0.3731459E+02  0.7546771E-02  0.1528957E+00
          2   -1    0    0  501    0  0.00000000000E+00  0.00000000000E+00  0.31800341051E+02  0.31800341051E+02  0.00000000000E+00 0. -1.
         -2   -1    0    0    0  501 -0.00000000000E+00 -0.00000000000E+00 -0.10946254285E+02  0.10946254285E+02  0.00000000000E+00 0.  1.
        -13    1    1    2    0    0 -0.61813613565E+01 -0.17545755885E+02  0.12059974314E+02  0.22169929143E+02  0.00000000000E+00 0. -1.
         13    1    1    2    0    0  0.61813613565E+01  0.17545755885E+02  0.87941124530E+01  0.20576666193E+02  0.00000000000E+00 0.  1.
<mgrwt>
<rscale>  0 0.37314588E+02</rscale>
<asrwt>0</asrwt>
<pdfrwt beam="1">  1        2 0.48923601E-02 0.37314588E+02</pdfrwt>
<pdfrwt beam="2">  1       -2 0.16840391E-02 0.37314588E+02</pdfrwt>
<totfact> 0.99905032E+05</totfact>
</mgrwt>
</event>
<event>
 4    1  0.4118611E+000  0.4251187E+02  0.7546771E-02  0.1490500E+00
         -2   -1    0    0    0  501 -0.00000000000E+00  0.00000000000E+00  0.89801238822E+01  0.89801238822E+01  0.00000000000E+00 0. -1.
          2   -1    0    0  501    0  0.00000000000E+00 -0.00000000000E+00 -0.50312753545E+02  0.50312753545E+02  0.00000000000E+00 0.  1.
        -11    1    1    2    0    0  0.74786954925E+01 -0.19867797968E+02 -0.19167717254E+02  0.28601777341E+02  0.00000000000E+00 0.  1.
         11    1    1    2    0    0 -0.74786954925E+01  0.19867797968E+02 -0.22164912409E+02  0.30691100086E+02  0.00000000000E+00 0. -1.
<mgrwt>
<rscale>  0 0.42511869E+02</rscale>
<asrwt>0</asrwt>
<pdfrwt beam="2">  1        2 0.77404236E-02 0.42511869E+02</pdfrwt>
<pdfrwt beam="1">  1       -2 0.13815575E-02 0.42511869E+02</pdfrwt>
<totfact> 0.77579264E+05</totfact>
</mgrwt>
</event>
<event>
 4    1  0.4118611E+000  0.2794862E+02  0.7546771E-02  0.1621938E+00
          2   -1    0    0  501    0  0.00000000000E+00  0.00000000000E+00  0.15242229099E+02  0.15242229099E+02  0.00000000000E+00 0.  1.
         -2   -1    0    0    0  501 -0.00000000000E+00 -0.00000000000E+00 -0.12811863827E+02  0.12811863827E+02  0.00000000000E+00 0. -1.
        -11    1    1    2    0    0 -0.95256613506E+01 -0.64048830601E+01 -0.67848760787E+01  0.13333990197E+02  0.00000000000E+00 0. -1.
         11    1    1    2    0    0  0.95256613506E+01  0.64048830601E+01  0.92152413505E+01  0.14720102728E+02  0.00000000000E+00 0.  1.
<mgrwt>
<rscale>  0 0.27948622E+02</rscale>
<asrwt>0</asrwt>
<pdfrwt beam="1">  1        2 0.23449583E-02 0.27948622E+02</pdfrwt>
<pdfrwt beam="2">  1       -2 0.19710560E-02 0.27948622E+02</pdfrwt>
<totfact> 0.18624145E+06</totfact>
</mgrwt>
</event>
<event>
 4    1  0.4118611E+000  0.2789959E+02  0.7546771E-02  0.1622538E+00
          4   -1    0    0  501    0  0.00000000000E+00  0.00000000000E+00  0.28362234166E+01  0.28362234166E+01  0.00000000000E+00 0.  1.
         -4   -1    0    0    0  501 -0.00000000000E+00 -0.00000000000E+00 -0.68611215249E+02  0.68611215249E+02  0.00000000000E+00 0. -1.
        -11    1    1    2    0    0 -0.41885036231E+01 -0.12331732499E+02 -0.20087832424E+02  0.23940263168E+02  0.00000000000E+00 0. -1.
         11    1    1    2    0    0  0.41885036231E+01  0.12331732499E+02 -0.45687159408E+02  0.47507175498E+02  0.00000000000E+00 0.  1.
<mgrwt>
<rscale>  0 0.27899587E+02</rscale>
<asrwt>0</asrwt>
<pdfrwt beam="1">  1        4 0.43634204E-03 0.27899587E+02</pdfrwt>
<pdfrwt beam="2">  1       -4 0.10555572E-01 0.27899587E+02</pdfrwt>
<totfact> 0.53043976E+05</totfact>
</mgrwt>
</event>
<event>
 4    1  0.4118611E+000  0.2703112E+02  0.7546771E-02  0.1633433E+00
          4   -1    0    0  501    0  0.00000000000E+00  0.00000000000E+00  0.18605673037E+02  0.18605673037E+02  0.00000000000E+00 0. -1.
         -4   -1    0    0    0  501 -0.00000000000E+00 -0.00000000000E+00 -0.98179911308E+01  0.98179911308E+01  0.00000000000E+00 0.  1.
        -13    1    1    2    0    0  0.20623584318E+01  0.13292665059E+02  0.30139620416E+01  0.13785217947E+02  0.00000000000E+00 0. -1.
         13    1    1    2    0    0 -0.20623584318E+01 -0.13292665059E+02  0.57737198643E+01  0.14638446220E+02  0.00000000000E+00 0.  1.
<mgrwt>
<rscale>  0 0.27031118E+02</rscale>
<asrwt>0</asrwt>
<pdfrwt beam="1">  1        4 0.28624112E-02 0.27031118E+02</pdfrwt>
<pdfrwt beam="2">  1       -4 0.15104602E-02 0.27031118E+02</pdfrwt>
<totfact> 0.66079317E+05</totfact>
</mgrwt>
</event>
<event>
 4    1  0.4118611E+000  0.2378045E+02  0.7546771E-02  0.1679163E+00
         -2   -1    0    0    0  501 -0.00000000000E+00  0.00000000000E+00  0.41750065739E+02  0.41750065739E+02  0.00000000000E+00 0.  1.
          2   -1    0    0  501    0  0.00000000000E+00 -0.00000000000E+00 -0.33862796693E+01  0.33862796693E+01  0.00000000000E+00 0. -1.
        -11    1    1    2    0    0 -0.23731575986E+01 -0.11014715339E+02  0.11973928494E+02  0.16441739402E+02  0.00000000000E+00 0. -1.
         11    1    1    2    0    0  0.23731575986E+01  0.11014715339E+02  0.26389857575E+02  0.28694606006E+02  0.00000000000E+00 0.  1.
<mgrwt>
<rscale>  0 0.23780446E+02</rscale>
<asrwt>0</asrwt>
<pdfrwt beam="2">  1        2 0.52096613E-03 0.23780446E+02</pdfrwt>
<pdfrwt beam="1">  1       -2 0.64230867E-02 0.23780446E+02</pdfrwt>
<totfact> 0.23676521E+06</totfact>
</mgrwt>
</event>
<event>
 4    1  0.4118611E+000  0.3798138E+02  0.7546771E-02  0.1523614E+00
          2   -1    0    0  501    0  0.00000000000E+00  0.00000000000E+00  0.10779533217E+02  0.10779533217E+02  0.00000000000E+00 0.  1.
         -2   -1    0    0    0  501 -0.00000000000E+00 -0.00000000000E+00 -0.33456572234E+02  0.33456572234E+02  0.00000000000E+00 0. -1.
        -13    1    1    2    0    0  0.86522371295E+01 -0.10270265711E+02 -0.26977631221E+02  0.30135231066E+02  0.00000000000E+00 0. -1.
         13    1    1    2    0    0 -0.86522371295E+01  0.10270265711E+02  0.43005922035E+01  0.14100874385E+02  0.00000000000E+00 0.  1.
<mgrwt>
<rscale>  0 0.37981376E+02</rscale>
<asrwt>0</asrwt>
<pdfrwt beam="1">  1        2 0.16583897E-02 0.37981376E+02</pdfrwt>
<pdfrwt beam="2">  1       -2 0.51471650E-02 0.37981376E+02</pdfrwt>
<totfact> 0.83152325E+05</totfact>
</mgrwt>
</event>
<event>
 4    1  0.4118611E+000  0.3707870E+02  0.7546771E-02  0.1530880E+00
          2   -1    0    0  501    0  0.00000000000E+00  0.00000000000E+00  0.31877637657E+02  0.31877637657E+02  0.00000000000E+00 0. -1.
         -2   -1    0    0    0  501 -0.00000000000E+00 -0.00000000000E+00 -0.10782088184E+02  0.10782088184E+02  0.00000000000E+00 0.  1.
        -13    1    1    2    0    0 -0.18114401780E+02 -0.39992490457E+00  0.15065080948E+02  0.23563704202E+02  0.00000000000E+00 0. -1.
         13    1    1    2    0    0  0.18114401780E+02  0.39992490457E+00  0.60304685260E+01  0.19096021639E+02  0.00000000000E+00 0.  1.
<mgrwt>
<rscale>  0 0.37078700E+02</rscale>
<asrwt>0</asrwt>
<pdfrwt beam="1">  1        2 0.49042519E-02 0.37078700E+02</pdfrwt>
<pdfrwt beam="2">  1       -2 0.16587828E-02 0.37078700E+02</pdfrwt>
<totfact> 0.10152829E+06</totfact>
</mgrwt>
</event>
<event>
 4    1  0.4118611E+000  0.2808321E+02  0.7546771E-02  0.1620297E+00
          2   -1    0    0  501    0  0.00000000000E+00  0.00000000000E+00  0.77065860221E+02  0.77065860221E+02  0.00000000000E+00 0.  1.
         -2   -1    0    0    0  501 -0.00000000000E+00 -0.00000000000E+00 -0.25584184066E+01  0.25584184066E+01  0.00000000000E+00 0. -1.
        -13    1    1    2    0    0  0.97119716941E+01 -0.94930448585E+01  0.47368393926E+02  0.49276820494E+02  0.00000000000E+00 0.  1.
         13    1    1    2    0    0 -0.97119716941E+01  0.94930448585E+01  0.27139047888E+02  0.30347458133E+02  0.00000000000E+00 0. -1.
<mgrwt>
<rscale>  0 0.28083213E+02</rscale>
<asrwt>0</asrwt>
<pdfrwt beam="1">  1        2 0.11856284E-01 0.28083213E+02</pdfrwt>
<pdfrwt beam="2">  1       -2 0.39360289E-03 0.28083213E+02</pdfrwt>
<totfact> 0.23021326E+06</totfact>
</mgrwt>
</event>
<event>
 4    1  0.4118611E+000  0.2368345E+02  0.7546771E-02  0.1680665E+00
         -2   -1    0    0    0  501 -0.00000000000E+00  0.00000000000E+00  0.42935030684E+02  0.42935030684E+02  0.00000000000E+00 0.  1.
          2   -1    0    0  501    0  0.00000000000E+00 -0.00000000000E+00 -0.32660154792E+01  0.32660154792E+01  0.00000000000E+00 0. -1.
        -11    1    1    2    0    0 -0.16740361788E+00  0.10884128651E+02  0.28929002404E+02  0.30909213198E+02  0.00000000000E+00 0.  1.
         11    1    1    2    0    0  0.16740361788E+00 -0.10884128651E+02  0.10740012802E+02  0.15291832965E+02  0.00000000000E+00 0. -1.
<mgrwt>
<rscale>  0 0.23683452E+02</rscale>
<asrwt>0</asrwt>
<pdfrwt beam="2">  1        2 0.50246395E-03 0.23683452E+02</pdfrwt>
<pdfrwt beam="1">  1       -2 0.66053889E-02 0.23683452E+02</pdfrwt>
<totfact> 0.23807436E+06</totfact>
</mgrwt>
</event>
<event>
 4    1  0.4118611E+000  0.5051204E+02  0.7546771E-02  0.1442599E+00
          2   -1    0    0  501    0  0.00000000000E+00  0.00000000000E+00  0.44684946717E+02  0.44684946717E+02  0.00000000000E+00 0.  1.
         -2   -1    0    0    0  501 -0.00000000000E+00 -0.00000000000E+00 -0.14274752070E+02  0.14274752070E+02  0.00000000000E+00 0. -1.
        -11    1    1    2    0    0 -0.10878537925E+02  0.14088866410E+02  0.36118835506E+02  0.40266723513E+02  0.00000000000E+00 0.  1.
         11    1    1    2    0    0  0.10878537925E+02 -0.14088866410E+02 -0.57086408592E+01  0.18692975274E+02  0.00000000000E+00 0. -1.
<mgrwt>
<rscale>  0 0.50512040E+02</rscale>
<asrwt>0</asrwt>
<pdfrwt beam="1">  1        2 0.68746071E-02 0.50512040E+02</pdfrwt>
<pdfrwt beam="2">  1       -2 0.21961157E-02 0.50512040E+02</pdfrwt>
<totfact> 0.48934738E+05</totfact>
</mgrwt>
</event>
<event>
 4    1  0.4118611E+000  0.3300710E+02  0.7546771E-02  0.1567045E+00
          2   -1    0    0  501    0  0.00000000000E+00  0.00000000000E+00  0.19658965103E+02  0.19658965103E+02  0.00000000000E+00 0. -1.
         -2   -1    0    0    0  501 -0.00000000000E+00 -0.00000000000E+00 -0.13854599725E+02  0.13854599725E+02  0.00000000000E+00 0.  1.
        -13    1    1    2    0    0 -0.10947678951E+02 -0.11834231041E+02 -0.68277251291E+00  0.16135887861E+02  0.00000000000E+00 0.  1.
         13    1    1    2    0    0  0.10947678951E+02  0.11834231041E+02  0.64871378908E+01  0.17377676967E+02  0.00000000000E+00 0. -1.
<mgrwt>
<rscale>  0 0.33007096E+02</rscale>
<asrwt>0</asrwt>
<pdfrwt beam="1">  1        2 0.30244562E-02 0.33007096E+02</pdfrwt>
<pdfrwt beam="2">  1       -2 0.21314769E-02 0.33007096E+02</pdfrwt>
<totfact> 0.12745415E+06</totfact>
</mgrwt>
</event>
<event>
 4    1  0.4118611E+000  0.6203356E+02  0.7546771E-02  0.1389491E+00
          2   -1    0    0  501    0  0.00000000000E+00  0.00000000000E+00  0.28482264035E+02  0.28482264035E+02  0.00000000000E+00 0.  1.
         -2   -1    0    0    0  501 -0.00000000000E+00 -0.00000000000E+00 -0.33776831459E+02  0.33776831459E+02  0.00000000000E+00 0. -1.
        -11    1    1    2    0    0  0.19665070978E+02 -0.86159547736E+01  0.19819162407E+02  0.29218981703E+02  0.00000000000E+00 0.  1.
         11    1    1    2    0    0 -0.19665070978E+02  0.86159547736E+01 -0.25113729832E+02  0.33040113790E+02  0.00000000000E+00 0. -1.
<mgrwt>
<rscale>  0 0.62033560E+02</rscale>
<asrwt>0</asrwt>
<pdfrwt beam="1">  1        2 0.43818868E-02 0.62033560E+02</pdfrwt>
<pdfrwt beam="2">  1       -2 0.51964356E-02 0.62033560E+02</pdfrwt>
<totfact> 0.26141137E+05</totfact>
</mgrwt>
</event>
<event>
 4    1  0.4118611E+000  0.2349106E+02  0.7546771E-02  0.1683672E+00
         -1   -1    0    0    0  501 -0.00000000000E+00  0.00000000000E+00  0.27164572587E+01  0.27164572587E+01  0.00000000000E+00 0.  1.
          1   -1    0    0  501    0  0.00000000000E+00 -0.00000000000E+00 -0.50785786657E+02  0.50785786657E+02  0.00000000000E+00 0. -1.
        -13    1    1    2    0    0  0.11730882622E+02 -0.48198058666E-02 -0.22699253146E+02  0.25551315498E+02  0.00000000000E+00 0.  1.
         13    1    1    2    0    0 -0.11730882622E+02  0.48198058666E-02 -0.25370076253E+02  0.27950928418E+02  0.00000000000E+00 0. -1.
<mgrwt>
<rscale>  0 0.23491055E+02</rscale>
<asrwt>0</asrwt>
<pdfrwt beam="2">  1        1 0.78131972E-02 0.23491055E+02</pdfrwt>
<pdfrwt beam="1">  1       -1 0.41791654E-03 0.23491055E+02</pdfrwt>
<totfact> 0.29056134E+06</totfact>
</mgrwt>
</event>
<event>
 4    1  0.4118611E+000  0.2636223E+02  0.7546771E-02  0.1642173E+00
         -3   -1    0    0    0  501 -0.00000000000E+00  0.00000000000E+00  0.77520786169E+02  0.77520786169E+02  0.00000000000E+00 0. -1.
          3   -1    0    0  501    0  0.00000000000E+00 -0.00000000000E+00 -0.22412286918E+01  0.22412286918E+01  0.00000000000E+00 0.  1.
        -11    1    1    2    0    0 -0.84612464309E+01 -0.97625607550E+01  0.45553676885E+02  0.47350161155E+02  0.00000000000E+00 0. -1.
         11    1    1    2    0    0  0.84612464309E+01  0.97625607550E+01  0.29725880592E+02  0.32411853706E+02  0.00000000000E+00 0.  1.
<mgrwt>
<rscale>  0 0.26362231E+02</rscale>
<asrwt>0</asrwt>
<pdfrwt beam="2">  1        3 0.34480447E-03 0.26362231E+02</pdfrwt>
<pdfrwt beam="1">  1       -3 0.11926273E-01 0.26362231E+02</pdfrwt>
<totfact> 0.81067243E+05</totfact>
</mgrwt>
</event>
<event>
 4    1  0.4118611E+000  0.4509741E+02  0.7546771E-02  0.1473734E+00
          2   -1    0    0  501    0  0.00000000000E+00  0.00000000000E+00  0.17935180845E+03  0.17935180845E+03  0.00000000000E+00 0. -1.
         -2   -1    0    0    0  501 -0.00000000000E+00 -0.00000000000E+00 -0.28348984347E+01  0.28348984347E+01  0.00000000000E+00 0.  1.
        -13    1    1    2    0    0 -0.21920461481E+02  0.81046889298E+00  0.10935894650E+03  0.11153718067E+03  0.00000000000E+00 0. -1.
         13    1    1    2    0    0  0.21920461481E+02 -0.81046889298E+00  0.67157963510E+02  0.70649526214E+02  0.00000000000E+00 0.  1.
<mgrwt>
<rscale>  0 0.45097413E+02</rscale>
<asrwt>0</asrwt>
<pdfrwt beam="1">  1        2 0.27592577E-01 0.45097413E+02</pdfrwt>
<pdfrwt beam="2">  1       -2 0.43613836E-03 0.45097413E+02</pdfrwt>
<totfact> 0.91860153E+05</totfact>
</mgrwt>
</event>
<event>
 4    1  0.4118611E+000  0.4194519E+02  0.7546771E-02  0.1494366E+00
          4   -1    0    0  501    0  0.00000000000E+00  0.00000000000E+00  0.23260619431E+02  0.23260619431E+02  0.00000000000E+00 0.  1.
         -4   -1    0    0    0  501 -0.00000000000E+00 -0.00000000000E+00 -0.18909629004E+02  0.18909629004E+02  0.00000000000E+00 0. -1.
        -11    1    1    2    0    0 -0.39090037703E+01 -0.11530528932E+02  0.19343898311E+02  0.22856504759E+02  0.00000000000E+00 0.  1.
         11    1    1    2    0    0  0.39090037703E+01  0.11530528932E+02 -0.14992907885E+02  0.19313743676E+02  0.00000000000E+00 0. -1.
<mgrwt>
<rscale>  0 0.41945187E+02</rscale>
<asrwt>0</asrwt>
<pdfrwt beam="1">  1        4 0.35785568E-02 0.41945187E+02</pdfrwt>
<pdfrwt beam="2">  1       -4 0.29091737E-02 0.41945187E+02</pdfrwt>
<totfact> 0.22741280E+05</totfact>
</mgrwt>
</event>
<event>
 4    1  0.4118611E+000  0.4796156E+02  0.7546771E-02  0.1456657E+00
         -2   -1    0    0    0  501 -0.00000000000E+00  0.00000000000E+00  0.49180003058E+01  0.49180003058E+01  0.00000000000E+00 0. -1.
          2   -1    0    0  501    0  0.00000000000E+00 -0.00000000000E+00 -0.11693324268E+03  0.11693324268E+03  0.00000000000E+00 0.  1.
        -11    1    1    2    0    0 -0.61724611217E+01  0.22285053522E+02 -0.72146913656E+02  0.75762127986E+02  0.00000000000E+00 0.  1.
         11    1    1    2    0    0  0.61724611217E+01 -0.22285053522E+02 -0.39868328722E+02  0.46089115004E+02  0.00000000000E+00 0. -1.
<mgrwt>
<rscale>  0 0.47961556E+02</rscale>
<asrwt>0</asrwt>
<pdfrwt beam="2">  1        2 0.17989730E-01 0.47961556E+02</pdfrwt>
<pdfrwt beam="1">  1       -2 0.75661540E-03 0.47961556E+02</pdfrwt>
<totfact> 0.69345670E+05</totfact>
</mgrwt>
</event>
<event>
 4    1  0.4118611E+000  0.2707633E+02  0.7546771E-02  0.1632853E+00
         -1   -1    0    0    0  501 -0.00000000000E+00  0.00000000000E+00  0.12030428911E+01  0.12030428911E+01  0.00000000000E+00 0.  1.
          1   -1    0    0  501    0  0.00000000000E+00 -0.00000000000E+00 -0.15234856699E+03  0.15234856699E+03  0.00000000000E+00 0. -1.
        -13    1    1    2    0    0 -0.10907286173E+02 -0.79560761916E+01 -0.69862642978E+02  0.71155160909E+02  0.00000000000E+00 0.  1.
         13    1    1    2    0    0  0.10907286173E+02  0.79560761916E+01 -0.81282881118E+02  0.82396448970E+02  0.00000000000E+00 0. -1.
<mgrwt>
<rscale>  0 0.27076326E+02</rscale>
<asrwt>0</asrwt>
<pdfrwt beam="2">  1        1 0.23438214E-01 0.27076326E+02</pdfrwt>
<pdfrwt beam="1">  1       -1 0.18508374E-03 0.27076326E+02</pdfrwt>
<totfact> 0.23603217E+06</totfact>
</mgrwt>
</event>
<event>
 4    1  0.4118611E+000  0.2071168E+02  0.7546771E-02  0.1731535E+00
          2   -1    0    0  501    0  0.00000000000E+00  0.00000000000E+00  0.17504406880E+01  0.17504406880E+01  0.00000000000E+00 0. -1.
         -2   -1    0    0    0  501 -0.00000000000E+00 -0.00000000000E+00 -0.61266516396E+02  0.61266516396E+02  0.00000000000E+00 0.  1.
        -11    1    1    2    0    0  0.40868605747E+01 -0.95138328265E+01 -0.29249292265E+02  0.31027996107E+02  0.00000000000E+00 0. -1.
         11    1    1    2    0    0 -0.40868605747E+01  0.95138328265E+01 -0.30266783443E+02  0.31988960977E+02  0.00000000000E+00 0.  1.
<mgrwt>
<rscale>  0 0.20711678E+02</rscale>
<asrwt>0</asrwt>
<pdfrwt beam="1">  1        2 0.26929856E-03 0.20711678E+02</pdfrwt>
<pdfrwt beam="2">  1       -2 0.94256182E-02 0.20711678E+02</pdfrwt>
<totfact> 0.30421967E+06</totfact>
</mgrwt>
</event>
<event>
 4    1  0.4118611E+000  0.2139579E+02  0.7546771E-02  0.1718916E+00
          4   -1    0    0  501    0  0.00000000000E+00  0.00000000000E+00  0.86241003884E+02  0.86241003884E+02  0.00000000000E+00 0.  1.
         -4   -1    0    0    0  501 -0.00000000000E+00 -0.00000000000E+00 -0.13270363168E+01  0.13270363168E+01  0.00000000000E+00 0. -1.
        -11    1    1    2    0    0  0.76602595121E+01  0.64692131943E+01  0.57723975032E+02  0.58588288835E+02  0.00000000000E+00 0. -1.
         11    1    1    2    0    0 -0.76602595121E+01 -0.64692131943E+01  0.27189992536E+02  0.28979751366E+02  0.00000000000E+00 0.  1.
<mgrwt>
<rscale>  0 0.21395789E+02</rscale>
<asrwt>0</asrwt>
<pdfrwt beam="1">  1        4 0.13267842E-01 0.21395789E+02</pdfrwt>
<pdfrwt beam="2">  1       -4 0.20415950E-03 0.21395789E+02</pdfrwt>
<totfact> 0.88715547E+05</totfact>
</mgrwt>
</event>
<event>
 4    1  0.4118611E+000  0.5536117E+02  0.7546771E-02  0.1418399E+00
          2   -1    0    0  501    0  0.00000000000E+00  0.00000000000E+00  0.13843947958E+02  0.13843947958E+02  0.00000000000E+00 0.  1.
         -2   -1    0    0    0  501 -0.00000000000E+00 -0.00000000000E+00 -0.55346552167E+02  0.55346552167E+02  0.00000000000E+00 0. -1.
        -11    1    1    2    0    0 -0.14408664415E+02 -0.94811402631E+01  0.63066411470E+01  0.18365057949E+02  0.00000000000E+00 0.  1.
         11    1    1    2    0    0  0.14408664415E+02  0.94811402631E+01 -0.47809245356E+02  0.50825442177E+02  0.00000000000E+00 0. -1.
<mgrwt>
<rscale>  0 0.55361170E+02</rscale>
<asrwt>0</asrwt>
<pdfrwt beam="1">  1        2 0.21298382E-02 0.55361170E+02</pdfrwt>
<pdfrwt beam="2">  1       -2 0.85148541E-02 0.55361170E+02</pdfrwt>
<totfact> 0.31314045E+05</totfact>
</mgrwt>
</event>
<event>
 4    1  0.4118611E+000  0.2296659E+02  0.7546771E-02  0.1692052E+00
          2   -1    0    0  501    0  0.00000000000E+00  0.00000000000E+00  0.10180568427E+02  0.10180568427E+02  0.00000000000E+00 0.  1.
         -2   -1    0    0    0  501 -0.00000000000E+00 -0.00000000000E+00 -0.12952725159E+02  0.12952725159E+02  0.00000000000E+00 0. -1.
        -13    1    1    2    0    0 -0.96590876242E+01 -0.28567210452E+01  0.41682255902E+01  0.10901051942E+02  0.00000000000E+00 0.  1.
         13    1    1    2    0    0  0.96590876242E+01  0.28567210452E+01 -0.69403823228E+01  0.12232241644E+02  0.00000000000E+00 0. -1.
<mgrwt>
<rscale>  0 0.22966594E+02</rscale>
<asrwt>0</asrwt>
<pdfrwt beam="1">  1        2 0.15662413E-02 0.22966594E+02</pdfrwt>
<pdfrwt beam="2">  1       -2 0.19927269E-02 0.22966594E+02</pdfrwt>
<totfact> 0.28675503E+06</totfact>
</mgrwt>
</event>
<event>
 4    1  0.4118611E+000  0.2666014E+02  0.7546771E-02  0.1638241E+00
          2   -1    0    0  501    0  0.00000000000E+00  0.00000000000E+00  0.42712753263E+01  0.42712753263E+01  0.00000000000E+00 0. -1.
         -2   -1    0    0    0  501 -0.00000000000E+00 -0.00000000000E+00 -0.41601329583E+02  0.41601329583E+02  0.00000000000E+00 0.  1.
        -11    1    1    2    0    0 -0.78698166415E+01 -0.10292347187E+02 -0.13271883298E+02  0.18547487993E+02  0.00000000000E+00 0. -1.
         11    1    1    2    0    0  0.78698166415E+01  0.10292347187E+02 -0.24058170959E+02  0.27325116916E+02  0.00000000000E+00 0.  1.
<mgrwt>
<rscale>  0 0.26660137E+02</rscale>
<asrwt>0</asrwt>
<pdfrwt beam="1">  1        2 0.65711926E-03 0.26660137E+02</pdfrwt>
<pdfrwt beam="2">  1       -2 0.64002047E-02 0.26660137E+02</pdfrwt>
<totfact> 0.18300742E+06</totfact>
</mgrwt>
</event>
<event>
 4    1  0.4118611E+000  0.4419139E+02  0.7546771E-02  0.1479454E+00
          4   -1    0    0  501    0  0.00000000000E+00  0.00000000000E+00  0.44773757947E+02  0.44773757947E+02  0.00000000000E+00 0.  1.
         -4   -1    0    0    0  501 -0.00000000000E+00 -0.00000000000E+00 -0.10904148868E+02  0.10904148868E+02  0.00000000000E+00 0. -1.
        -13    1    1    2    0    0  0.18699248826E+02 -0.32454382508E+01  0.31190635766E+02  0.36510964594E+02  0.00000000000E+00 0.  1.
         13    1    1    2    0    0 -0.18699248826E+02  0.32454382508E+01  0.26789733130E+01  0.19166942221E+02  0.00000000000E+00 0. -1.
<mgrwt>
<rscale>  0 0.44191389E+02</rscale>
<asrwt>0</asrwt>
<pdfrwt beam="1">  1        4 0.68882703E-02 0.44191389E+02</pdfrwt>
<pdfrwt beam="2">  1       -4 0.16775614E-02 0.44191389E+02</pdfrwt>
<totfact> 0.19191181E+05</totfact>
</mgrwt>
</event>
<event>
 4    1  0.4118611E+000  0.2626184E+02  0.7546771E-02  0.1643512E+00
          1   -1    0    0  501    0  0.00000000000E+00  0.00000000000E+00  0.23180891743E+02  0.23180891743E+02  0.00000000000E+00 0. -1.
         -1   -1    0    0    0  501 -0.00000000000E+00 -0.00000000000E+00 -0.74380704679E+01  0.74380704679E+01  0.00000000000E+00 0.  1.
        -13    1    1    2    0    0  0.93394235409E+01  0.82650891921E+01  0.30805854688E+01  0.12846265538E+02  0.00000000000E+00 0. -1.
         13    1    1    2    0    0 -0.93394235409E+01 -0.82650891921E+01  0.12662235806E+02  0.17772696673E+02  0.00000000000E+00 0.  1.
<mgrwt>
<rscale>  0 0.26261844E+02</rscale>
<asrwt>0</asrwt>
<pdfrwt beam="1">  1        1 0.35662910E-02 0.26261844E+02</pdfrwt>
<pdfrwt beam="2">  1       -1 0.11443185E-02 0.26261844E+02</pdfrwt>
<totfact> 0.21386641E+06</totfact>
</mgrwt>
</event>
<event>
 4    1  0.4118611E+000  0.2455570E+02  0.7546771E-02  0.1667467E+00
         -1   -1    0    0    0  501 -0.00000000000E+00  0.00000000000E+00  0.44024461052E+01  0.44024461052E+01  0.00000000000E+00 0.  1.
          1   -1    0    0  501    0  0.00000000000E+00 -0.00000000000E+00 -0.34241321257E+02  0.34241321257E+02  0.00000000000E+00 0. -1.
        -13    1    1    2    0    0 -0.37412589398E+01  0.11669889656E+02 -0.13739433358E+02  0.18410740670E+02  0.00000000000E+00 0.  1.
         13    1    1    2    0    0  0.37412589398E+01 -0.11669889656E+02 -0.16099441794E+02  0.20233026692E+02  0.00000000000E+00 0. -1.
<mgrwt>
<rscale>  0 0.24555698E+02</rscale>
<asrwt>0</asrwt>
<pdfrwt beam="2">  1        1 0.52678958E-02 0.24555698E+02</pdfrwt>
<pdfrwt beam="1">  1       -1 0.67729938E-03 0.24555698E+02</pdfrwt>
<totfact> 0.25561117E+06</totfact>
</mgrwt>
</event>
<event>
 4    1  0.4118611E+000  0.4656291E+02  0.7546771E-02  0.1464814E+00
          2   -1    0    0  501    0  0.00000000000E+00  0.00000000000E+00  0.13591020387E+02  0.13591020387E+02  0.00000000000E+00 0.  1.
         -2   -1    0    0    0  501 -0.00000000000E+00 -0.00000000000E+00 -0.39881193068E+02  0.39881193068E+02  0.00000000000E+00 0. -1.
        -11    1    1    2    0    0  0.22132124154E+02  0.70128749339E+01 -0.11151131033E+02  0.25755757758E+02  0.00000000000E+00 0. -1.
         11    1    1    2    0    0 -0.22132124154E+02 -0.70128749339E+01 -0.15139041648E+02  0.27716455697E+02  0.00000000000E+00 0.  1.
<mgrwt>
<rscale>  0 0.46562908E+02</rscale>
<asrwt>0</asrwt>
<pdfrwt beam="1">  1        2 0.20909262E-02 0.46562908E+02</pdfrwt>
<pdfrwt beam="2">  1       -2 0.61355681E-02 0.46562908E+02</pdfrwt>
<totfact> 0.50163656E+05</totfact>
</mgrwt>
</event>
<event>
 4    1  0.4118611E+000  0.4055073E+02  0.7546771E-02  0.1504197E+00
         -2   -1    0    0    0  501 -0.00000000000E+00  0.00000000000E+00  0.81116679798E+02  0.81116679798E+02  0.00000000000E+00 0. -1.
          2   -1    0    0  501    0  0.00000000000E+00 -0.00000000000E+00 -0.50678907167E+01  0.50678907167E+01  0.00000000000E+00 0.  1.
        -11    1    1    2    0    0 -0.19176684471E+02 -0.60970198307E+01  0.43304339193E+02  0.47751279261E+02  0.00000000000E+00 0.  1.
         11    1    1    2    0    0  0.19176684471E+02  0.60970198307E+01  0.32744449888E+02  0.38433291254E+02  0.00000000000E+00 0. -1.
<mgrwt>
<rscale>  0 0.40550732E+02</rscale>
<asrwt>0</asrwt>
<pdfrwt beam="2">  1        2 0.77967555E-03 0.40550732E+02</pdfrwt>
<pdfrwt beam="1">  1       -2 0.12479488E-01 0.40550732E+02</pdfrwt>
<totfact> 0.61468476E+05</totfact>
</mgrwt>
</event>
<event>
 4    1  0.4118611E+000  0.2216256E+02  0.7546771E-02  0.1705456E+00
          2   -1    0    0  501    0  0.00000000000E+00  0.00000000000E+00  0.33369042096E+01  0.33369042096E+01  0.00000000000E+00 0.  1.
         -2   -1    0    0    0  501 -0.00000000000E+00 -0.00000000000E+00 -0.36799024427E+02  0.36799024427E+02  0.00000000000E+00 0. -1.
        -13    1    1    2    0    0  0.20635242953E+01 -0.10513506761E+02 -0.11607923016E+02  0.15796703254E+02  0.00000000000E+00 0.  1.
         13    1    1    2    0    0 -0.20635242953E+01  0.10513506761E+02 -0.21854197201E+02  0.24339225383E+02  0.00000000000E+00 0. -1.
<mgrwt>
<rscale>  0 0.22162565E+02</rscale>
<asrwt>0</asrwt>
<pdfrwt beam="1">  1        2 0.51336988E-03 0.22162565E+02</pdfrwt>
<pdfrwt beam="2">  1       -2 0.56613883E-02 0.22162565E+02</pdfrwt>
<totfact> 0.28134059E+06</totfact>
</mgrwt>
</event>
<event>
 4    1  0.4118611E+000  0.3134350E+02  0.7546771E-02  0.1583696E+00
         -2   -1    0    0    0  501 -0.00000000000E+00  0.00000000000E+00  0.21248870431E+01  0.21248870431E+01  0.00000000000E+00 0. -1.
          2   -1    0    0  501    0  0.00000000000E+00 -0.00000000000E+00 -0.11558437396E+03  0.11558437396E+03  0.00000000000E+00 0.  1.
        -13    1    1    2    0    0  0.13128312245E+02 -0.50363854913E+01 -0.82717412593E+02  0.83904041066E+02  0.00000000000E+00 0.  1.
         13    1    1    2    0    0 -0.13128312245E+02  0.50363854913E+01 -0.30742074320E+02  0.33805219933E+02  0.00000000000E+00 0. -1.
<mgrwt>
<rscale>  0 0.31343499E+02</rscale>
<asrwt>0</asrwt>
<pdfrwt beam="2">  1        2 0.17782209E-01 0.31343499E+02</pdfrwt>
<pdfrwt beam="1">  1       -2 0.32690575E-03 0.31343499E+02</pdfrwt>
<totfact> 0.19531528E+06</totfact>
</mgrwt>
</event>
<event>
 4    1  0.4118611E+000  0.2889491E+02  0.7546771E-02  0.1610635E+00
         -2   -1    0    0    0  501 -0.00000000000E+00  0.00000000000E+00  0.52769511397E+02  0.52769511397E+02  0.00000000000E+00 0.  1.
          2   -1    0    0  501    0  0.00000000000E+00 -0.00000000000E+00 -0.39554850200E+01  0.39554850200E+01  0.00000000000E+00 0. -1.
        -13    1    1    2    0    0 -0.13032954562E+02 -0.52340932936E+01  0.17756785589E+02  0.22639723313E+02  0.00000000000E+00 0.  1.
         13    1    1    2    0    0  0.13032954562E+02  0.52340932936E+01  0.31057240788E+02  0.34085273104E+02  0.00000000000E+00 0. -1.
<mgrwt>
<rscale>  0 0.28894914E+02</rscale>
<asrwt>0</asrwt>
<pdfrwt beam="2">  1        2 0.60853619E-03 0.28894914E+02</pdfrwt>
<pdfrwt beam="1">  1       -2 0.81183859E-02 0.28894914E+02</pdfrwt>
<totfact> 0.14721564E+06</totfact>
</mgrwt>
</event>
<event>
 4    1  0.4118611E+000  0.5714290E+02  0.7546771E-02  0.1410228E+00
          2   -1    0    0  501    0  0.00000000000E+00  0.00000000000E+00  0.23640563976E+02  0.23640563976E+02  0.00000000000E+00 0.  1.
         -2   -1    0    0    0  501 -0.00000000000E+00 -0.00000000000E+00 -0.34530802646E+02  0.34530802646E+02  0.00000000000E+00 0. -1.
        -11    1    1    2    0    0  0.18443543836E+01  0.22431300652E+02  0.12471729045E+02  0.25731477171E+02  0.00000000000E+00 0.  1.
         11    1    1    2    0    0 -0.18443543836E+01 -0.22431300652E+02 -0.23361967715E+02  0.32439889451E+02  0.00000000000E+00 0. -1.
<mgrwt>
<rscale>  0 0.57142896E+02</rscale>
<asrwt>0</asrwt>
<pdfrwt beam="1">  1        2 0.36370098E-02 0.57142896E+02</pdfrwt>
<pdfrwt beam="2">  1       -2 0.53124312E-02 0.57142896E+02</pdfrwt>
<totfact> 0.31603139E+05</totfact>
</mgrwt>
</event>
<event>
 4    1  0.4118611E+000  0.3480204E+02  0.7546771E-02  0.1550366E+00
         -4   -1    0    0    0  501 -0.00000000000E+00  0.00000000000E+00  0.23075695027E+02  0.23075695027E+02  0.00000000000E+00 0.  1.
          4   -1    0    0  501    0  0.00000000000E+00 -0.00000000000E+00 -0.13121833523E+02  0.13121833523E+02  0.00000000000E+00 0. -1.
        -13    1    1    2    0    0 -0.78800773793E+01 -0.75250320934E+01 -0.91344704283E+01  0.14218307829E+02  0.00000000000E+00 0. -1.
         13    1    1    2    0    0  0.78800773793E+01  0.75250320934E+01  0.19088331933E+02  0.21979220721E+02  0.00000000000E+00 0.  1.
<mgrwt>
<rscale>  0 0.34802036E+02</rscale>
<asrwt>0</asrwt>
<pdfrwt beam="2">  1        4 0.20187436E-02 0.34802036E+02</pdfrwt>
<pdfrwt beam="1">  1       -4 0.35501069E-02 0.34802036E+02</pdfrwt>
<totfact> 0.36154560E+05</totfact>
</mgrwt>
</event>
<event>
 4    1  0.4118611E+000  0.3212201E+02  0.7546771E-02  0.1575751E+00
          2   -1    0    0  501    0  0.00000000000E+00  0.00000000000E+00  0.74082153672E+01  0.74082153672E+01  0.00000000000E+00 0.  1.
         -2   -1    0    0    0  501 -0.00000000000E+00 -0.00000000000E+00 -0.34820238637E+02  0.34820238637E+02  0.00000000000E+00 0. -1.
        -13    1    1    2    0    0  0.77214368225E+01 -0.10314233558E+02 -0.10998551111E+01  0.12931112935E+02  0.00000000000E+00 0.  1.
         13    1    1    2    0    0 -0.77214368225E+01  0.10314233558E+02 -0.26312168158E+02  0.29297341068E+02  0.00000000000E+00 0. -1.
<mgrwt>
<rscale>  0 0.32122007E+02</rscale>
<asrwt>0</asrwt>
<pdfrwt beam="1">  1        2 0.11397255E-02 0.32122007E+02</pdfrwt>
<pdfrwt beam="2">  1       -2 0.53569597E-02 0.32122007E+02</pdfrwt>
<totfact> 0.12211236E+06</totfact>
</mgrwt>
</event>
<event>
 4    1  0.4118611E+000  0.6934390E+02  0.7546771E-02  0.1362338E+00
          2   -1    0    0  501    0  0.00000000000E+00  0.00000000000E+00  0.30716357769E+03  0.30716357769E+03  0.00000000000E+00 0. -1.
         -2   -1    0    0    0  501 -0.00000000000E+00 -0.00000000000E+00 -0.39136932786E+01  0.39136932786E+01  0.00000000000E+00 0.  1.
        -11    1    1    2    0    0  0.34070514717E+02 -0.49905188593E+01  0.13343652965E+03  0.13780788329E+03  0.00000000000E+00 0. -1.
         11    1    1    2    0    0 -0.34070514717E+02  0.49905188593E+01  0.16981335476E+03  0.17326938768E+03  0.00000000000E+00 0.  1.
<mgrwt>
<rscale>  0 0.69343897E+02</rscale>
<asrwt>0</asrwt>
<pdfrwt beam="1">  1        2 0.47255916E-01 0.69343897E+02</pdfrwt>
<pdfrwt beam="2">  1       -2 0.60210690E-03 0.69343897E+02</pdfrwt>
<totfact> 0.37191070E+05</totfact>
</mgrwt>
</event>
<event>
 4    1  0.4118611E+000  0.2351653E+02  0.7546771E-02  0.1683272E+00
          2   -1    0    0  501    0  0.00000000000E+00  0.00000000000E+00  0.27581461427E+01  0.27581461427E+01  0.00000000000E+00 0.  1.
         -2   -1    0    0    0  501 -0.00000000000E+00 -0.00000000000E+00 -0.50126702403E+02  0.50126702403E+02  0.00000000000E+00 0. -1.
        -13    1    1    2    0    0  0.22147952944E-01 -0.11736502135E+02 -0.22077031008E+02  0.25002825261E+02  0.00000000000E+00 0.  1.
         13    1    1    2    0    0 -0.22147952944E-01  0.11736502135E+02 -0.25291525252E+02  0.27882023285E+02  0.00000000000E+00 0. -1.
<mgrwt>
<rscale>  0 0.23516528E+02</rscale>
<asrwt>0</asrwt>
<pdfrwt beam="1">  1        2 0.42433019E-03 0.23516528E+02</pdfrwt>
<pdfrwt beam="2">  1       -2 0.77118000E-02 0.23516528E+02</pdfrwt>
<totfact> 0.23676626E+06</totfact>
</mgrwt>
</event>
<event>
 4    1  0.4118611E+000  0.2514535E+02  0.7546771E-02  0.1658923E+00
          2   -1    0    0  501    0  0.00000000000E+00  0.00000000000E+00  0.28369485482E+01  0.28369485482E+01  0.00000000000E+00 0. -1.
         -2   -1    0    0    0  501 -0.00000000000E+00 -0.00000000000E+00 -0.55719062782E+02  0.55719062782E+02  0.00000000000E+00 0.  1.
        -13    1    1    2    0    0 -0.12429388317E+02 -0.78223091000E+00 -0.30454630483E+02  0.32902676137E+02  0.00000000000E+00 0.  1.
         13    1    1    2    0    0  0.12429388317E+02  0.78223091000E+00 -0.22427483751E+02  0.25653335193E+02  0.00000000000E+00 0. -1.
<mgrwt>
<rscale>  0 0.25145347E+02</rscale>
<asrwt>0</asrwt>
<pdfrwt beam="1">  1        2 0.43645362E-03 0.25145347E+02</pdfrwt>
<pdfrwt beam="2">  1       -2 0.85721635E-02 0.25145347E+02</pdfrwt>
<totfact> 0.20042423E+06</totfact>
</mgrwt>
</event>
<event>
 4    1  0.4118611E+000  0.3298188E+02  0.7546771E-02  0.1567289E+00
         -3   -1    0    0    0  501 -0.00000000000E+00  0.00000000000E+00  0.26422153057E+02  0.26422153057E+02  0.00000000000E+00 0. -1.
          3   -1    0    0  501    0  0.00000000000E+00 -0.00000000000E+00 -0.10292541066E+02  0.10292541066E+02  0.00000000000E+00 0.  1.
        -13    1    1    2    0    0 -0.26358633151E+01  0.15852070566E+02  0.12187349508E+02  0.20168475517E+02  0.00000000000E+00 0. -1.
         13    1    1    2    0    0  0.26358633151E+01 -0.15852070566E+02  0.39422624826E+01  0.16546218605E+02  0.00000000000E+00 0.  1.
<mgrwt>
<rscale>  0 0.32981880E+02</rscale>
<asrwt>0</asrwt>
<pdfrwt beam="2">  1        3 0.15834679E-02 0.32981880E+02</pdfrwt>
<pdfrwt beam="1">  1       -3 0.40649466E-02 0.32981880E+02</pdfrwt>
<totfact> 0.54405712E+05</totfact>
</mgrwt>
</event>
<event>
 4    1  0.4118611E+000  0.2839985E+02  0.7546771E-02  0.1616481E+00
          4   -1    0    0  501    0  0.00000000000E+00  0.00000000000E+00  0.52442738696E+01  0.52442738696E+01  0.00000000000E+00 0. -1.
         -4   -1    0    0    0  501 -0.00000000000E+00 -0.00000000000E+00 -0.38449155788E+02  0.38449155788E+02  0.00000000000E+00 0.  1.
        -13    1    1    2    0    0  0.13062312249E+02  0.25747257045E+01 -0.24199730296E+02  0.27620285302E+02  0.00000000000E+00 0.  1.
         13    1    1    2    0    0 -0.13062312249E+02 -0.25747257045E+01 -0.90051516228E+01  0.16073144356E+02  0.00000000000E+00 0. -1.
<mgrwt>
<rscale>  0 0.28399852E+02</rscale>
<asrwt>0</asrwt>
<pdfrwt beam="1">  1        4 0.80681139E-03 0.28399852E+02</pdfrwt>
<pdfrwt beam="2">  1       -4 0.59152545E-02 0.28399852E+02</pdfrwt>
<totfact> 0.55923209E+05</totfact>
</mgrwt>
</event>
<event>
 4    1  0.4118611E+000  0.3645152E+02  0.7546771E-02  0.1536076E+00
          2   -1    0    0  501    0  0.00000000000E+00  0.00000000000E+00  0.26385408809E+01  0.26385408809E+01  0.00000000000E+00 0.  1.
         -2   -1    0    0    0  501 -0.00000000000E+00 -0.00000000000E+00 -0.12589471342E+03  0.12589471342E+03  0.00000000000E+00 0. -1.
        -13    1    1    2    0    0  0.21110374118E+01  0.18026909677E+02 -0.55778093181E+02  0.58656812310E+02  0.00000000000E+00 0.  1.
         13    1    1    2    0    0 -0.21110374118E+01 -0.18026909677E+02 -0.67478079361E+02  0.69876441994E+02  0.00000000000E+00 0. -1.
<mgrwt>
<rscale>  0 0.36451521E+02</rscale>
<asrwt>0</asrwt>
<pdfrwt beam="1">  1        2 0.40592940E-03 0.36451521E+02</pdfrwt>
<pdfrwt beam="2">  1       -2 0.19368416E-01 0.36451521E+02</pdfrwt>
<totfact> 0.71056031E+05</totfact>
</mgrwt>
</event>
<event>
 4    1  0.4118611E+000  0.2475171E+02  0.7546771E-02  0.1664594E+00
         -2   -1    0    0    0  501 -0.00000000000E+00  0.00000000000E+00  0.38756702113E+01  0.38756702113E+01  0.00000000000E+00 0.  1.
          2   -1    0    0  501    0  0.00000000000E+00 -0.00000000000E+00 -0.39518802938E+02  0.39518802938E+02  0.00000000000E+00 0. -1.
        -11    1    1    2    0    0 -0.96599563711E+01  0.72308945812E+01 -0.13000689551E+02  0.17737489178E+02  0.00000000000E+00 0. -1.
         11    1    1    2    0    0  0.96599563711E+01 -0.72308945812E+01 -0.22642443176E+02  0.25656983971E+02  0.00000000000E+00 0.  1.
<mgrwt>
<rscale>  0 0.24751715E+02</rscale>
<asrwt>0</asrwt>
<pdfrwt beam="2">  1        2 0.60798156E-02 0.24751715E+02</pdfrwt>
<pdfrwt beam="1">  1       -2 0.59625698E-03 0.24751715E+02</pdfrwt>
<totfact> 0.27587010E+06</totfact>
</mgrwt>
</event>
<event>
 4    1  0.4118611E+000  0.5071770E+02  0.7546771E-02  0.1441508E+00
          2   -1    0    0  501    0  0.00000000000E+00  0.00000000000E+00  0.15662589189E+03  0.15662589189E+03  0.00000000000E+00 0.  1.
         -2   -1    0    0    0  501 -0.00000000000E+00 -0.00000000000E+00 -0.41057793718E+01  0.41057793718E+01  0.00000000000E+00 0. -1.
        -13    1    1    2    0    0 -0.18339128444E+02  0.93225599886E+01  0.12324869550E+03  0.12495389029E+03  0.00000000000E+00 0.  1.
         13    1    1    2    0    0  0.18339128444E+02 -0.93225599886E+01  0.29271417018E+02  0.35777780969E+02  0.00000000000E+00 0. -1.
<mgrwt>
<rscale>  0 0.50717703E+02</rscale>
<asrwt>0</asrwt>
<pdfrwt beam="1">  1        2 0.24096286E-01 0.50717703E+02</pdfrwt>
<pdfrwt beam="2">  1       -2 0.63165849E-03 0.50717703E+02</pdfrwt>
<totfact> 0.65661087E+05</totfact>
</mgrwt>
</event>
<event>
 4    1  0.4118611E+000  0.2839047E+02  0.7546771E-02  0.1616593E+00
          4   -1    0    0  501    0  0.00000000000E+00  0.00000000000E+00  0.11035922901E+03  0.11035922901E+03  0.00000000000E+00 0.  1.
         -4   -1    0    0    0  501 -0.00000000000E+00 -0.00000000000E+00 -0.18258978198E+01  0.18258978198E+01  0.00000000000E+00 0. -1.
        -11    1    1    2    0    0  0.87112619194E+01  0.96830310286E+01  0.76569937549E+02  0.77669830117E+02  0.00000000000E+00 0.  1.
         11    1    1    2    0    0 -0.87112619194E+01 -0.96830310286E+01  0.31963393642E+02  0.34515296714E+02  0.00000000000E+00 0. -1.
<mgrwt>
<rscale>  0 0.28390469E+02</rscale>
<asrwt>0</asrwt>
<pdfrwt beam="1">  1        4 0.16978338E-01 0.28390469E+02</pdfrwt>
<pdfrwt beam="2">  1       -4 0.28090744E-03 0.28390469E+02</pdfrwt>
<totfact> 0.45409052E+05</totfact>
</mgrwt>
</event>
<event>
 4    1  0.4118611E+000  0.5068469E+02  0.7546771E-02  0.1441683E+00
          4   -1    0    0  501    0  0.00000000000E+00  0.00000000000E+00  0.22832253315E+02  0.22832253315E+02  0.00000000000E+00 0.  1.
         -4   -1    0    0    0  501 -0.00000000000E+00 -0.00000000000E+00 -0.28128383658E+02  0.28128383658E+02  0.00000000000E+00 0. -1.
        -13    1    1    2    0    0  0.16875640182E+02 -0.18575474075E+02 -0.61884451129E+01  0.25848255678E+02  0.00000000000E+00 0.  1.
         13    1    1    2    0    0 -0.16875640182E+02  0.18575474075E+02  0.89231476950E+00  0.25112381295E+02  0.00000000000E+00 0. -1.
<mgrwt>
<rscale>  0 0.50684687E+02</rscale>
<asrwt>0</asrwt>
<pdfrwt beam="1">  1        4 0.35126544E-02 0.50684687E+02</pdfrwt>
<pdfrwt beam="2">  1       -4 0.43274436E-02 0.50684687E+02</pdfrwt>
<totfact> 0.13897201E+05</totfact>
</mgrwt>
</event>
<event>
 4    1  0.4118611E+000  0.8123173E+02  0.7546771E-02  0.1325592E+00
          2   -1    0    0  501    0  0.00000000000E+00  0.00000000000E+00  0.16601869431E+03  0.16601869431E+03  0.00000000000E+00 0. -1.
         -2   -1    0    0    0  501 -0.00000000000E+00 -0.00000000000E+00 -0.99365233433E+01  0.99365233433E+01  0.00000000000E+00 0.  1.
        -13    1    1    2    0    0 -0.39477089662E+02 -0.70428445151E+01  0.92013012637E+02  0.10037149377E+03  0.00000000000E+00 0. -1.
         13    1    1    2    0    0  0.39477089662E+02  0.70428445151E+01  0.64069158330E+02  0.75583723884E+02  0.00000000000E+00 0.  1.
<mgrwt>
<rscale>  0 0.81231733E+02</rscale>
<asrwt>0</asrwt>
<pdfrwt beam="1">  1        2 0.25541336E-01 0.81231733E+02</pdfrwt>
<pdfrwt beam="2">  1       -2 0.15286960E-02 0.81231733E+02</pdfrwt>
<totfact> 0.19741387E+05</totfact>
</mgrwt>
</event>
<event>
 4    1  0.4118611E+000  0.3099559E+02  0.7546771E-02  0.1587337E+00
          3   -1    0    0  501    0  0.00000000000E+00  0.00000000000E+00  0.90954927610E+01  0.90954927610E+01  0.00000000000E+00 0.  1.
         -3   -1    0    0    0  501 -0.00000000000E+00 -0.00000000000E+00 -0.26406660060E+02  0.26406660060E+02  0.00000000000E+00 0. -1.
        -11    1    1    2    0    0  0.75369663145E+01 -0.13085538777E+02 -0.12647145431E+02  0.19697397642E+02  0.00000000000E+00 0. -1.
         11    1    1    2    0    0 -0.75369663145E+01  0.13085538777E+02 -0.46640218689E+01  0.15804755180E+02  0.00000000000E+00 0.  1.
<mgrwt>
<rscale>  0 0.30995586E+02</rscale>
<asrwt>0</asrwt>
<pdfrwt beam="1">  1        3 0.13993066E-02 0.30995586E+02</pdfrwt>
<pdfrwt beam="2">  1       -3 0.40625631E-02 0.30995586E+02</pdfrwt>
<totfact> 0.63225606E+05</totfact>
</mgrwt>
</event>
<event>
 4    1  0.4118611E+000  0.2174044E+02  0.7546771E-02  0.1712780E+00
         -2   -1    0    0    0  501 -0.00000000000E+00  0.00000000000E+00  0.16927056177E+02  0.16927056177E+02  0.00000000000E+00 0. -1.
          2   -1    0    0  501    0  0.00000000000E+00 -0.00000000000E+00 -0.69806382485E+01  0.69806382485E+01  0.00000000000E+00 0.  1.
        -13    1    1    2    0    0 -0.52768982999E+01  0.95031686916E+01  0.48895680494E+01  0.11919049734E+02  0.00000000000E+00 0.  1.
         13    1    1    2    0    0  0.52768982999E+01 -0.95031686916E+01  0.50568498796E+01  0.11988644692E+02  0.00000000000E+00 0. -1.
<mgrwt>
<rscale>  0 0.21740438E+02</rscale>
<asrwt>0</asrwt>
<pdfrwt beam="2">  1        2 0.10739444E-02 0.21740438E+02</pdfrwt>
<pdfrwt beam="1">  1       -2 0.26041625E-02 0.21740438E+02</pdfrwt>
<totfact> 0.31635190E+06</totfact>
</mgrwt>
</event>
<event>
 4    1  0.4118611E+000  0.4836938E+02  0.7546771E-02  0.1454340E+00
          1   -1    0    0  501    0  0.00000000000E+00  0.00000000000E+00  0.10891255379E+03  0.10891255379E+03  0.00000000000E+00 0. -1.
         -1   -1    0    0    0  501 -0.00000000000E+00 -0.00000000000E+00 -0.53703569927E+01  0.53703569927E+01  0.00000000000E+00 0.  1.
        -13    1    1    2    0    0 -0.16820607908E+02 -0.16602042382E+02  0.39645383140E+02  0.46155357934E+02  0.00000000000E+00 0. -1.
         13    1    1    2    0    0  0.16820607908E+02  0.16602042382E+02  0.63896813655E+02  0.68127552847E+02  0.00000000000E+00 0.  1.
<mgrwt>
<rscale>  0 0.48369383E+02</rscale>
<asrwt>0</asrwt>
<pdfrwt beam="1">  1        1 0.16755776E-01 0.48369383E+02</pdfrwt>
<pdfrwt beam="2">  1       -1 0.82620885E-03 0.48369383E+02</pdfrwt>
<totfact> 0.55526400E+05</totfact>
</mgrwt>
</event>
<event>
 4    1  0.4118611E+000  0.2656863E+02  0.7546771E-02  0.1639442E+00
         -2   -1    0    0    0  501 -0.00000000000E+00  0.00000000000E+00  0.33882309721E+01  0.33882309721E+01  0.00000000000E+00 0. -1.
          2   -1    0    0  501    0  0.00000000000E+00 -0.00000000000E+00 -0.52084105059E+02  0.52084105059E+02  0.00000000000E+00 0.  1.
        -13    1    1    2    0    0 -0.65608009166E+01  0.10376196331E+02 -0.34945575522E+02  0.37039206357E+02  0.00000000000E+00 0.  1.
         13    1    1    2    0    0  0.65608009166E+01 -0.10376196331E+02 -0.13750298565E+02  0.18433129675E+02  0.00000000000E+00 0. -1.
<mgrwt>
<rscale>  0 0.26568626E+02</rscale>
<asrwt>0</asrwt>
<pdfrwt beam="2">  1        2 0.80129386E-02 0.26568626E+02</pdfrwt>
<pdfrwt beam="1">  1       -2 0.52126635E-03 0.26568626E+02</pdfrwt>
<totfact> 0.24378250E+06</totfact>
</mgrwt>
</event>
<event>
 4    1  0.4118611E+000  0.4215752E+02  0.7546771E-02  0.1492909E+00
          4   -1    0    0  501    0  0.00000000000E+00  0.00000000000E+00  0.66508925085E+01  0.66508925085E+01  0.00000000000E+00 0. -1.
         -4   -1    0    0    0  501 -0.00000000000E+00 -0.00000000000E+00 -0.66805177341E+02  0.66805177341E+02  0.00000000000E+00 0.  1.
        -13    1    1    2    0    0 -0.15818248329E+02 -0.20701851953E+01 -0.60714729816E+01  0.17069429724E+02  0.00000000000E+00 0. -1.
         13    1    1    2    0    0  0.15818248329E+02  0.20701851953E+01 -0.54082811851E+02  0.56386640125E+02  0.00000000000E+00 0.  1.
<mgrwt>
<rscale>  0 0.42157517E+02</rscale>
<asrwt>0</asrwt>
<pdfrwt beam="1">  1        4 0.10232142E-02 0.42157517E+02</pdfrwt>
<pdfrwt beam="2">  1       -4 0.10277720E-01 0.42157517E+02</pdfrwt>
<totfact> 0.20389601E+05</totfact>
</mgrwt>
</event>
<event>
 4    1  0.4118611E+000  0.2117288E+02  0.7546771E-02  0.1722962E+00
          4   -1    0    0  501    0  0.00000000000E+00  0.00000000000E+00  0.26570584141E+02  0.26570584141E+02  0.00000000000E+00 0.  1.
         -4   -1    0    0    0  501 -0.00000000000E+00 -0.00000000000E+00 -0.42179236711E+01  0.42179236711E+01  0.00000000000E+00 0. -1.
        -11    1    1    2    0    0 -0.10530394663E+02  0.95495984787E+00  0.10418586712E+02  0.14844127093E+02  0.00000000000E+00 0.  1.
         11    1    1    2    0    0  0.10530394663E+02 -0.95495984787E+00  0.11934073757E+02  0.15944380719E+02  0.00000000000E+00 0. -1.
<mgrwt>
<rscale>  0 0.21172878E+02</rscale>
<asrwt>0</asrwt>
<pdfrwt beam="1">  1        4 0.40877821E-02 0.21172878E+02</pdfrwt>
<pdfrwt beam="2">  1       -4 0.64891135E-03 0.21172878E+02</pdfrwt>
<totfact> 0.11042523E+06</totfact>
</mgrwt>
</event>
<event>
 4    1  0.4118611E+000  0.2231597E+02  0.7546771E-02  0.1702844E+00
          4   -1    0    0  501    0  0.00000000000E+00  0.00000000000E+00  0.11699559816E+01  0.11699559816E+01  0.00000000000E+00 0.  1.
         -4   -1    0    0    0  501 -0.00000000000E+00 -0.00000000000E+00 -0.10641477807E+03  0.10641477807E+03  0.00000000000E+00 0. -1.
        -11    1    1    2    0    0  0.47594270265E+01  0.10018909606E+02 -0.46777466207E+02  0.48074546696E+02  0.00000000000E+00 0.  1.
         11    1    1    2    0    0 -0.47594270265E+01 -0.10018909606E+02 -0.58467355885E+02  0.59510187359E+02  0.00000000000E+00 0. -1.
<mgrwt>
<rscale>  0 0.22315968E+02</rscale>
<asrwt>0</asrwt>
<pdfrwt beam="1">  1        4 0.17999317E-03 0.22315968E+02</pdfrwt>
<pdfrwt beam="2">  1       -4 0.16371510E-01 0.22315968E+02</pdfrwt>
<totfact> 0.76773048E+05</totfact>
</mgrwt>
</event>
<event>
 4    1  0.4118611E+000  0.8140681E+02  0.7546771E-02  0.1325106E+00
         -2   -1    0    0    0  501 -0.00000000000E+00  0.00000000000E+00  0.24228874475E+02  0.24228874475E+02  0.00000000000E+00 0.  1.
          2   -1    0    0  501    0  0.00000000000E+00 -0.00000000000E+00 -0.68379872087E+02  0.68379872087E+02  0.00000000000E+00 0. -1.
        -11    1    1    2    0    0  0.34161451088E+02 -0.21101255346E+01 -0.47136640613E+02  0.58252212477E+02  0.00000000000E+00 0. -1.
         11    1    1    2    0    0 -0.34161451088E+02  0.21101255346E+01  0.29856430013E+01  0.34356534085E+02  0.00000000000E+00 0.  1.
<mgrwt>
<rscale>  0 0.81406814E+02</rscale>
<asrwt>0</asrwt>
<pdfrwt beam="2">  1        2 0.10519980E-01 0.81406814E+02</pdfrwt>
<pdfrwt beam="1">  1       -2 0.37275192E-02 0.81406814E+02</pdfrwt>
<totfact> 0.15048843E+05</totfact>
</mgrwt>
</event>
<event>
 4    1  0.4118611E+000  0.2750316E+02  0.7546771E-02  0.1627450E+00
          2   -1    0    0  501    0  0.00000000000E+00  0.00000000000E+00  0.93683554550E+02  0.93683554550E+02  0.00000000000E+00 0. -1.
         -2   -1    0    0    0  501 -0.00000000000E+00 -0.00000000000E+00 -0.20185605645E+01  0.20185605645E+01  0.00000000000E+00 0.  1.
        -13    1    1    2    0    0 -0.11870731909E+02 -0.34916594068E+01  0.66710551219E+02  0.67848386904E+02  0.00000000000E+00 0. -1.
         13    1    1    2    0    0  0.11870731909E+02  0.34916594068E+01  0.24954442766E+02  0.27853728210E+02  0.00000000000E+00 0.  1.
<mgrwt>
<rscale>  0 0.27503158E+02</rscale>
<asrwt>0</asrwt>
<pdfrwt beam="1">  1        2 0.14412851E-01 0.27503158E+02</pdfrwt>
<pdfrwt beam="2">  1       -2 0.31054785E-03 0.27503158E+02</pdfrwt>
<totfact> 0.25225919E+06</totfact>
</mgrwt>
</event>
<event>
 4    1  0.4118611E+000  0.1652479E+03  0.7546771E-02  0.1182896E+00
         -2   -1    0    0    0  501 -0.00000000000E+00  0.00000000000E+00  0.11009244201E+02  0.11009244201E+02  0.00000000000E+00 0.  1.
          2   -1    0    0  501    0  0.00000000000E+00 -0.00000000000E+00 -0.62008965301E+03  0.62008965301E+03  0.00000000000E+00 0. -1.
        -13    1    1    2    0    0 -0.72494814495E+02  0.39042289700E+02 -0.33070033958E+03  0.34079687955E+03  0.00000000000E+00 0.  1.
         13    1    1    2    0    0  0.72494814495E+02 -0.39042289700E+02 -0.27838006923E+03  0.29030201766E+03  0.00000000000E+00 0. -1.
<mgrwt>
<rscale>  0 0.16524792E+03</rscale>
<asrwt>0</asrwt>
<pdfrwt beam="2">  1        2 0.95398386E-01 0.16524792E+03</pdfrwt>
<pdfrwt beam="1">  1       -2 0.16937303E-02 0.16524792E+03</pdfrwt>
<totfact> 0.45555179E+04</totfact>
</mgrwt>
</event>
<event>
 4    1  0.4118611E+000  0.3659099E+02  0.7546771E-02  0.1534910E+00
         -4   -1    0    0    0  501 -0.00000000000E+00  0.00000000000E+00  0.30329034405E+02  0.30329034405E+02  0.00000000000E+00 0. -1.
          4   -1    0    0  501    0  0.00000000000E+00 -0.00000000000E+00 -0.11036457632E+02  0.11036457632E+02  0.00000000000E+00 0.  1.
        -11    1    1    2    0    0 -0.75355302870E+01 -0.14594352132E+02  0.53584529025E+00  0.16433698945E+02  0.00000000000E+00 0.  1.
         11    1    1    2    0    0  0.75355302870E+01  0.14594352132E+02  0.18756731483E+02  0.24931793092E+02  0.00000000000E+00 0. -1.
<mgrwt>
<rscale>  0 0.36590988E+02</rscale>
<asrwt>0</asrwt>
<pdfrwt beam="2">  1        4 0.16979166E-02 0.36590988E+02</pdfrwt>
<pdfrwt beam="1">  1       -4 0.46660053E-02 0.36590988E+02</pdfrwt>
<totfact> 0.31571362E+05</totfact>
</mgrwt>
</event>
<event>
 4    1  0.4118611E+000  0.2325622E+02  0.7546771E-02  0.1687390E+00
          4   -1    0    0  501    0  0.00000000000E+00  0.00000000000E+00  0.43021720368E+01  0.43021720368E+01  0.00000000000E+00 0.  1.
         -4   -1    0    0    0  501 -0.00000000000E+00 -0.00000000000E+00 -0.31429005538E+02  0.31429005538E+02  0.00000000000E+00 0. -1.
        -11    1    1    2    0    0  0.10232929734E+02 -0.35806146605E+01 -0.71032889757E+01  0.12961109774E+02  0.00000000000E+00 0.  1.
         11    1    1    2    0    0 -0.10232929734E+02  0.35806146605E+01 -0.20023544526E+02  0.22770067801E+02  0.00000000000E+00 0. -1.
<mgrwt>
<rscale>  0 0.23256224E+02</rscale>
<asrwt>0</asrwt>
<pdfrwt beam="1">  1        4 0.66187261E-03 0.23256224E+02</pdfrwt>
<pdfrwt beam="2">  1       -4 0.48352317E-02 0.23256224E+02</pdfrwt>
<totfact> 0.88927945E+05</totfact>
</mgrwt>
</event>
<event>
 4    1  0.4118611E+000  0.2704934E+02  0.7546771E-02  0.1633199E+00
          4   -1    0    0  501    0  0.00000000000E+00  0.00000000000E+00  0.35732777789E+01  0.35732777789E+01  0.00000000000E+00 0.  1.
         -4   -1    0    0    0  501 -0.00000000000E+00 -0.00000000000E+00 -0.51190156024E+02  0.51190156024E+02  0.00000000000E+00 0. -1.
        -13    1    1    2    0    0 -0.12648937313E+02  0.26219326796E+01 -0.31918502209E+02  0.34433427500E+02  0.00000000000E+00 0. -1.
         13    1    1    2    0    0  0.12648937313E+02 -0.26219326796E+01 -0.15698376036E+02  0.20330006303E+02  0.00000000000E+00 0.  1.
<mgrwt>
<rscale>  0 0.27049336E+02</rscale>
<asrwt>0</asrwt>
<pdfrwt beam="1">  1        4 0.54973507E-03 0.27049336E+02</pdfrwt>
<pdfrwt beam="2">  1       -4 0.78754082E-02 0.27049336E+02</pdfrwt>
<totfact> 0.59921737E+05</totfact>
</mgrwt>
</event>
<event>
 4    1  0.4118611E+000  0.2494143E+02  0.7546771E-02  0.1661845E+00
         -4   -1    0    0    0  501 -0.00000000000E+00  0.00000000000E+00  0.87243633779E+01  0.87243633779E+01  0.00000000000E+00 0. -1.
          4   -1    0    0  501    0  0.00000000000E+00 -0.00000000000E+00 -0.17825802409E+02  0.17825802409E+02  0.00000000000E+00 0.  1.
        -11    1    1    2    0    0 -0.17712299967E+01 -0.11613874173E+02 -0.97665039958E-01  0.11748568741E+02  0.00000000000E+00 0. -1.
         11    1    1    2    0    0  0.17712299967E+01  0.11613874173E+02 -0.90037739915E+01  0.14801597046E+02  0.00000000000E+00 0.  1.
<mgrwt>
<rscale>  0 0.24941434E+02</rscale>
<asrwt>0</asrwt>
<pdfrwt beam="2">  1        4 0.27424311E-02 0.24941434E+02</pdfrwt>
<pdfrwt beam="1">  1       -4 0.13422098E-02 0.24941434E+02</pdfrwt>
<totfact> 0.79416453E+05</totfact>
</mgrwt>
</event>
<event>
 4    1  0.4118611E+000  0.3285745E+02  0.7546771E-02  0.1568494E+00
         -4   -1    0    0    0  501 -0.00000000000E+00  0.00000000000E+00  0.37586966038E+02  0.37586966038E+02  0.00000000000E+00 0.  1.
          4   -1    0    0  501    0  0.00000000000E+00 -0.00000000000E+00 -0.71807599236E+01  0.71807599236E+01  0.00000000000E+00 0. -1.
        -13    1    1    2    0    0 -0.14560067989E+02  0.68489248478E+01  0.10684333467E+02  0.19314718042E+02  0.00000000000E+00 0. -1.
         13    1    1    2    0    0  0.14560067989E+02 -0.68489248478E+01  0.19721872648E+02  0.25453007920E+02  0.00000000000E+00 0.  1.
<mgrwt>
<rscale>  0 0.32857448E+02</rscale>
<asrwt>0</asrwt>
<pdfrwt beam="2">  1        4 0.11047323E-02 0.32857448E+02</pdfrwt>
<pdfrwt beam="1">  1       -4 0.57826101E-02 0.32857448E+02</pdfrwt>
<totfact> 0.40064867E+05</totfact>
</mgrwt>
</event>
<event>
 4    1  0.4118611E+000  0.3167377E+02  0.7546771E-02  0.1580292E+00
         -2   -1    0    0    0  501 -0.00000000000E+00  0.00000000000E+00  0.77603657315E+02  0.77603657315E+02  0.00000000000E+00 0. -1.
          2   -1    0    0  501    0  0.00000000000E+00 -0.00000000000E+00 -0.32318966940E+01  0.32318966940E+01  0.00000000000E+00 0.  1.
        -11    1    1    2    0    0  0.13416872455E+02 -0.82645802336E+01  0.33157677746E+02  0.36711678611E+02  0.00000000000E+00 0.  1.
         11    1    1    2    0    0 -0.13416872455E+02  0.82645802336E+01  0.41214082875E+02  0.44123875398E+02  0.00000000000E+00 0. -1.
<mgrwt>
<rscale>  0 0.31673775E+02</rscale>
<asrwt>0</asrwt>
<pdfrwt beam="2">  1        2 0.49721493E-03 0.31673775E+02</pdfrwt>
<pdfrwt beam="1">  1       -2 0.11939023E-01 0.31673775E+02</pdfrwt>
<totfact> 0.11119528E+06</totfact>
</mgrwt>
</event>
<event>
 4    1  0.4118611E+000  0.5508706E+02  0.7546771E-02  0.1419688E+00
         -2   -1    0    0    0  501 -0.00000000000E+00  0.00000000000E+00  0.10632285193E+03  0.10632285193E+03  0.00000000000E+00 0.  1.
          2   -1    0    0  501    0  0.00000000000E+00 -0.00000000000E+00 -0.71353059626E+01  0.71353059626E+01  0.00000000000E+00 0. -1.
        -11    1    1    2    0    0 -0.21213294452E+02 -0.72385998844E+01  0.16624169055E+02  0.27906346707E+02  0.00000000000E+00 0. -1.
         11    1    1    2    0    0  0.21213294452E+02  0.72385998844E+01  0.82563376910E+02  0.85551811182E+02  0.00000000000E+00 0.  1.
<mgrwt>
<rscale>  0 0.55087061E+02</rscale>
<asrwt>0</asrwt>
<pdfrwt beam="2">  1        2 0.10977395E-02 0.55087061E+02</pdfrwt>
<pdfrwt beam="1">  1       -2 0.16357361E-01 0.55087061E+02</pdfrwt>
<totfact> 0.27400345E+05</totfact>
</mgrwt>
</event>
<event>
 4    1  0.4118611E+000  0.7436079E+02  0.7546771E-02  0.1345862E+00
         -2   -1    0    0    0  501 -0.00000000000E+00  0.00000000000E+00  0.10291244701E+03  0.10291244701E+03  0.00000000000E+00 0. -1.
          2   -1    0    0  501    0  0.00000000000E+00 -0.00000000000E+00 -0.13432600974E+02  0.13432600974E+02  0.00000000000E+00 0.  1.
        -13    1    1    2    0    0  0.18991065469E+02 -0.23272561562E+02  0.10457312243E+02  0.31806101123E+02  0.00000000000E+00 0.  1.
         13    1    1    2    0    0 -0.18991065469E+02  0.23272561562E+02  0.79022533797E+02  0.84538946865E+02  0.00000000000E+00 0. -1.
<mgrwt>
<rscale>  0 0.74360792E+02</rscale>
<asrwt>0</asrwt>
<pdfrwt beam="2">  1        2 0.20665541E-02 0.74360792E+02</pdfrwt>
<pdfrwt beam="1">  1       -2 0.15832684E-01 0.74360792E+02</pdfrwt>
<totfact> 0.13150628E+05</totfact>
</mgrwt>
</event>
<event>
 4    1  0.4118611E+000  0.4143976E+02  0.7546771E-02  0.1497876E+00
          2   -1    0    0  501    0  0.00000000000E+00  0.00000000000E+00  0.16663916536E+02  0.16663916536E+02  0.00000000000E+00 0.  1.
         -2   -1    0    0    0  501 -0.00000000000E+00 -0.00000000000E+00 -0.25763055306E+02  0.25763055306E+02  0.00000000000E+00 0. -1.
        -13    1    1    2    0    0  0.73950622148E+01  0.93458195073E+01 -0.21902750989E+02  0.24935151660E+02  0.00000000000E+00 0. -1.
         13    1    1    2    0    0 -0.73950622148E+01 -0.93458195073E+01  0.12803612219E+02  0.17491820182E+02  0.00000000000E+00 0.  1.
<mgrwt>
<rscale>  0 0.41439759E+02</rscale>
<asrwt>0</asrwt>
<pdfrwt beam="1">  1        2 0.25636795E-02 0.41439759E+02</pdfrwt>
<pdfrwt beam="2">  1       -2 0.39635470E-02 0.41439759E+02</pdfrwt>
<totfact> 0.70265014E+05</totfact>
</mgrwt>
</event>
<event>
 4    1  0.4118611E+000  0.5073655E+02  0.7546771E-02  0.1441409E+00
          2   -1    0    0  501    0  0.00000000000E+00  0.00000000000E+00  0.62914599090E+02  0.62914599090E+02  0.00000000000E+00 0. -1.
         -2   -1    0    0    0  501 -0.00000000000E+00 -0.00000000000E+00 -0.10228936661E+02  0.10228936661E+02  0.00000000000E+00 0.  1.
        -13    1    1    2    0    0  0.50467437361E+01  0.10225106287E+02  0.59011891809E+02  0.60103459100E+02  0.00000000000E+00 0. -1.
         13    1    1    2    0    0 -0.50467437361E+01 -0.10225106287E+02 -0.63262293796E+01  0.13040076651E+02  0.00000000000E+00 0.  1.
<mgrwt>
<rscale>  0 0.50736553E+02</rscale>
<asrwt>0</asrwt>
<pdfrwt beam="1">  1        2 0.96791689E-02 0.50736553E+02</pdfrwt>
<pdfrwt beam="2">  1       -2 0.15736826E-02 0.50736553E+02</pdfrwt>
<totfact> 0.51736454E+05</totfact>
</mgrwt>
</event>
<event>
 4    1  0.4118611E+000  0.8065493E+02  0.7546771E-02  0.1327203E+00
         -2   -1    0    0    0  501 -0.00000000000E+00  0.00000000000E+00  0.34524730386E+02  0.34524730386E+02  0.00000000000E+00 0.  1.
          2   -1    0    0  501    0  0.00000000000E+00 -0.00000000000E+00 -0.47105495391E+02  0.47105495391E+02  0.00000000000E+00 0. -1.
        -13    1    1    2    0    0  0.36503488577E+02 -0.29158214608E+01 -0.23385390349E+02  0.43449777615E+02  0.00000000000E+00 0. -1.
         13    1    1    2    0    0 -0.36503488577E+02  0.29158214608E+01  0.10804625344E+02  0.38180448162E+02  0.00000000000E+00 0.  1.
<mgrwt>
<rscale>  0 0.80654932E+02</rscale>
<asrwt>0</asrwt>
<pdfrwt beam="2">  1        2 0.72469992E-02 0.80654932E+02</pdfrwt>
<pdfrwt beam="1">  1       -2 0.53114970E-02 0.80654932E+02</pdfrwt>
<totfact> 0.14075475E+05</totfact>
</mgrwt>
</event>
<event>
 4    1  0.4118611E+000  0.2418027E+02  0.7546771E-02  0.1673063E+00
          1   -1    0    0  501    0  0.00000000000E+00  0.00000000000E+00  0.27555453535E+02  0.27555453535E+02  0.00000000000E+00 0.  1.
         -1   -1    0    0    0  501 -0.00000000000E+00 -0.00000000000E+00 -0.53046268984E+01  0.53046268984E+01  0.00000000000E+00 0. -1.
        -11    1    1    2    0    0 -0.11237436490E+02 -0.34569885396E+01  0.14954855250E+02  0.19023102906E+02  0.00000000000E+00 0. -1.
         11    1    1    2    0    0  0.11237436490E+02  0.34569885396E+01  0.72959713866E+01  0.13836977527E+02  0.00000000000E+00 0.  1.
<mgrwt>
<rscale>  0 0.24180273E+02</rscale>
<asrwt>0</asrwt>
<pdfrwt beam="1">  1        1 0.42393004E-02 0.24180273E+02</pdfrwt>
<pdfrwt beam="2">  1       -1 0.81609646E-03 0.24180273E+02</pdfrwt>
<totfact> 0.26163621E+06</totfact>
</mgrwt>
</event>
<event>
 4    1  0.4118611E+000  0.3192814E+02  0.7546771E-02  0.1577704E+00
         -4   -1    0    0    0  501 -0.00000000000E+00  0.00000000000E+00  0.24051073251E+01  0.24051073251E+01  0.00000000000E+00 0.  1.
          4   -1    0    0  501    0  0.00000000000E+00 -0.00000000000E+00 -0.10596267142E+03  0.10596267142E+03  0.00000000000E+00 0. -1.
        -13    1    1    2    0    0 -0.12025519976E+02  0.81438005808E+01 -0.74271540696E+02  0.75678242421E+02  0.00000000000E+00 0. -1.
         13    1    1    2    0    0  0.12025519976E+02 -0.81438005808E+01 -0.29286023402E+02  0.32689536327E+02  0.00000000000E+00 0.  1.
<mgrwt>
<rscale>  0 0.31928144E+02</rscale>
<asrwt>0</asrwt>
<pdfrwt beam="2">  1        4 0.16301952E-01 0.31928144E+02</pdfrwt>
<pdfrwt beam="1">  1       -4 0.37001646E-03 0.31928144E+02</pdfrwt>
<totfact> 0.35324945E+05</totfact>
</mgrwt>
</event>
<event>
 4    1  0.4118611E+000  0.4793414E+02  0.7546771E-02  0.1456814E+00
          2   -1    0    0  501    0  0.00000000000E+00  0.00000000000E+00  0.11959554568E+02  0.11959554568E+02  0.00000000000E+00 0.  1.
         -2   -1    0    0    0  501 -0.00000000000E+00 -0.00000000000E+00 -0.48030262668E+02  0.48030262668E+02  0.00000000000E+00 0. -1.
        -13    1    1    2    0    0  0.14012006154E+01 -0.20512799102E+02 -0.26219007398E+01  0.20727099500E+02  0.00000000000E+00 0. -1.
         13    1    1    2    0    0 -0.14012006154E+01  0.20512799102E+02 -0.33448807360E+02  0.39262717736E+02  0.00000000000E+00 0.  1.
<mgrwt>
<rscale>  0 0.47934144E+02</rscale>
<asrwt>0</asrwt>
<pdfrwt beam="1">  1        2 0.18399315E-02 0.47934144E+02</pdfrwt>
<pdfrwt beam="2">  1       -2 0.73892711E-02 0.47934144E+02</pdfrwt>
<totfact> 0.45417260E+05</totfact>
</mgrwt>
</event>
<event>
 4    1  0.4118611E+000  0.3759986E+02  0.7546771E-02  0.1526655E+00
         -2   -1    0    0    0  501 -0.00000000000E+00  0.00000000000E+00  0.75757187726E+02  0.75757187726E+02  0.00000000000E+00 0. -1.
          2   -1    0    0  501    0  0.00000000000E+00 -0.00000000000E+00 -0.46653982015E+01  0.46653982015E+01  0.00000000000E+00 0.  1.
        -11    1    1    2    0    0  0.20627262182E+01 -0.17171645792E+02  0.51309675982E+02  0.54146127360E+02  0.00000000000E+00 0. -1.
         11    1    1    2    0    0 -0.20627262182E+01  0.17171645792E+02  0.19782113543E+02  0.26276458568E+02  0.00000000000E+00 0.  1.
<mgrwt>
<rscale>  0 0.37599864E+02</rscale>
<asrwt>0</asrwt>
<pdfrwt beam="2">  1        2 0.71775362E-03 0.37599864E+02</pdfrwt>
<pdfrwt beam="1">  1       -2 0.11654951E-01 0.37599864E+02</pdfrwt>
<totfact> 0.74640204E+05</totfact>
</mgrwt>
</event>
<event>
 4    1  0.4118611E+000  0.3182856E+02  0.7546771E-02  0.1578713E+00
          2   -1    0    0  501    0  0.00000000000E+00  0.00000000000E+00  0.81060686130E+01  0.81060686130E+01  0.00000000000E+00 0.  1.
         -2   -1    0    0    0  501 -0.00000000000E+00 -0.00000000000E+00 -0.31243794766E+02  0.31243794766E+02  0.00000000000E+00 0. -1.
        -11    1    1    2    0    0 -0.40068475567E+01 -0.15392283510E+02 -0.10906399833E+02  0.19285403193E+02  0.00000000000E+00 0.  1.
         11    1    1    2    0    0  0.40068475567E+01  0.15392283510E+02 -0.12231326320E+02  0.20064460186E+02  0.00000000000E+00 0. -1.
<mgrwt>
<rscale>  0 0.31828562E+02</rscale>
<asrwt>0</asrwt>
<pdfrwt beam="1">  1        2 0.12470875E-02 0.31828562E+02</pdfrwt>
<pdfrwt beam="2">  1       -2 0.48067376E-02 0.31828562E+02</pdfrwt>
<totfact> 0.12639417E+06</totfact>
</mgrwt>
</event>
<event>
 4    1  0.4118611E+000  0.2603137E+02  0.7546771E-02  0.1646615E+00
          2   -1    0    0  501    0  0.00000000000E+00  0.00000000000E+00  0.17941973888E+02  0.17941973888E+02  0.00000000000E+00 0. -1.
         -2   -1    0    0    0  501 -0.00000000000E+00 -0.00000000000E+00 -0.94419962399E+01  0.94419962399E+01  0.00000000000E+00 0.  1.
        -11    1    1    2    0    0  0.79802293675E+01  0.61663129281E+01  0.12905556787E+02  0.16378671249E+02  0.00000000000E+00 0. -1.
         11    1    1    2    0    0 -0.79802293675E+01 -0.61663129281E+01 -0.44055791387E+01  0.11005298880E+02  0.00000000000E+00 0.  1.
<mgrwt>
<rscale>  0 0.26031370E+02</rscale>
<asrwt>0</asrwt>
<pdfrwt beam="1">  1        2 0.27603037E-02 0.26031370E+02</pdfrwt>
<pdfrwt beam="2">  1       -2 0.14526148E-02 0.26031370E+02</pdfrwt>
<totfact> 0.22424822E+06</totfact>
</mgrwt>
</event>
<event>
 4    1  0.4118611E+000  0.2561317E+02  0.7546771E-02  0.1652348E+00
         -2   -1    0    0    0  501 -0.00000000000E+00  0.00000000000E+00  0.10312195675E+02  0.10312195675E+02  0.00000000000E+00 0.  1.
          2   -1    0    0  501    0  0.00000000000E+00 -0.00000000000E+00 -0.15904333899E+02  0.15904333899E+02  0.00000000000E+00 0. -1.
        -13    1    1    2    0    0 -0.89945748945E+01  0.73399456722E+01 -0.83300400128E+01  0.14288692964E+02  0.00000000000E+00 0. -1.
         13    1    1    2    0    0  0.89945748945E+01 -0.73399456722E+01  0.27379017889E+01  0.11927836611E+02  0.00000000000E+00 0.  1.
<mgrwt>
<rscale>  0 0.25613169E+02</rscale>
<asrwt>0</asrwt>
<pdfrwt beam="2">  1        2 0.24468206E-02 0.25613169E+02</pdfrwt>
<pdfrwt beam="1">  1       -2 0.15864917E-02 0.25613169E+02</pdfrwt>
<totfact> 0.23039641E+06</totfact>
</mgrwt>
</event>
<event>
 4    1  0.4118611E+000  0.2249479E+02  0.7546771E-02  0.1699833E+00
         -2   -1    0    0    0  501 -0.00000000000E+00  0.00000000000E+00  0.67344132897E+02  0.67344132897E+02  0.00000000000E+00 0. -1.
          2   -1    0    0  501    0  0.00000000000E+00 -0.00000000000E+00 -0.18784696583E+01  0.18784696583E+01  0.00000000000E+00 0.  1.
        -11    1    1    2    0    0 -0.10370178787E+02  0.29942410131E+01  0.23002700906E+02  0.25409256902E+02  0.00000000000E+00 0.  1.
         11    1    1    2    0    0  0.10370178787E+02 -0.29942410131E+01  0.42462962333E+02  0.43813345654E+02  0.00000000000E+00 0. -1.
<mgrwt>
<rscale>  0 0.22494791E+02</rscale>
<asrwt>0</asrwt>
<pdfrwt beam="2">  1        2 0.28899538E-03 0.22494791E+02</pdfrwt>
<pdfrwt beam="1">  1       -2 0.10360634E-01 0.22494791E+02</pdfrwt>
<totfact> 0.24928651E+06</totfact>
</mgrwt>
</event>
<event>
 4    1  0.4118611E+000  0.2363422E+02  0.7546771E-02  0.1681431E+00
         -3   -1    0    0    0  501 -0.00000000000E+00  0.00000000000E+00  0.19797448987E+01  0.19797448987E+01  0.00000000000E+00 0. -1.
          3   -1    0    0  501    0  0.00000000000E+00 -0.00000000000E+00 -0.70536434681E+02  0.70536434681E+02  0.00000000000E+00 0.  1.
        -13    1    1    2    0    0  0.27062542394E+01  0.10383977399E+02 -0.19093245840E+02  0.21902119426E+02  0.00000000000E+00 0. -1.
         13    1    1    2    0    0 -0.27062542394E+01 -0.10383977399E+02 -0.49463443942E+02  0.50614060154E+02  0.00000000000E+00 0.  1.
<mgrwt>
<rscale>  0 0.23634225E+02</rscale>
<asrwt>0</asrwt>
<pdfrwt beam="2">  1        3 0.10851759E-01 0.23634225E+02</pdfrwt>
<pdfrwt beam="1">  1       -3 0.30457616E-03 0.23634225E+02</pdfrwt>
<totfact> 0.10557467E+06</totfact>
</mgrwt>
</event>
<event>
 4    1  0.4118611E+000  0.3637543E+02  0.7546771E-02  0.1536715E+00
         -3   -1    0    0    0  501 -0.00000000000E+00  0.00000000000E+00  0.79024700939E+01  0.79024700939E+01  0.00000000000E+00 0. -1.
          3   -1    0    0  501    0  0.00000000000E+00 -0.00000000000E+00 -0.41859440547E+02  0.41859440547E+02  0.00000000000E+00 0.  1.
        -11    1    1    2    0    0 -0.12769326715E+02  0.12301070676E+02 -0.22522033319E+02  0.28663810447E+02  0.00000000000E+00 0.  1.
         11    1    1    2    0    0  0.12769326715E+02 -0.12301070676E+02 -0.11434937135E+02  0.21098100194E+02  0.00000000000E+00 0. -1.
<mgrwt>
<rscale>  0 0.36375430E+02</rscale>
<asrwt>0</asrwt>
<pdfrwt beam="2">  1        3 0.64399139E-02 0.36375430E+02</pdfrwt>
<pdfrwt beam="1">  1       -3 0.12157646E-02 0.36375430E+02</pdfrwt>
<totfact> 0.41450177E+05</totfact>
</mgrwt>
</event>
<event>
 4    1  0.4118611E+000  0.2218119E+02  0.7546771E-02  0.1705137E+00
          2   -1    0    0  501    0  0.00000000000E+00  0.00000000000E+00  0.23616588439E+01  0.23616588439E+01  0.00000000000E+00 0. -1.
         -2   -1    0    0    0  501 -0.00000000000E+00 -0.00000000000E+00 -0.52082581588E+02  0.52082581588E+02  0.00000000000E+00 0.  1.
        -13    1    1    2    0    0 -0.91664885582E+01 -0.62419169563E+01 -0.25163569061E+02  0.27498931755E+02  0.00000000000E+00 0. -1.
         13    1    1    2    0    0  0.91664885582E+01  0.62419169563E+01 -0.24557353683E+02  0.26945308676E+02  0.00000000000E+00 0.  1.
<mgrwt>
<rscale>  0 0.22181189E+02</rscale>
<asrwt>0</asrwt>
<pdfrwt beam="1">  1        2 0.36333213E-03 0.22181189E+02</pdfrwt>
<pdfrwt beam="2">  1       -2 0.80127048E-02 0.22181189E+02</pdfrwt>
<totfact> 0.26822076E+06</totfact>
</mgrwt>
</event>
<event>
 4    1  0.4118611E+000  0.2249041E+02  0.7546771E-02  0.1699906E+00
          2   -1    0    0  501    0  0.00000000000E+00  0.00000000000E+00  0.96452547269E+01  0.96452547269E+01  0.00000000000E+00 0. -1.
         -2   -1    0    0    0  501 -0.00000000000E+00 -0.00000000000E+00 -0.13110557417E+02  0.13110557417E+02  0.00000000000E+00 0.  1.
        -13    1    1    2    0    0  0.11521482755E+01 -0.99422079867E+01  0.34542177414E+01  0.10588038794E+02  0.00000000000E+00 0. -1.
         13    1    1    2    0    0 -0.11521482755E+01  0.99422079867E+01 -0.69195204319E+01  0.12167773350E+02  0.00000000000E+00 0.  1.
<mgrwt>
<rscale>  0 0.22490413E+02</rscale>
<asrwt>0</asrwt>
<pdfrwt beam="1">  1        2 0.14838853E-02 0.22490413E+02</pdfrwt>
<pdfrwt beam="2">  1       -2 0.20170088E-02 0.22490413E+02</pdfrwt>
<totfact> 0.29988395E+06</totfact>
</mgrwt>
</event>
<event>
 4    1  0.4118611E+000  0.2760935E+02  0.7546771E-02  0.1626124E+00
         -4   -1    0    0    0  501 -0.00000000000E+00  0.00000000000E+00  0.11723892378E+02  0.11723892378E+02  0.00000000000E+00 0. -1.
          4   -1    0    0  501    0  0.00000000000E+00 -0.00000000000E+00 -0.16254759001E+02  0.16254759001E+02  0.00000000000E+00 0.  1.
        -13    1    1    2    0    0 -0.13012044899E+02  0.13276120001E+01 -0.67395977183E+01  0.14713872484E+02  0.00000000000E+00 0.  1.
         13    1    1    2    0    0  0.13012044899E+02 -0.13276120001E+01  0.22087310950E+01  0.13264778895E+02  0.00000000000E+00 0. -1.
<mgrwt>
<rscale>  0 0.27609350E+02</rscale>
<asrwt>0</asrwt>
<pdfrwt beam="2">  1        4 0.25007321E-02 0.27609350E+02</pdfrwt>
<pdfrwt beam="1">  1       -4 0.18036758E-02 0.27609350E+02</pdfrwt>
<totfact> 0.63166012E+05</totfact>
</mgrwt>
</event>
<event>
 4    1  0.4118611E+000  0.2361204E+02  0.7546771E-02  0.1681777E+00
         -2   -1    0    0    0  501 -0.00000000000E+00  0.00000000000E+00  0.51591131654E+02  0.51591131654E+02  0.00000000000E+00 0.  1.
          2   -1    0    0  501    0  0.00000000000E+00 -0.00000000000E+00 -0.27016673962E+01  0.27016673962E+01  0.00000000000E+00 0. -1.
        -11    1    1    2    0    0  0.44864040984E+01  0.97381462972E+01  0.13081387753E+02  0.16913959341E+02  0.00000000000E+00 0. -1.
         11    1    1    2    0    0 -0.44864040984E+01 -0.97381462972E+01  0.35808076504E+02  0.37378839709E+02  0.00000000000E+00 0.  1.
<mgrwt>
<rscale>  0 0.23612037E+02</rscale>
<asrwt>0</asrwt>
<pdfrwt beam="2">  1        2 0.41564118E-03 0.23612037E+02</pdfrwt>
<pdfrwt beam="1">  1       -2 0.79370965E-02 0.23612037E+02</pdfrwt>
<totfact> 0.23363984E+06</totfact>
</mgrwt>
</event>
<event>
 4    1  0.4118611E+000  0.2491897E+02  0.7546771E-02  0.1662169E+00
         -3   -1    0    0    0  501 -0.00000000000E+00  0.00000000000E+00  0.22992902956E+02  0.22992902956E+02  0.00000000000E+00 0. -1.
          3   -1    0    0  501    0  0.00000000000E+00 -0.00000000000E+00 -0.67515943739E+01  0.67515943739E+01  0.00000000000E+00 0.  1.
        -11    1    1    2    0    0  0.85396056530E+01 -0.83394354804E+01  0.12385791337E+02  0.17201130075E+02  0.00000000000E+00 0.  1.
         11    1    1    2    0    0 -0.85396056530E+01  0.83394354804E+01  0.38555172452E+01  0.12543367254E+02  0.00000000000E+00 0. -1.
<mgrwt>
<rscale>  0 0.24918969E+02</rscale>
<asrwt>0</asrwt>
<pdfrwt beam="2">  1        3 0.10387068E-02 0.24918969E+02</pdfrwt>
<pdfrwt beam="1">  1       -3 0.35373696E-02 0.24918969E+02</pdfrwt>
<totfact> 0.10640535E+06</totfact>
</mgrwt>
</event>
<event>
 4    1  0.4118611E+000  0.2657994E+02  0.7546771E-02  0.1639293E+00
         -1   -1    0    0    0  501 -0.00000000000E+00  0.00000000000E+00  0.19869369519E+01  0.19869369519E+01  0.00000000000E+00 0.  1.
          1   -1    0    0  501    0  0.00000000000E+00 -0.00000000000E+00 -0.88892274758E+02  0.88892274758E+02  0.00000000000E+00 0. -1.
        -13    1    1    2    0    0  0.71601039199E+01  0.92169332251E+01 -0.21719411225E+02  0.24656678004E+02  0.00000000000E+00 0.  1.
         13    1    1    2    0    0 -0.71601039199E+01 -0.92169332251E+01 -0.65185926581E+02  0.66222533706E+02  0.00000000000E+00 0. -1.
<mgrwt>
<rscale>  0 0.26579943E+02</rscale>
<asrwt>0</asrwt>
<pdfrwt beam="2">  1        1 0.13675734E-01 0.26579943E+02</pdfrwt>
<pdfrwt beam="1">  1       -1 0.30568261E-03 0.26579943E+02</pdfrwt>
<totfact> 0.23011095E+06</totfact>
</mgrwt>
</event>
<event>
 4    1  0.4118611E+000  0.2298426E+02  0.7546771E-02  0.1691765E+00
          4   -1    0    0  501    0  0.00000000000E+00  0.00000000000E+00  0.63301585399E+02  0.63301585399E+02  0.00000000000E+00 0. -1.
         -4   -1    0    0    0  501 -0.00000000000E+00 -0.00000000000E+00 -0.20863460829E+01  0.20863460829E+01  0.00000000000E+00 0.  1.
        -13    1    1    2    0    0  0.14570739419E+01 -0.10316450443E+02  0.16811522257E+02  0.19778258134E+02  0.00000000000E+00 0.  1.
         13    1    1    2    0    0 -0.14570739419E+01  0.10316450443E+02  0.44403717059E+02  0.45609673348E+02  0.00000000000E+00 0. -1.
<mgrwt>
<rscale>  0 0.22984257E+02</rscale>
<asrwt>0</asrwt>
<pdfrwt beam="1">  1        4 0.97387040E-02 0.22984257E+02</pdfrwt>
<pdfrwt beam="2">  1       -4 0.32097637E-03 0.22984257E+02</pdfrwt>
<totfact> 0.82016803E+05</totfact>
</mgrwt>
</event>
<event>
 4    1  0.4118611E+000  0.2149933E+02  0.7546771E-02  0.1717058E+00
          2   -1    0    0  501    0  0.00000000000E+00  0.00000000000E+00  0.20845163862E+02  0.20845163862E+02  0.00000000000E+00 0.  1.
         -2   -1    0    0    0  501 -0.00000000000E+00 -0.00000000000E+00 -0.55435039255E+01  0.55435039255E+01  0.00000000000E+00 0. -1.
        -11    1    1    2    0    0 -0.10006042911E+02 -0.13285713065E-01  0.12472909445E+02  0.15990451565E+02  0.00000000000E+00 0.  1.
         11    1    1    2    0    0  0.10006042911E+02  0.13285713065E-01  0.28287504921E+01  0.10398216222E+02  0.00000000000E+00 0. -1.
<mgrwt>
<rscale>  0 0.21499325E+02</rscale>
<asrwt>0</asrwt>
<pdfrwt beam="1">  1        2 0.32069482E-02 0.21499325E+02</pdfrwt>
<pdfrwt beam="2">  1       -2 0.85284677E-03 0.21499325E+02</pdfrwt>
<totfact> 0.35499393E+06</totfact>
</mgrwt>
</event>
<event>
 4    1  0.4118611E+000  0.2311985E+02  0.7546771E-02  0.1689575E+00
         -2   -1    0    0    0  501 -0.00000000000E+00  0.00000000000E+00  0.18371496161E+01  0.18371496161E+01  0.00000000000E+00 0.  1.
          2   -1    0    0  501    0  0.00000000000E+00 -0.00000000000E+00 -0.72738675826E+02  0.72738675826E+02  0.00000000000E+00 0. -1.
        -13    1    1    2    0    0  0.72595932820E+01  0.87566005284E+01 -0.28799349134E+02  0.30964209306E+02  0.00000000000E+00 0.  1.
         13    1    1    2    0    0 -0.72595932820E+01 -0.87566005284E+01 -0.42102177076E+02  0.43611616136E+02  0.00000000000E+00 0. -1.
<mgrwt>
<rscale>  0 0.23119847E+02</rscale>
<asrwt>0</asrwt>
<pdfrwt beam="2">  1        2 0.11190568E-01 0.23119847E+02</pdfrwt>
<pdfrwt beam="1">  1       -2 0.28263834E-03 0.23119847E+02</pdfrwt>
<totfact> 0.35655768E+06</totfact>
</mgrwt>
</event>
<event>
 4    1  0.4118611E+000  0.3792225E+02  0.7546771E-02  0.1524083E+00
          2   -1    0    0  501    0  0.00000000000E+00  0.00000000000E+00  0.11361870412E+03  0.11361870412E+03  0.00000000000E+00 0. -1.
         -2   -1    0    0    0  501 -0.00000000000E+00 -0.00000000000E+00 -0.31643046695E+01  0.31643046695E+01  0.00000000000E+00 0.  1.
        -11    1    1    2    0    0 -0.13607535959E+02  0.12715497785E+02  0.66191081297E+02  0.68761240260E+02  0.00000000000E+00 0. -1.
         11    1    1    2    0    0  0.13607535959E+02 -0.12715497785E+02  0.44263318156E+02  0.48021768532E+02  0.00000000000E+00 0.  1.
<mgrwt>
<rscale>  0 0.37922247E+02</rscale>
<asrwt>0</asrwt>
<pdfrwt beam="1">  1        2 0.17479798E-01 0.37922247E+02</pdfrwt>
<pdfrwt beam="2">  1       -2 0.48681619E-03 0.37922247E+02</pdfrwt>
<totfact> 0.12301900E+06</totfact>
</mgrwt>
</event>
<event>
 4    1  0.4118611E+000  0.3930199E+02  0.7546771E-02  0.1513412E+00
         -1   -1    0    0    0  501 -0.00000000000E+00  0.00000000000E+00  0.27945928031E+02  0.27945928031E+02  0.00000000000E+00 0.  1.
          1   -1    0    0  501    0  0.00000000000E+00 -0.00000000000E+00 -0.13818169706E+02  0.13818169706E+02  0.00000000000E+00 0. -1.
        -11    1    1    2    0    0 -0.18071689836E+02  0.16059392802E+01 -0.95867960707E+00  0.18168216233E+02  0.00000000000E+00 0. -1.
         11    1    1    2    0    0  0.18071689836E+02 -0.16059392802E+01  0.15086437932E+02  0.23595881505E+02  0.00000000000E+00 0.  1.
<mgrwt>
<rscale>  0 0.39301989E+02</rscale>
<asrwt>0</asrwt>
<pdfrwt beam="2">  1        1 0.21258723E-02 0.39301989E+02</pdfrwt>
<pdfrwt beam="1">  1       -1 0.42993735E-02 0.39301989E+02</pdfrwt>
<totfact> 0.77356585E+05</totfact>
</mgrwt>
</event>
<event>
 4    1  0.4118611E+000  0.2585742E+02  0.7546771E-02  0.1648983E+00
          2   -1    0    0  501    0  0.00000000000E+00  0.00000000000E+00  0.57461275475E+01  0.57461275475E+01  0.00000000000E+00 0. -1.
         -2   -1    0    0    0  501 -0.00000000000E+00 -0.00000000000E+00 -0.29089419493E+02  0.29089419493E+02  0.00000000000E+00 0.  1.
        -11    1    1    2    0    0 -0.12254378128E+02  0.81111250705E+00 -0.17114773185E+02  0.21065211796E+02  0.00000000000E+00 0.  1.
         11    1    1    2    0    0  0.12254378128E+02 -0.81111250705E+00 -0.62285187605E+01  0.13770335245E+02  0.00000000000E+00 0. -1.
<mgrwt>
<rscale>  0 0.25857418E+02</rscale>
<asrwt>0</asrwt>
<pdfrwt beam="1">  1        2 0.88401962E-03 0.25857418E+02</pdfrwt>
<pdfrwt beam="2">  1       -2 0.44752953E-02 0.25857418E+02</pdfrwt>
<totfact> 0.20459135E+06</totfact>
</mgrwt>
</event>
<event>
 4    1  0.4118611E+000  0.3363189E+02  0.7546771E-02  0.1561096E+00
         -4   -1    0    0    0  501 -0.00000000000E+00  0.00000000000E+00  0.15147348568E+02  0.15147348568E+02  0.00000000000E+00 0.  1.
          4   -1    0    0  501    0  0.00000000000E+00 -0.00000000000E+00 -0.18668349848E+02  0.18668349848E+02  0.00000000000E+00 0. -1.
        -11    1    1    2    0    0  0.11140716143E+02 -0.71712682940E+01 -0.12172449878E+02  0.17991975466E+02  0.00000000000E+00 0. -1.
         11    1    1    2    0    0 -0.11140716143E+02  0.71712682940E+01  0.86514485980E+01  0.15823722949E+02  0.00000000000E+00 0.  1.
<mgrwt>
<rscale>  0 0.33631890E+02</rscale>
<asrwt>0</asrwt>
<pdfrwt beam="2">  1        4 0.28720538E-02 0.33631890E+02</pdfrwt>
<pdfrwt beam="1">  1       -4 0.23303613E-02 0.33631890E+02</pdfrwt>
<totfact> 0.39479359E+05</totfact>
</mgrwt>
</event>
<event>
 4    1  0.4118611E+000  0.3505877E+02  0.7546771E-02  0.1548079E+00
          2   -1    0    0  501    0  0.00000000000E+00  0.00000000000E+00  0.35680291911E+02  0.35680291911E+02  0.00000000000E+00 0.  1.
         -2   -1    0    0    0  501 -0.00000000000E+00 -0.00000000000E+00 -0.86120190995E+01  0.86120190995E+01  0.00000000000E+00 0. -1.
        -11    1    1    2    0    0 -0.12329929795E+01  0.12252518875E+02  0.29295184712E+02  0.31778173922E+02  0.00000000000E+00 0.  1.
         11    1    1    2    0    0  0.12329929795E+01 -0.12252518875E+02 -0.22269119008E+01  0.12514137089E+02  0.00000000000E+00 0. -1.
<mgrwt>
<rscale>  0 0.35058771E+02</rscale>
<asrwt>0</asrwt>
<pdfrwt beam="1">  1        2 0.54892756E-02 0.35058771E+02</pdfrwt>
<pdfrwt beam="2">  1       -2 0.13249260E-02 0.35058771E+02</pdfrwt>
<totfact> 0.11847636E+06</totfact>
</mgrwt>
</event>
<event>
 4    1  0.4118611E+000  0.2189632E+02  0.7546771E-02  0.1710051E+00
          3   -1    0    0  501    0  0.00000000000E+00  0.00000000000E+00  0.97098529730E+01  0.97098529730E+01  0.00000000000E+00 0.  1.
         -3   -1    0    0    0  501 -0.00000000000E+00 -0.00000000000E+00 -0.12344393474E+02  0.12344393474E+02  0.00000000000E+00 0. -1.
        -13    1    1    2    0    0  0.92993643680E+01  0.37793085364E+01  0.30847078874E+01  0.10501274847E+02  0.00000000000E+00 0.  1.
         13    1    1    2    0    0 -0.92993643680E+01 -0.37793085364E+01 -0.57192483885E+01  0.11552971600E+02  0.00000000000E+00 0. -1.
<mgrwt>
<rscale>  0 0.21896323E+02</rscale>
<asrwt>0</asrwt>
<pdfrwt beam="1">  1        3 0.14938235E-02 0.21896323E+02</pdfrwt>
<pdfrwt beam="2">  1       -3 0.18991375E-02 0.21896323E+02</pdfrwt>
<totfact> 0.14570123E+06</totfact>
</mgrwt>
</event>
<event>
 4    1  0.4118611E+000  0.2022770E+02  0.7546771E-02  0.1740838E+00
         -2   -1    0    0    0  501 -0.00000000000E+00  0.00000000000E+00  0.11676617769E+02  0.11676617769E+02  0.00000000000E+00 0. -1.
          2   -1    0    0  501    0  0.00000000000E+00 -0.00000000000E+00 -0.87602363335E+01  0.87602363335E+01  0.00000000000E+00 0.  1.
        -11    1    1    2    0    0 -0.69042343275E+01  0.73115702382E+01  0.25474949393E+01  0.10373873021E+02  0.00000000000E+00 0. -1.
         11    1    1    2    0    0  0.69042343275E+01 -0.73115702382E+01  0.36888649637E+00  0.10062981081E+02  0.00000000000E+00 0.  1.
<mgrwt>
<rscale>  0 0.20227697E+02</rscale>
<asrwt>0</asrwt>
<pdfrwt beam="2">  1        2 0.13477287E-02 0.20227697E+02</pdfrwt>
<pdfrwt beam="1">  1       -2 0.17964027E-02 0.20227697E+02</pdfrwt>
<totfact> 0.38080741E+06</totfact>
</mgrwt>
</event>
<event>
 4    1  0.4118611E+000  0.4711789E+02  0.7546771E-02  0.1461537E+00
         -2   -1    0    0    0  501 -0.00000000000E+00  0.00000000000E+00  0.24415512162E+02  0.24415512162E+02  0.00000000000E+00 0.  1.
          2   -1    0    0  501    0  0.00000000000E+00 -0.00000000000E+00 -0.22732428996E+02  0.22732428996E+02  0.00000000000E+00 0. -1.
        -13    1    1    2    0    0  0.16357184301E+02  0.11750345909E+01 -0.16083314341E+02  0.22969788522E+02  0.00000000000E+00 0. -1.
         13    1    1    2    0    0 -0.16357184301E+02 -0.11750345909E+01  0.17766397507E+02  0.24178152637E+02  0.00000000000E+00 0.  1.
<mgrwt>
<rscale>  0 0.47117890E+02</rscale>
<asrwt>0</asrwt>
<pdfrwt beam="2">  1        2 0.34972968E-02 0.47117890E+02</pdfrwt>
<pdfrwt beam="1">  1       -2 0.37562326E-02 0.47117890E+02</pdfrwt>
<totfact> 0.52531383E+05</totfact>
</mgrwt>
</event>
<event>
 4    1  0.4118611E+000  0.2640338E+02  0.7546771E-02  0.1641626E+00
         -2   -1    0    0    0  501 -0.00000000000E+00  0.00000000000E+00  0.58955056203E+01  0.58955056203E+01  0.00000000000E+00 0.  1.
          2   -1    0    0  501    0  0.00000000000E+00 -0.00000000000E+00 -0.29562295706E+02  0.29562295706E+02  0.00000000000E+00 0. -1.
        -13    1    1    2    0    0  0.79958262621E+01 -0.10251697170E+02 -0.87551488559E+01  0.15674283523E+02  0.00000000000E+00 0. -1.
         13    1    1    2    0    0 -0.79958262621E+01  0.10251697170E+02 -0.14911641229E+02  0.19783517802E+02  0.00000000000E+00 0.  1.
<mgrwt>
<rscale>  0 0.26403385E+02</rscale>
<asrwt>0</asrwt>
<pdfrwt beam="2">  1        2 0.45480454E-02 0.26403385E+02</pdfrwt>
<pdfrwt beam="1">  1       -2 0.90700088E-03 0.26403385E+02</pdfrwt>
<totfact> 0.22863066E+06</totfact>
</mgrwt>
</event>
<event>
 4    1  0.4118611E+000  0.4763539E+02  0.7546771E-02  0.1458529E+00
         -2   -1    0    0    0  501 -0.00000000000E+00  0.00000000000E+00  0.30726142189E+01  0.30726142189E+01  0.00000000000E+00 0. -1.
          2   -1    0    0  501    0  0.00000000000E+00 -0.00000000000E+00 -0.18462541043E+03  0.18462541043E+03  0.00000000000E+00 0.  1.
        -11    1    1    2    0    0 -0.15576538573E+02 -0.17967312423E+02 -0.96106441811E+02  0.99004550538E+02  0.00000000000E+00 0. -1.
         11    1    1    2    0    0  0.15576538573E+02  0.17967312423E+02 -0.85446354403E+02  0.88693474114E+02  0.00000000000E+00 0.  1.
<mgrwt>
<rscale>  0 0.47635393E+02</rscale>
<asrwt>0</asrwt>
<pdfrwt beam="2">  1        2 0.28403918E-01 0.47635393E+02</pdfrwt>
<pdfrwt beam="1">  1       -2 0.47270973E-03 0.47635393E+02</pdfrwt>
<totfact> 0.80931988E+05</totfact>
</mgrwt>
</event>
<event>
 4    1  0.4118611E+000  0.3210676E+02  0.7546771E-02  0.1575904E+00
         -2   -1    0    0    0  501 -0.00000000000E+00  0.00000000000E+00  0.31235151875E+01  0.31235151875E+01  0.00000000000E+00 0. -1.
          2   -1    0    0  501    0  0.00000000000E+00 -0.00000000000E+00 -0.82506713819E+02  0.82506713819E+02  0.00000000000E+00 0.  1.
        -13    1    1    2    0    0 -0.12000054265E+02  0.18140983974E+00 -0.11255730579E+02  0.16453743731E+02  0.00000000000E+00 0. -1.
         13    1    1    2    0    0  0.12000054265E+02 -0.18140983974E+00 -0.68127468052E+02  0.69176485276E+02  0.00000000000E+00 0.  1.
<mgrwt>
<rscale>  0 0.32106758E+02</rscale>
<asrwt>0</asrwt>
<pdfrwt beam="2">  1        2 0.12693340E-01 0.32106758E+02</pdfrwt>
<pdfrwt beam="1">  1       -2 0.48054081E-03 0.32106758E+02</pdfrwt>
<totfact> 0.17013986E+06</totfact>
</mgrwt>
</event>
<event>
 4    1  0.4118611E+000  0.3381207E+02  0.7546771E-02  0.1559410E+00
          4   -1    0    0  501    0  0.00000000000E+00  0.00000000000E+00  0.11230966252E+03  0.11230966252E+03  0.00000000000E+00 0. -1.
         -4   -1    0    0    0  501 -0.00000000000E+00 -0.00000000000E+00 -0.25448752592E+01  0.25448752592E+01  0.00000000000E+00 0.  1.
        -11    1    1    2    0    0 -0.15436698938E+02 -0.50199851614E+01  0.70931262376E+02  0.72764935974E+02  0.00000000000E+00 0. -1.
         11    1    1    2    0    0  0.15436698938E+02  0.50199851614E+01  0.38833524889E+02  0.42089601809E+02  0.00000000000E+00 0.  1.
<mgrwt>
<rscale>  0 0.33812074E+02</rscale>
<asrwt>0</asrwt>
<pdfrwt beam="1">  1        4 0.17278406E-01 0.33812074E+02</pdfrwt>
<pdfrwt beam="2">  1       -4 0.39151936E-03 0.33812074E+02</pdfrwt>
<totfact> 0.30493223E+05</totfact>
</mgrwt>
</event>
<event>
 4    1  0.4118611E+000  0.2795242E+02  0.7546771E-02  0.1621891E+00
         -2   -1    0    0    0  501 -0.00000000000E+00  0.00000000000E+00  0.59812979950E+01  0.59812979950E+01  0.00000000000E+00 0. -1.
          2   -1    0    0  501    0  0.00000000000E+00 -0.00000000000E+00 -0.32657539137E+02  0.32657539137E+02  0.00000000000E+00 0.  1.
        -13    1    1    2    0    0  0.10416655410E+02 -0.62866285849E+01 -0.22845547878E+02  0.25883343422E+02  0.00000000000E+00 0.  1.
         13    1    1    2    0    0 -0.10416655410E+02  0.62866285849E+01 -0.38306932643E+01  0.12755493710E+02  0.00000000000E+00 0. -1.
<mgrwt>
<rscale>  0 0.27952422E+02</rscale>
<asrwt>0</asrwt>
<pdfrwt beam="2">  1        2 0.50242368E-02 0.27952422E+02</pdfrwt>
<pdfrwt beam="1">  1       -2 0.92019970E-03 0.27952422E+02</pdfrwt>
<totfact> 0.20226862E+06</totfact>
</mgrwt>
</event>
<event>
 4    1  0.4118611E+000  0.3064847E+02  0.7546771E-02  0.1591029E+00
         -2   -1    0    0    0  501 -0.00000000000E+00  0.00000000000E+00  0.65084219289E+01  0.65084219289E+01  0.00000000000E+00 0. -1.
          2   -1    0    0  501    0  0.00000000000E+00 -0.00000000000E+00 -0.36081270073E+02  0.36081270073E+02  0.00000000000E+00 0.  1.
        -13    1    1    2    0    0 -0.11062335983E+02  0.84203515641E+01 -0.23744297895E+02  0.27514891975E+02  0.00000000000E+00 0.  1.
         13    1    1    2    0    0  0.11062335983E+02 -0.84203515641E+01 -0.58285502493E+01  0.15074800027E+02  0.00000000000E+00 0. -1.
<mgrwt>
<rscale>  0 0.30648467E+02</rscale>
<asrwt>0</asrwt>
<pdfrwt beam="2">  1        2 0.55509646E-02 0.30648467E+02</pdfrwt>
<pdfrwt beam="1">  1       -2 0.10012957E-02 0.30648467E+02</pdfrwt>
<totfact> 0.16449803E+06</totfact>
</mgrwt>
</event>
<event>
 4    1  0.4118611E+000  0.2842649E+02  0.7546771E-02  0.1616163E+00
          2   -1    0    0  501    0  0.00000000000E+00  0.00000000000E+00  0.59085394797E+02  0.59085394797E+02  0.00000000000E+00 0. -1.
         -2   -1    0    0    0  501 -0.00000000000E+00 -0.00000000000E+00 -0.34190561933E+01  0.34190561933E+01  0.00000000000E+00 0.  1.
        -11    1    1    2    0    0 -0.85454084955E+00 -0.11750269941E+02  0.45315743959E+02  0.46822171397E+02  0.00000000000E+00 0. -1.
         11    1    1    2    0    0  0.85454084955E+00  0.11750269941E+02  0.10350594644E+02  0.15682279593E+02  0.00000000000E+00 0.  1.
<mgrwt>
<rscale>  0 0.28426487E+02</rscale>
<asrwt>0</asrwt>
<pdfrwt beam="1">  1        2 0.90900600E-02 0.28426487E+02</pdfrwt>
<pdfrwt beam="2">  1       -2 0.52600869E-03 0.28426487E+02</pdfrwt>
<totfact> 0.21256504E+06</totfact>
</mgrwt>
</event>
<event>
 4    1  0.4118611E+000  0.7832114E+02  0.7546771E-02  0.1333884E+00
         -2   -1    0    0    0  501 -0.00000000000E+00  0.00000000000E+00  0.51979137037E+01  0.51979137037E+01  0.00000000000E+00 0.  1.
          2   -1    0    0  501    0  0.00000000000E+00 -0.00000000000E+00 -0.29503189266E+03  0.29503189266E+03  0.00000000000E+00 0. -1.
        -13    1    1    2    0    0 -0.14179618688E+02  0.36502418706E+02 -0.14396126737E+03  0.14919227413E+03  0.00000000000E+00 0.  1.
         13    1    1    2    0    0  0.14179618688E+02 -0.36502418706E+02 -0.14587271159E+03  0.15103753223E+03  0.00000000000E+00 0. -1.
<mgrwt>
<rscale>  0 0.78321142E+02</rscale>
<asrwt>0</asrwt>
<pdfrwt beam="2">  1        2 0.45389541E-01 0.78321142E+02</pdfrwt>
<pdfrwt beam="1">  1       -2 0.79967869E-03 0.78321142E+02</pdfrwt>
<totfact> 0.26692452E+05</totfact>
</mgrwt>
</event>
<event>
 4    1  0.4118611E+000  0.2674681E+02  0.7546771E-02  0.1637109E+00
          2   -1    0    0  501    0  0.00000000000E+00  0.00000000000E+00  0.21181279037E+02  0.21181279037E+02  0.00000000000E+00 0. -1.
         -2   -1    0    0    0  501 -0.00000000000E+00 -0.00000000000E+00 -0.84436784976E+01  0.84436784976E+01  0.00000000000E+00 0.  1.
        -13    1    1    2    0    0 -0.43036297229E+01 -0.91685374346E+01 -0.33038906874E+01  0.10653590998E+02  0.00000000000E+00 0.  1.
         13    1    1    2    0    0  0.43036297229E+01  0.91685374346E+01  0.16041491226E+02  0.18971366536E+02  0.00000000000E+00 0. -1.
<mgrwt>
<rscale>  0 0.26746806E+02</rscale>
<asrwt>0</asrwt>
<pdfrwt beam="1">  1        2 0.32586583E-02 0.26746806E+02</pdfrwt>
<pdfrwt beam="2">  1       -2 0.12990275E-02 0.26746806E+02</pdfrwt>
<totfact> 0.21377048E+06</totfact>
</mgrwt>
</event>
<event>
 4    1  0.4118611E+000  0.4926138E+02  0.7546771E-02  0.1449367E+00
          2   -1    0    0  501    0  0.00000000000E+00  0.00000000000E+00  0.39818963452E+02  0.39818963452E+02  0.00000000000E+00 0.  1.
         -2   -1    0    0    0  501 -0.00000000000E+00 -0.00000000000E+00 -0.15235728133E+02  0.15235728133E+02  0.00000000000E+00 0. -1.
        -11    1    1    2    0    0  0.97267102233E+01 -0.13682724764E+02  0.32434697984E+02  0.36521712474E+02  0.00000000000E+00 0.  1.
         11    1    1    2    0    0 -0.97267102233E+01  0.13682724764E+02 -0.78514626654E+01  0.18532979111E+02  0.00000000000E+00 0. -1.
<mgrwt>
<rscale>  0 0.49261380E+02</rscale>
<asrwt>0</asrwt>
<pdfrwt beam="1">  1        2 0.61259944E-02 0.49261380E+02</pdfrwt>
<pdfrwt beam="2">  1       -2 0.23439582E-02 0.49261380E+02</pdfrwt>
<totfact> 0.51150693E+05</totfact>
</mgrwt>
</event>
<event>
 4    1  0.4118611E+000  0.2769273E+02  0.7546771E-02  0.1625088E+00
         -4   -1    0    0    0  501 -0.00000000000E+00  0.00000000000E+00  0.39755298976E+02  0.39755298976E+02  0.00000000000E+00 0.  1.
          4   -1    0    0  501    0  0.00000000000E+00 -0.00000000000E+00 -0.48225486752E+01  0.48225486752E+01  0.00000000000E+00 0. -1.
        -11    1    1    2    0    0  0.26067560342E+00  0.13653870132E+02  0.21146201322E+02  0.25172563471E+02  0.00000000000E+00 0. -1.
         11    1    1    2    0    0 -0.26067560342E+00 -0.13653870132E+02  0.13786548979E+02  0.19405284180E+02  0.00000000000E+00 0.  1.
<mgrwt>
<rscale>  0 0.27692733E+02</rscale>
<asrwt>0</asrwt>
<pdfrwt beam="2">  1        4 0.74193059E-03 0.27692733E+02</pdfrwt>
<pdfrwt beam="1">  1       -4 0.61161996E-02 0.27692733E+02</pdfrwt>
<totfact> 0.58948342E+05</totfact>
</mgrwt>
</event>
<event>
 4    1  0.4118611E+000  0.2531484E+02  0.7546771E-02  0.1656521E+00
          1   -1    0    0  501    0  0.00000000000E+00  0.00000000000E+00  0.14221575908E+02  0.14221575908E+02  0.00000000000E+00 0.  1.
         -1   -1    0    0    0  501 -0.00000000000E+00 -0.00000000000E+00 -0.11265293659E+02  0.11265293659E+02  0.00000000000E+00 0. -1.
        -13    1    1    2    0    0  0.35922264473E+01 -0.10174031837E+02  0.81409093791E+01  0.13516265023E+02  0.00000000000E+00 0.  1.
         13    1    1    2    0    0 -0.35922264473E+01  0.10174031837E+02 -0.51846271296E+01  0.11970604543E+02  0.00000000000E+00 0. -1.
<mgrwt>
<rscale>  0 0.25314836E+02</rscale>
<asrwt>0</asrwt>
<pdfrwt beam="1">  1        1 0.21879347E-02 0.25314836E+02</pdfrwt>
<pdfrwt beam="2">  1       -1 0.17331221E-02 0.25314836E+02</pdfrwt>
<totfact> 0.22754110E+06</totfact>
</mgrwt>
</event>
<event>
 4    1  0.4118611E+000  0.7150169E+02  0.7546771E-02  0.1355060E+00
         -2   -1    0    0    0  501 -0.00000000000E+00  0.00000000000E+00  0.55052572808E+02  0.55052572808E+02  0.00000000000E+00 0. -1.
          2   -1    0    0  501    0  0.00000000000E+00 -0.00000000000E+00 -0.23216409155E+02  0.23216409155E+02  0.00000000000E+00 0.  1.
        -11    1    1    2    0    0  0.35144762903E+02  0.63102256832E+01  0.17860806408E+02  0.39924700540E+02  0.00000000000E+00 0.  1.
         11    1    1    2    0    0 -0.35144762903E+02 -0.63102256832E+01  0.13975357245E+02  0.38344281422E+02  0.00000000000E+00 0. -1.
<mgrwt>
<rscale>  0 0.71501694E+02</rscale>
<asrwt>0</asrwt>
<pdfrwt beam="2">  1        2 0.35717553E-02 0.71501694E+02</pdfrwt>
<pdfrwt beam="1">  1       -2 0.84696265E-02 0.71501694E+02</pdfrwt>
<totfact> 0.16873025E+05</totfact>
</mgrwt>
</event>
<event>
 4    1  0.4118611E+000  0.2556921E+02  0.7546771E-02  0.1652958E+00
          2   -1    0    0  501    0  0.00000000000E+00  0.00000000000E+00  0.17888077049E+02  0.17888077049E+02  0.00000000000E+00 0. -1.
         -2   -1    0    0    0  501 -0.00000000000E+00 -0.00000000000E+00 -0.91371515523E+01  0.91371515523E+01  0.00000000000E+00 0.  1.
        -11    1    1    2    0    0 -0.11364512036E+02  0.38094266855E+01 -0.32552903909E+00  0.11990405941E+02  0.00000000000E+00 0.  1.
         11    1    1    2    0    0  0.11364512036E+02 -0.38094266855E+01  0.90764545360E+01  0.15034822660E+02  0.00000000000E+00 0. -1.
<mgrwt>
<rscale>  0 0.25569206E+02</rscale>
<asrwt>0</asrwt>
<pdfrwt beam="1">  1        2 0.27520118E-02 0.25569206E+02</pdfrwt>
<pdfrwt beam="2">  1       -2 0.14057156E-02 0.25569206E+02</pdfrwt>
<totfact> 0.23390293E+06</totfact>
</mgrwt>
</event>
<event>
 4    1  0.4118611E+000  0.2988899E+02  0.7546771E-02  0.1599319E+00
         -2   -1    0    0    0  501 -0.00000000000E+00  0.00000000000E+00  0.43068590141E+01  0.43068590141E+01  0.00000000000E+00 0.  1.
          2   -1    0    0  501    0  0.00000000000E+00 -0.00000000000E+00 -0.51856346226E+02  0.51856346226E+02  0.00000000000E+00 0. -1.
        -11    1    1    2    0    0  0.62986533855E+01 -0.11073025285E+02 -0.90924372060E+01  0.15651112989E+02  0.00000000000E+00 0.  1.
         11    1    1    2    0    0 -0.62986533855E+01  0.11073025285E+02 -0.38457050006E+02  0.40512092252E+02  0.00000000000E+00 0. -1.
<mgrwt>
<rscale>  0 0.29888993E+02</rscale>
<asrwt>0</asrwt>
<pdfrwt beam="2">  1        2 0.79778992E-02 0.29888993E+02</pdfrwt>
<pdfrwt beam="1">  1       -2 0.66259371E-03 0.29888993E+02</pdfrwt>
<totfact> 0.18455072E+06</totfact>
</mgrwt>
</event>
<event>
 4    1  0.4118611E+000  0.2328354E+02  0.7546771E-02  0.1686955E+00
          4   -1    0    0  501    0  0.00000000000E+00  0.00000000000E+00  0.17074911824E+02  0.17074911824E+02  0.00000000000E+00 0.  1.
         -4   -1    0    0    0  501 -0.00000000000E+00 -0.00000000000E+00 -0.79374250598E+01  0.79374250598E+01  0.00000000000E+00 0. -1.
        -11    1    1    2    0    0 -0.10856237624E+02 -0.25492602961E+01  0.81597286759E+01  0.13818024297E+02  0.00000000000E+00 0.  1.
         11    1    1    2    0    0  0.10856237624E+02  0.25492602961E+01  0.97775808852E+00  0.11194312587E+02  0.00000000000E+00 0. -1.
<mgrwt>
<rscale>  0 0.23283542E+02</rscale>
<asrwt>0</asrwt>
<pdfrwt beam="1">  1        4 0.26269095E-02 0.23283542E+02</pdfrwt>
<pdfrwt beam="2">  1       -4 0.12211423E-02 0.23283542E+02</pdfrwt>
<totfact> 0.92651502E+05</totfact>
</mgrwt>
</event>
<event>
 4    1  0.4118611E+000  0.4167597E+02  0.7546771E-02  0.1496228E+00
          2   -1    0    0  501    0  0.00000000000E+00  0.00000000000E+00  0.17487422973E+03  0.17487422973E+03  0.00000000000E+00 0.  1.
         -2   -1    0    0    0  501 -0.00000000000E+00 -0.00000000000E+00 -0.24830507885E+01  0.24830507885E+01  0.00000000000E+00 0. -1.
        -13    1    1    2    0    0 -0.18563688387E+02  0.94535869080E+01  0.84107460469E+02  0.86648980020E+02  0.00000000000E+00 0.  1.
         13    1    1    2    0    0  0.18563688387E+02 -0.94535869080E+01  0.88283718471E+02  0.90708300497E+02  0.00000000000E+00 0. -1.
<mgrwt>
<rscale>  0 0.41675969E+02</rscale>
<asrwt>0</asrwt>
<pdfrwt beam="1">  1        2 0.26903718E-01 0.41675969E+02</pdfrwt>
<pdfrwt beam="2">  1       -2 0.38200795E-03 0.41675969E+02</pdfrwt>
<totfact> 0.11067794E+06</totfact>
</mgrwt>
</event>
<event>
 4    1  0.4118611E+000  0.2634746E+02  0.7546771E-02  0.1642370E+00
         -2   -1    0    0    0  501 -0.00000000000E+00  0.00000000000E+00  0.19630017321E+02  0.19630017321E+02  0.00000000000E+00 0. -1.
          2   -1    0    0  501    0  0.00000000000E+00 -0.00000000000E+00 -0.88409050177E+01  0.88409050177E+01  0.00000000000E+00 0.  1.
        -11    1    1    2    0    0 -0.33483537390E+01 -0.12577236263E+02  0.75955697159E+01  0.15069539611E+02  0.00000000000E+00 0. -1.
         11    1    1    2    0    0  0.33483537390E+01  0.12577236263E+02  0.31935425871E+01  0.13401382728E+02  0.00000000000E+00 0.  1.
<mgrwt>
<rscale>  0 0.26347457E+02</rscale>
<asrwt>0</asrwt>
<pdfrwt beam="2">  1        2 0.13601392E-02 0.26347457E+02</pdfrwt>
<pdfrwt beam="1">  1       -2 0.30200027E-02 0.26347457E+02</pdfrwt>
<totfact> 0.20400951E+06</totfact>
</mgrwt>
</event>
<event>
 4    1  0.4118611E+000  0.5141238E+02  0.7546771E-02  0.1437869E+00
          1   -1    0    0  501    0  0.00000000000E+00  0.00000000000E+00  0.22660768568E+02  0.22660768568E+02  0.00000000000E+00 0. -1.
         -1   -1    0    0    0  501 -0.00000000000E+00 -0.00000000000E+00 -0.29160885443E+02  0.29160885443E+02  0.00000000000E+00 0.  1.
        -11    1    1    2    0    0  0.18454669856E+02 -0.71345754722E+01  0.13291896429E+02  0.23835929127E+02  0.00000000000E+00 0. -1.
         11    1    1    2    0    0 -0.18454669856E+02  0.71345754722E+01 -0.19792013304E+02  0.27985724884E+02  0.00000000000E+00 0.  1.
<mgrwt>
<rscale>  0 0.51412375E+02</rscale>
<asrwt>0</asrwt>
<pdfrwt beam="1">  1        1 0.34862721E-02 0.51412375E+02</pdfrwt>
<pdfrwt beam="2">  1       -1 0.44862901E-02 0.51412375E+02</pdfrwt>
<totfact> 0.40305171E+05</totfact>
</mgrwt>
</event>
<event>
 4    1  0.4118611E+000  0.3154523E+02  0.7546771E-02  0.1581610E+00
          4   -1    0    0  501    0  0.00000000000E+00  0.00000000000E+00  0.31840337203E+02  0.31840337203E+02  0.00000000000E+00 0. -1.
         -4   -1    0    0    0  501 -0.00000000000E+00 -0.00000000000E+00 -0.78132160733E+01  0.78132160733E+01  0.00000000000E+00 0.  1.
        -13    1    1    2    0    0 -0.15731284318E+02  0.11119708410E+01  0.11691481599E+02  0.19631620601E+02  0.00000000000E+00 0. -1.
         13    1    1    2    0    0  0.15731284318E+02 -0.11119708410E+01  0.12335639531E+02  0.20021932676E+02  0.00000000000E+00 0.  1.
<mgrwt>
<rscale>  0 0.31545233E+02</rscale>
<asrwt>0</asrwt>
<pdfrwt beam="1">  1        4 0.48985134E-02 0.31545233E+02</pdfrwt>
<pdfrwt beam="2">  1       -4 0.12020333E-02 0.31545233E+02</pdfrwt>
<totfact> 0.44779803E+05</totfact>
</mgrwt>
</event>
<event>
 4    1  0.4118611E+000  0.3053343E+02  0.7546771E-02  0.1592266E+00
          2   -1    0    0  501    0  0.00000000000E+00  0.00000000000E+00  0.75236441716E+02  0.75236441716E+02  0.00000000000E+00 0. -1.
         -2   -1    0    0    0  501 -0.00000000000E+00 -0.00000000000E+00 -0.30978679834E+01  0.30978679834E+01  0.00000000000E+00 0.  1.
        -11    1    1    2    0    0 -0.74091280641E+01 -0.13213029422E+02  0.31206116445E+02  0.34688629676E+02  0.00000000000E+00 0.  1.
         11    1    1    2    0    0  0.74091280641E+01  0.13213029422E+02  0.40932457288E+02  0.43645680024E+02  0.00000000000E+00 0. -1.
<mgrwt>
<rscale>  0 0.30533428E+02</rscale>
<asrwt>0</asrwt>
<pdfrwt beam="1">  1        2 0.11574836E-01 0.30533428E+02</pdfrwt>
<pdfrwt beam="2">  1       -2 0.47659513E-03 0.30533428E+02</pdfrwt>
<totfact> 0.18804088E+06</totfact>
</mgrwt>
</event>
<event>
 4    1  0.4118611E+000  0.3104780E+02  0.7546771E-02  0.1586787E+00
          2   -1    0    0  501    0  0.00000000000E+00  0.00000000000E+00  0.31191492364E+01  0.31191492364E+01  0.00000000000E+00 0.  1.
         -2   -1    0    0    0  501 -0.00000000000E+00 -0.00000000000E+00 -0.77261945666E+02  0.77261945666E+02  0.00000000000E+00 0. -1.
        -11    1    1    2    0    0  0.57456597455E+01  0.10100255071E+02 -0.10421120040E+02  0.15608571405E+02  0.00000000000E+00 0.  1.
         11    1    1    2    0    0 -0.57456597455E+01 -0.10100255071E+02 -0.63721676390E+02  0.64772523498E+02  0.00000000000E+00 0. -1.
<mgrwt>
<rscale>  0 0.31047804E+02</rscale>
<asrwt>0</asrwt>
<pdfrwt beam="1">  1        2 0.47986920E-03 0.31047804E+02</pdfrwt>
<pdfrwt beam="2">  1       -2 0.11886451E-01 0.31047804E+02</pdfrwt>
<totfact> 0.11659003E+06</totfact>
</mgrwt>
</event>
<event>
 4    1  0.4118611E+000  0.4812151E+02  0.7546771E-02  0.1455745E+00
         -2   -1    0    0    0  501 -0.00000000000E+00  0.00000000000E+00  0.70719978956E+01  0.70719978956E+01  0.00000000000E+00 0. -1.
          2   -1    0    0  501    0  0.00000000000E+00 -0.00000000000E+00 -0.81860886471E+02  0.81860886471E+02  0.00000000000E+00 0.  1.
        -13    1    1    2    0    0 -0.17476389988E+02  0.10460541464E+02 -0.13722087227E+02  0.24558966032E+02  0.00000000000E+00 0. -1.
         13    1    1    2    0    0  0.17476389988E+02 -0.10460541464E+02 -0.61066801349E+02  0.64373918334E+02  0.00000000000E+00 0.  1.
<mgrwt>
<rscale>  0 0.48121514E+02</rscale>
<asrwt>0</asrwt>
<pdfrwt beam="2">  1        2 0.12593983E-01 0.48121514E+02</pdfrwt>
<pdfrwt beam="1">  1       -2 0.10879997E-02 0.48121514E+02</pdfrwt>
<totfact> 0.62772135E+05</totfact>
</mgrwt>
</event>
<event>
 4    1  0.4118611E+000  0.2439457E+02  0.7546771E-02  0.1669853E+00
         -2   -1    0    0    0  501 -0.00000000000E+00  0.00000000000E+00  0.30624750420E+02  0.30624750420E+02  0.00000000000E+00 0. -1.
          2   -1    0    0  501    0  0.00000000000E+00 -0.00000000000E+00 -0.48579585643E+01  0.48579585643E+01  0.00000000000E+00 0.  1.
        -13    1    1    2    0    0  0.89904365334E+01  0.68385041662E+01  0.61892751472E+01  0.12880225741E+02  0.00000000000E+00 0.  1.
         13    1    1    2    0    0 -0.89904365334E+01 -0.68385041662E+01  0.19577516709E+02  0.22602483243E+02  0.00000000000E+00 0. -1.
<mgrwt>
<rscale>  0 0.24394571E+02</rscale>
<asrwt>0</asrwt>
<pdfrwt beam="2">  1        2 0.74737826E-03 0.24394571E+02</pdfrwt>
<pdfrwt beam="1">  1       -2 0.47115000E-02 0.24394571E+02</pdfrwt>
<totfact> 0.23193263E+06</totfact>
</mgrwt>
</event>
<event>
 4    1  0.4118611E+000  0.2251421E+03  0.7546771E-02  0.1130106E+00
          2   -1    0    0  501    0  0.00000000000E+00  0.00000000000E+00  0.78970816272E+03  0.78970816272E+03  0.00000000000E+00 0. -1.
         -2   -1    0    0    0  501 -0.00000000000E+00 -0.00000000000E+00 -0.16046736082E+02  0.16046736082E+02  0.00000000000E+00 0.  1.
        -13    1    1    2    0    0 -0.10259317428E+03  0.45895120964E+02  0.40961128193E+03  0.42475066077E+03  0.00000000000E+00 0.  1.
         13    1    1    2    0    0  0.10259317428E+03 -0.45895120964E+02  0.36405014470E+03  0.38100423803E+03  0.00000000000E+00 0. -1.
<mgrwt>
<rscale>  0 0.22514207E+03</rscale>
<asrwt>0</asrwt>
<pdfrwt beam="1">  1        2 0.12149353E+00 0.22514207E+03</pdfrwt>
<pdfrwt beam="2">  1       -2 0.24687293E-02 0.22514207E+03</pdfrwt>
<totfact> 0.20093839E+04</totfact>
</mgrwt>
</event>
<event>
 4    1  0.4118611E+000  0.2066169E+02  0.7546771E-02  0.1732481E+00
          2   -1    0    0  501    0  0.00000000000E+00  0.00000000000E+00  0.84473816796E+01  0.84473816796E+01  0.00000000000E+00 0. -1.
         -2   -1    0    0    0  501 -0.00000000000E+00 -0.00000000000E+00 -0.12634257679E+02  0.12634257679E+02  0.00000000000E+00 0.  1.
        -13    1    1    2    0    0 -0.17693059215E+00  0.10300538866E+02 -0.28798109550E+01  0.10696995676E+02  0.00000000000E+00 0.  1.
         13    1    1    2    0    0  0.17693059215E+00 -0.10300538866E+02 -0.13070650440E+01  0.10384643682E+02  0.00000000000E+00 0. -1.
<mgrwt>
<rscale>  0 0.20661694E+02</rscale>
<asrwt>0</asrwt>
<pdfrwt beam="1">  1        2 0.12995972E-02 0.20661694E+02</pdfrwt>
<pdfrwt beam="2">  1       -2 0.19437319E-02 0.20661694E+02</pdfrwt>
<totfact> 0.36161192E+06</totfact>
</mgrwt>
</event>
<event>
 4    1  0.4118611E+000  0.9504411E+02  0.7546771E-02  0.1291077E+00
         -4   -1    0    0    0  501 -0.00000000000E+00  0.00000000000E+00  0.15439012732E+02  0.15439012732E+02  0.00000000000E+00 0.  1.
          4   -1    0    0  501    0  0.00000000000E+00 -0.00000000000E+00 -0.14627526816E+03  0.14627526816E+03  0.00000000000E+00 0. -1.
        -13    1    1    2    0    0 -0.12653135525E+02  0.41566500313E+02 -0.32669006403E+02  0.54361197248E+02  0.00000000000E+00 0.  1.
         13    1    1    2    0    0  0.12653135525E+02 -0.41566500313E+02 -0.98167249028E+02  0.10735308365E+03  0.00000000000E+00 0. -1.
<mgrwt>
<rscale>  0 0.95044110E+02</rscale>
<asrwt>0</asrwt>
<pdfrwt beam="2">  1        4 0.22503887E-01 0.95044110E+02</pdfrwt>
<pdfrwt beam="1">  1       -4 0.23752328E-02 0.95044110E+02</pdfrwt>
<totfact> 0.20648296E+04</totfact>
</mgrwt>
</event>
<event>
 4    1  0.4118611E+000  0.3859281E+02  0.7546771E-02  0.1518830E+00
         -2   -1    0    0    0  501 -0.00000000000E+00  0.00000000000E+00  0.22299761006E+02  0.22299761006E+02  0.00000000000E+00 0.  1.
          2   -1    0    0  501    0  0.00000000000E+00 -0.00000000000E+00 -0.16697545106E+02  0.16697545106E+02  0.00000000000E+00 0. -1.
        -11    1    1    2    0    0  0.61712743102E+01  0.11259153287E+02 -0.11754664687E+02  0.17407621930E+02  0.00000000000E+00 0. -1.
         11    1    1    2    0    0 -0.61712743102E+01 -0.11259153287E+02  0.17356880587E+02  0.21589684182E+02  0.00000000000E+00 0.  1.
<mgrwt>
<rscale>  0 0.38592811E+02</rscale>
<asrwt>0</asrwt>
<pdfrwt beam="2">  1        2 0.25688531E-02 0.38592811E+02</pdfrwt>
<pdfrwt beam="1">  1       -2 0.34307325E-02 0.38592811E+02</pdfrwt>
<totfact> 0.84410170E+05</totfact>
</mgrwt>
</event>
<event>
 4    1  0.4118611E+000  0.4454826E+02  0.7546771E-02  0.1477182E+00
          4   -1    0    0  501    0  0.00000000000E+00  0.00000000000E+00  0.17413179140E+02  0.17413179140E+02  0.00000000000E+00 0. -1.
         -4   -1    0    0    0  501 -0.00000000000E+00 -0.00000000000E+00 -0.28492032781E+02  0.28492032781E+02  0.00000000000E+00 0.  1.
        -11    1    1    2    0    0  0.32442201052E+01 -0.22019816791E+02 -0.64256078463E+01  0.23166478623E+02  0.00000000000E+00 0. -1.
         11    1    1    2    0    0 -0.32442201052E+01  0.22019816791E+02 -0.46532457946E+01  0.22738733298E+02  0.00000000000E+00 0.  1.
<mgrwt>
<rscale>  0 0.44548260E+02</rscale>
<asrwt>0</asrwt>
<pdfrwt beam="1">  1        4 0.26789507E-02 0.44548260E+02</pdfrwt>
<pdfrwt beam="2">  1       -4 0.43833896E-02 0.44548260E+02</pdfrwt>
<totfact> 0.19409474E+05</totfact>
</mgrwt>
</event>
<event>
 4    1  0.4118611E+000  0.4978002E+02  0.7546771E-02  0.1446532E+00
          2   -1    0    0  501    0  0.00000000000E+00  0.00000000000E+00  0.10135204876E+02  0.10135204876E+02  0.00000000000E+00 0. -1.
         -2   -1    0    0    0  501 -0.00000000000E+00 -0.00000000000E+00 -0.61124834480E+02  0.61124834480E+02  0.00000000000E+00 0.  1.
        -11    1    1    2    0    0  0.22307090814E+02 -0.90597327200E+01 -0.34528882891E+02  0.42094284782E+02  0.00000000000E+00 0. -1.
         11    1    1    2    0    0 -0.22307090814E+02  0.90597327200E+01 -0.16460746713E+02  0.29165754574E+02  0.00000000000E+00 0.  1.
<mgrwt>
<rscale>  0 0.49780025E+02</rscale>
<asrwt>0</asrwt>
<pdfrwt beam="1">  1        2 0.15592623E-02 0.49780025E+02</pdfrwt>
<pdfrwt beam="2">  1       -2 0.94038208E-02 0.49780025E+02</pdfrwt>
<totfact> 0.39725518E+05</totfact>
</mgrwt>
</event>
<event>
 4    1  0.4118611E+000  0.2475055E+02  0.7546771E-02  0.1664611E+00
         -2   -1    0    0    0  501 -0.00000000000E+00  0.00000000000E+00  0.24063546394E+02  0.24063546394E+02  0.00000000000E+00 0. -1.
          2   -1    0    0  501    0  0.00000000000E+00 -0.00000000000E+00 -0.63642921055E+01  0.63642921055E+01  0.00000000000E+00 0.  1.
        -11    1    1    2    0    0 -0.11594087090E+02  0.52544104937E-01  0.14168998307E+02  0.18308089178E+02  0.00000000000E+00 0. -1.
         11    1    1    2    0    0  0.11594087090E+02 -0.52544104937E-01  0.35302559817E+01  0.12119749322E+02  0.00000000000E+00 0.  1.
<mgrwt>
<rscale>  0 0.24750551E+02</rscale>
<asrwt>0</asrwt>
<pdfrwt beam="2">  1        2 0.97912187E-03 0.24750551E+02</pdfrwt>
<pdfrwt beam="1">  1       -2 0.37020840E-02 0.24750551E+02</pdfrwt>
<totfact> 0.23014049E+06</totfact>
</mgrwt>
</event>
<event>
 4    1  0.4118611E+000  0.3005446E+02  0.7546771E-02  0.1597487E+00
          4   -1    0    0  501    0  0.00000000000E+00  0.00000000000E+00  0.73954856843E+01  0.73954856843E+01  0.00000000000E+00 0.  1.
         -4   -1    0    0    0  501 -0.00000000000E+00 -0.00000000000E+00 -0.30534534117E+02  0.30534534117E+02  0.00000000000E+00 0. -1.
        -11    1    1    2    0    0 -0.88977175747E+01  0.11159034188E+02 -0.17505726954E+02  0.22586365317E+02  0.00000000000E+00 0.  1.
         11    1    1    2    0    0  0.88977175747E+01 -0.11159034188E+02 -0.56333214789E+01  0.15343654484E+02  0.00000000000E+00 0. -1.
<mgrwt>
<rscale>  0 0.30054465E+02</rscale>
<asrwt>0</asrwt>
<pdfrwt beam="1">  1        4 0.11377670E-02 0.30054465E+02</pdfrwt>
<pdfrwt beam="2">  1       -4 0.46976206E-02 0.30054465E+02</pdfrwt>
<totfact> 0.50298935E+05</totfact>
</mgrwt>
</event>
<event>
 4    1  0.4118611E+000  0.3171668E+02  0.7546771E-02  0.1579853E+00
          2   -1    0    0  501    0  0.00000000000E+00  0.00000000000E+00  0.38275803463E+02  0.38275803463E+02  0.00000000000E+00 0.  1.
         -2   -1    0    0    0  501 -0.00000000000E+00 -0.00000000000E+00 -0.65703888976E+01  0.65703888976E+01  0.00000000000E+00 0. -1.
        -11    1    1    2    0    0 -0.14205080837E+01  0.15682027839E+02  0.13191198027E+02  0.20541459192E+02  0.00000000000E+00 0. -1.
         11    1    1    2    0    0  0.14205080837E+01 -0.15682027839E+02  0.18514216539E+02  0.24304733169E+02  0.00000000000E+00 0.  1.
<mgrwt>
<rscale>  0 0.31716678E+02</rscale>
<asrwt>0</asrwt>
<pdfrwt beam="1">  1        2 0.58885850E-02 0.31716678E+02</pdfrwt>
<pdfrwt beam="2">  1       -2 0.10108291E-02 0.31716678E+02</pdfrwt>
<totfact> 0.15272187E+06</totfact>
</mgrwt>
</event>
<event>
 4    1  0.4118611E+000  0.6672596E+02  0.7546771E-02  0.1371594E+00
         -2   -1    0    0    0  501 -0.00000000000E+00  0.00000000000E+00  0.10798770846E+02  0.10798770846E+02  0.00000000000E+00 0.  1.
          2   -1    0    0  501    0  0.00000000000E+00 -0.00000000000E+00 -0.10307546497E+03  0.10307546497E+03  0.00000000000E+00 0. -1.
        -11    1    1    2    0    0 -0.12617850232E+02 -0.17891093247E+02 -0.89102110533E+02  0.91752315848E+02  0.00000000000E+00 0. -1.
         11    1    1    2    0    0  0.12617850232E+02  0.17891093247E+02 -0.31745835901E+01  0.22121919967E+02  0.00000000000E+00 0.  1.
<mgrwt>
<rscale>  0 0.66725957E+02</rscale>
<asrwt>0</asrwt>
<pdfrwt beam="2">  1        2 0.15857764E-01 0.66725957E+02</pdfrwt>
<pdfrwt beam="1">  1       -2 0.16613493E-02 0.66725957E+02</pdfrwt>
<totfact> 0.28660038E+05</totfact>
</mgrwt>
</event>
<event>
 4    1  0.4118611E+000  0.5434295E+02  0.7546771E-02  0.1423232E+00
          2   -1    0    0  501    0  0.00000000000E+00  0.00000000000E+00  0.28507502794E+02  0.28507502794E+02  0.00000000000E+00 0. -1.
         -2   -1    0    0    0  501 -0.00000000000E+00 -0.00000000000E+00 -0.25898062256E+02  0.25898062256E+02  0.00000000000E+00 0.  1.
        -13    1    1    2    0    0 -0.11981132969E+02  0.62245055698E+01  0.24911478712E+02  0.28335027588E+02  0.00000000000E+00 0. -1.
         13    1    1    2    0    0  0.11981132969E+02 -0.62245055698E+01 -0.22302038174E+02  0.26070537461E+02  0.00000000000E+00 0.  1.
<mgrwt>
<rscale>  0 0.54342951E+02</rscale>
<asrwt>0</asrwt>
<pdfrwt beam="1">  1        2 0.43857697E-02 0.54342951E+02</pdfrwt>
<pdfrwt beam="2">  1       -2 0.39843173E-02 0.54342951E+02</pdfrwt>
<totfact> 0.37359379E+05</totfact>
</mgrwt>
</event>
<event>
 4    1  0.4118611E+000  0.2638498E+02  0.7546771E-02  0.1641870E+00
         -3   -1    0    0    0  501 -0.00000000000E+00  0.00000000000E+00  0.26570102334E+02  0.26570102334E+02  0.00000000000E+00 0.  1.
          3   -1    0    0  501    0  0.00000000000E+00 -0.00000000000E+00 -0.65502885038E+01  0.65502885038E+01  0.00000000000E+00 0. -1.
        -13    1    1    2    0    0  0.18576244262E+01  0.12388697191E+02  0.15202442584E+02  0.19698853954E+02  0.00000000000E+00 0. -1.
         13    1    1    2    0    0 -0.18576244262E+01 -0.12388697191E+02  0.48173712465E+01  0.13421536884E+02  0.00000000000E+00 0.  1.
<mgrwt>
<rscale>  0 0.26384983E+02</rscale>
<asrwt>0</asrwt>
<pdfrwt beam="2">  1        3 0.10077367E-02 0.26384983E+02</pdfrwt>
<pdfrwt beam="1">  1       -3 0.40877080E-02 0.26384983E+02</pdfrwt>
<totfact> 0.92440054E+05</totfact>
</mgrwt>
</event>
<event>
 4    1  0.4118611E+000  0.2505559E+02  0.7546771E-02  0.1660205E+00
         -4   -1    0    0    0  501 -0.00000000000E+00  0.00000000000E+00  0.24780415470E+01  0.24780415470E+01  0.00000000000E+00 0. -1.
          4   -1    0    0  501    0  0.00000000000E+00 -0.00000000000E+00 -0.63334567404E+02  0.63334567404E+02  0.00000000000E+00 0.  1.
        -11    1    1    2    0    0 -0.54260007334E+01 -0.10905738195E+02 -0.38117292137E+02  0.40016303795E+02  0.00000000000E+00 0.  1.
         11    1    1    2    0    0  0.54260007334E+01  0.10905738195E+02 -0.22739233720E+02  0.25796305156E+02  0.00000000000E+00 0. -1.
<mgrwt>
<rscale>  0 0.25055593E+02</rscale>
<asrwt>0</asrwt>
<pdfrwt beam="2">  1        4 0.97437788E-02 0.25055593E+02</pdfrwt>
<pdfrwt beam="1">  1       -4 0.38123719E-03 0.25055593E+02</pdfrwt>
<totfact> 0.68214614E+05</totfact>
</mgrwt>
</event>
<event>
 4    1  0.4118611E+000  0.7188436E+02  0.7546771E-02  0.1353800E+00
          2   -1    0    0  501    0  0.00000000000E+00  0.00000000000E+00  0.16312032753E+03  0.16312032753E+03  0.00000000000E+00 0. -1.
         -2   -1    0    0    0  501 -0.00000000000E+00 -0.00000000000E+00 -0.79195541508E+01  0.79195541508E+01  0.00000000000E+00 0.  1.
        -11    1    1    2    0    0  0.26298694844E+02 -0.14092034234E+02  0.12528496444E+03  0.12878869940E+03  0.00000000000E+00 0. -1.
         11    1    1    2    0    0 -0.26298694844E+02  0.14092034234E+02  0.29915808939E+02  0.42251182277E+02  0.00000000000E+00 0.  1.
<mgrwt>
<rscale>  0 0.71884359E+02</rscale>
<asrwt>0</asrwt>
<pdfrwt beam="1">  1        2 0.25095433E-01 0.71884359E+02</pdfrwt>
<pdfrwt beam="2">  1       -2 0.12183931E-02 0.71884359E+02</pdfrwt>
<totfact> 0.27122569E+05</totfact>
</mgrwt>
</event>
<event>
 4    1  0.4118611E+000  0.2996483E+02  0.7546771E-02  0.1598478E+00
          3   -1    0    0  501    0  0.00000000000E+00  0.00000000000E+00  0.26557704124E+01  0.26557704124E+01  0.00000000000E+00 0. -1.
         -3   -1    0    0    0  501 -0.00000000000E+00 -0.00000000000E+00 -0.84522624526E+02  0.84522624526E+02  0.00000000000E+00 0.  1.
        -11    1    1    2    0    0  0.33425022995E+01 -0.12210253102E+02 -0.64246457868E+02  0.65481829167E+02  0.00000000000E+00 0.  1.
         11    1    1    2    0    0 -0.33425022995E+01  0.12210253102E+02 -0.17620396246E+02  0.21696565772E+02  0.00000000000E+00 0. -1.
<mgrwt>
<rscale>  0 0.29964825E+02</rscale>
<asrwt>0</asrwt>
<pdfrwt beam="1">  1        3 0.40858007E-03 0.29964825E+02</pdfrwt>
<pdfrwt beam="2">  1       -3 0.13003480E-01 0.29964825E+02</pdfrwt>
<totfact> 0.59317363E+05</totfact>
</mgrwt>
</event>
<event>
 4    1  0.4118611E+000  0.2600572E+02  0.7546771E-02  0.1646963E+00
          2   -1    0    0  501    0  0.00000000000E+00  0.00000000000E+00  0.73206415806E+01  0.73206415806E+01  0.00000000000E+00 0.  1.
         -2   -1    0    0    0  501 -0.00000000000E+00 -0.00000000000E+00 -0.23095572358E+02  0.23095572358E+02  0.00000000000E+00 0. -1.
        -11    1    1    2    0    0 -0.11436719821E+02  0.34751931797E+01 -0.13874028702E+02  0.18312951709E+02  0.00000000000E+00 0. -1.
         11    1    1    2    0    0  0.11436719821E+02 -0.34751931797E+01 -0.19009020758E+01  0.12103262229E+02  0.00000000000E+00 0.  1.
<mgrwt>
<rscale>  0 0.26005723E+02</rscale>
<asrwt>0</asrwt>
<pdfrwt beam="1">  1        2 0.11262526E-02 0.26005723E+02</pdfrwt>
<pdfrwt beam="2">  1       -2 0.35531649E-02 0.26005723E+02</pdfrwt>
<totfact> 0.20680594E+06</totfact>
</mgrwt>
</event>
<event>
 4    1  0.4118611E+000  0.3859836E+02  0.7546771E-02  0.1518787E+00
         -2   -1    0    0    0  501 -0.00000000000E+00  0.00000000000E+00  0.30118441341E+01  0.30118441341E+01  0.00000000000E+00 0.  1.
          2   -1    0    0  501    0  0.00000000000E+00 -0.00000000000E+00 -0.12366453435E+03  0.12366453435E+03  0.00000000000E+00 0. -1.
        -13    1    1    2    0    0  0.87367668772E+01 -0.17147090407E+02 -0.65087376217E+02  0.67872824810E+02  0.00000000000E+00 0. -1.
         13    1    1    2    0    0 -0.87367668772E+01  0.17147090407E+02 -0.55565314000E+02  0.58803553675E+02  0.00000000000E+00 0.  1.
<mgrwt>
<rscale>  0 0.38598358E+02</rscale>
<asrwt>0</asrwt>
<pdfrwt beam="2">  1        2 0.19025317E-01 0.38598358E+02</pdfrwt>
<pdfrwt beam="1">  1       -2 0.46336055E-03 0.38598358E+02</pdfrwt>
<totfact> 0.12054736E+06</totfact>
</mgrwt>
</event>
<event>
 4    1  0.4118611E+000  0.2485675E+02  0.7546771E-02  0.1663068E+00
         -2   -1    0    0    0  501 -0.00000000000E+00  0.00000000000E+00  0.94205947426E+01  0.94205947426E+01  0.00000000000E+00 0.  1.
          2   -1    0    0  501    0  0.00000000000E+00 -0.00000000000E+00 -0.16396469154E+02  0.16396469154E+02  0.00000000000E+00 0. -1.
        -11    1    1    2    0    0 -0.12267938133E+02  0.18688143715E+01 -0.27760993336E+01  0.12716190495E+02  0.00000000000E+00 0.  1.
         11    1    1    2    0    0  0.12267938133E+02 -0.18688143715E+01 -0.41997750780E+01  0.13100873402E+02  0.00000000000E+00 0. -1.
<mgrwt>
<rscale>  0 0.24856749E+02</rscale>
<asrwt>0</asrwt>
<pdfrwt beam="2">  1        2 0.25225337E-02 0.24856749E+02</pdfrwt>
<pdfrwt beam="1">  1       -2 0.14493223E-02 0.24856749E+02</pdfrwt>
<totfact> 0.24802658E+06</totfact>
</mgrwt>
</event>
<event>
 4    1  0.4118611E+000  0.6625785E+02  0.7546771E-02  0.1373301E+00
         -2   -1    0    0    0  501 -0.00000000000E+00  0.00000000000E+00  0.87956368006E+01  0.87956368006E+01  0.00000000000E+00 0.  1.
          2   -1    0    0  501    0  0.00000000000E+00 -0.00000000000E+00 -0.12478070942E+03  0.12478070942E+03  0.00000000000E+00 0. -1.
        -11    1    1    2    0    0  0.32351219404E+02 -0.34656815189E+01 -0.45416549071E+02  0.55868374550E+02  0.00000000000E+00 0. -1.
         11    1    1    2    0    0 -0.32351219404E+02  0.34656815189E+01 -0.70568523546E+02  0.77707971668E+02  0.00000000000E+00 0.  1.
<mgrwt>
<rscale>  0 0.66257854E+02</rscale>
<asrwt>0</asrwt>
<pdfrwt beam="2">  1        2 0.19197031E-01 0.66257854E+02</pdfrwt>
<pdfrwt beam="1">  1       -2 0.13531750E-02 0.66257854E+02</pdfrwt>
<totfact> 0.30857329E+05</totfact>
</mgrwt>
</event>
<event>
 4    1  0.4118611E+000  0.2455681E+02  0.7546771E-02  0.1667450E+00
          2   -1    0    0  501    0  0.00000000000E+00  0.00000000000E+00  0.93505559050E+01  0.93505559050E+01  0.00000000000E+00 0. -1.
         -2   -1    0    0    0  501 -0.00000000000E+00 -0.00000000000E+00 -0.16123026927E+02  0.16123026927E+02  0.00000000000E+00 0.  1.
        -11    1    1    2    0    0  0.11348668960E+02  0.58612031488E+00 -0.82099370540E+01  0.14019232883E+02  0.00000000000E+00 0.  1.
         11    1    1    2    0    0 -0.11348668960E+02 -0.58612031488E+00  0.14374660316E+01  0.11454349950E+02  0.00000000000E+00 0. -1.
<mgrwt>
<rscale>  0 0.24556813E+02</rscale>
<asrwt>0</asrwt>
<pdfrwt beam="1">  1        2 0.14385471E-02 0.24556813E+02</pdfrwt>
<pdfrwt beam="2">  1       -2 0.24804657E-02 0.24556813E+02</pdfrwt>
<totfact> 0.24296792E+06</totfact>
</mgrwt>
</event>
<event>
 4    1  0.4118611E+000  0.2041648E+02  0.7546771E-02  0.1737171E+00
          2   -1    0    0  501    0  0.00000000000E+00  0.00000000000E+00  0.50965680103E+02  0.50965680103E+02  0.00000000000E+00 0.  1.
         -2   -1    0    0    0  501 -0.00000000000E+00 -0.00000000000E+00 -0.20446727053E+01  0.20446727053E+01  0.00000000000E+00 0. -1.
        -13    1    1    2    0    0  0.47114690624E+01  0.88869680792E+01  0.28981602096E+02  0.30677506457E+02  0.00000000000E+00 0. -1.
         13    1    1    2    0    0 -0.47114690624E+01 -0.88869680792E+01  0.19939405302E+02  0.22332846351E+02  0.00000000000E+00 0.  1.
<mgrwt>
<rscale>  0 0.20416477E+02</rscale>
<asrwt>0</asrwt>
<pdfrwt beam="1">  1        2 0.78408729E-02 0.20416477E+02</pdfrwt>
<pdfrwt beam="2">  1       -2 0.31456507E-03 0.20416477E+02</pdfrwt>
<totfact> 0.44374050E+06</totfact>
</mgrwt>
</event>
<event>
 4    1  0.4118611E+000  0.2531458E+02  0.7546771E-02  0.1656524E+00
         -2   -1    0    0    0  501 -0.00000000000E+00  0.00000000000E+00  0.86633151430E+01  0.86633151430E+01  0.00000000000E+00 0.  1.
          2   -1    0    0  501    0  0.00000000000E+00 -0.00000000000E+00 -0.18492573554E+02  0.18492573554E+02  0.00000000000E+00 0. -1.
        -13    1    1    2    0    0  0.73814330117E+01 -0.88207591709E+01 -0.10582463416E+02  0.15629455448E+02  0.00000000000E+00 0. -1.
         13    1    1    2    0    0 -0.73814330117E+01  0.88207591709E+01  0.75320500488E+00  0.11526433249E+02  0.00000000000E+00 0.  1.
<mgrwt>
<rscale>  0 0.25314580E+02</rscale>
<asrwt>0</asrwt>
<pdfrwt beam="2">  1        2 0.28450113E-02 0.25314580E+02</pdfrwt>
<pdfrwt beam="1">  1       -2 0.13328177E-02 0.25314580E+02</pdfrwt>
<totfact> 0.24026114E+06</totfact>
</mgrwt>
</event>
<event>
 4    1  0.4118611E+000  0.3297104E+02  0.7546771E-02  0.1567393E+00
          2   -1    0    0  501    0  0.00000000000E+00  0.00000000000E+00  0.13976807237E+02  0.13976807237E+02  0.00000000000E+00 0. -1.
         -2   -1    0    0    0  501 -0.00000000000E+00 -0.00000000000E+00 -0.19444529312E+02  0.19444529312E+02  0.00000000000E+00 0.  1.
        -11    1    1    2    0    0 -0.11503426779E+02  0.42212166177E+00  0.92283859520E+01  0.14753647740E+02  0.00000000000E+00 0. -1.
         11    1    1    2    0    0  0.11503426779E+02 -0.42212166177E+00 -0.14696108027E+02  0.18667688809E+02  0.00000000000E+00 0.  1.
<mgrwt>
<rscale>  0 0.32971044E+02</rscale>
<asrwt>0</asrwt>
<pdfrwt beam="1">  1        2 0.21502780E-02 0.32971044E+02</pdfrwt>
<pdfrwt beam="2">  1       -2 0.29914661E-02 0.32971044E+02</pdfrwt>
<totfact> 0.12303556E+06</totfact>
</mgrwt>
</event>
<event>
 4    1  0.4118611E+000  0.1527814E+03  0.7546771E-02  0.1197096E+00
         -4   -1    0    0    0  501 -0.00000000000E+00  0.00000000000E+00  0.27754757663E+03  0.27754757663E+03  0.00000000000E+00 0.  1.
          4   -1    0    0  501    0  0.00000000000E+00 -0.00000000000E+00 -0.21025365465E+02  0.21025365465E+02  0.00000000000E+00 0. -1.
        -11    1    1    2    0    0  0.60132646633E+02  0.15982152074E+02  0.21487150253E+03  0.22369874156E+03  0.00000000000E+00 0.  1.
         11    1    1    2    0    0 -0.60132646633E+02 -0.15982152074E+02  0.41650708636E+02  0.74874200536E+02  0.00000000000E+00 0. -1.
<mgrwt>
<rscale>  0 0.15278140E+03</rscale>
<asrwt>0</asrwt>
<pdfrwt beam="2">  1        4 0.32346718E-02 0.15278140E+03</pdfrwt>
<pdfrwt beam="1">  1       -4 0.42699625E-01 0.15278140E+03</pdfrwt>
<totfact> 0.43073347E+03</totfact>
</mgrwt>
</event>
<event>
 4    1  0.4118611E+000  0.4230548E+02  0.7546771E-02  0.1491900E+00
         -1   -1    0    0    0  501 -0.00000000000E+00  0.00000000000E+00  0.82832832125E+01  0.82832832125E+01  0.00000000000E+00 0.  1.
          1   -1    0    0  501    0  0.00000000000E+00 -0.00000000000E+00 -0.54017043246E+02  0.54017043246E+02  0.00000000000E+00 0. -1.
        -11    1    1    2    0    0 -0.13786794369E+02 -0.14618977295E+02 -0.32596081375E+02  0.38292227895E+02  0.00000000000E+00 0. -1.
         11    1    1    2    0    0  0.13786794369E+02  0.14618977295E+02 -0.13137678658E+02  0.24008098564E+02  0.00000000000E+00 0.  1.
<mgrwt>
<rscale>  0 0.42305483E+02</rscale>
<asrwt>0</asrwt>
<pdfrwt beam="2">  1        1 0.83103142E-02 0.42305483E+02</pdfrwt>
<pdfrwt beam="1">  1       -1 0.12743513E-02 0.42305483E+02</pdfrwt>
<totfact> 0.71607526E+05</totfact>
</mgrwt>
</event>
<event>
 4    1  0.4118611E+000  0.3687773E+02  0.7546771E-02  0.1532531E+00
         -2   -1    0    0    0  501 -0.00000000000E+00  0.00000000000E+00  0.13186036119E+02  0.13186036119E+02  0.00000000000E+00 0.  1.
          2   -1    0    0  501    0  0.00000000000E+00 -0.00000000000E+00 -0.25784228912E+02  0.25784228912E+02  0.00000000000E+00 0. -1.
        -11    1    1    2    0    0 -0.49445186525E+01  0.11781530579E+02  0.77495801212E+01  0.14943517643E+02  0.00000000000E+00 0.  1.
         11    1    1    2    0    0  0.49445186525E+01 -0.11781530579E+02 -0.20347772914E+02  0.24026747388E+02  0.00000000000E+00 0. -1.
<mgrwt>
<rscale>  0 0.36877732E+02</rscale>
<asrwt>0</asrwt>
<pdfrwt beam="2">  1        2 0.39668044E-02 0.36877732E+02</pdfrwt>
<pdfrwt beam="1">  1       -2 0.20286210E-02 0.36877732E+02</pdfrwt>
<totfact> 0.10002201E+06</totfact>
</mgrwt>
</event>
<event>
 4    1  0.4118611E+000  0.3364248E+02  0.7546771E-02  0.1560997E+00
         -4   -1    0    0    0  501 -0.00000000000E+00  0.00000000000E+00  0.74471245084E+01  0.74471245084E+01  0.00000000000E+00 0.  1.
          4   -1    0    0  501    0  0.00000000000E+00 -0.00000000000E+00 -0.37995091137E+02  0.37995091137E+02  0.00000000000E+00 0. -1.
        -13    1    1    2    0    0  0.15443408290E+02 -0.57075272196E+01 -0.10618448514E+02  0.19591482216E+02  0.00000000000E+00 0.  1.
         13    1    1    2    0    0 -0.15443408290E+02  0.57075272196E+01 -0.19929518115E+02  0.25850733430E+02  0.00000000000E+00 0. -1.
<mgrwt>
<rscale>  0 0.33642484E+02</rscale>
<asrwt>0</asrwt>
<pdfrwt beam="2">  1        4 0.58453987E-02 0.33642484E+02</pdfrwt>
<pdfrwt beam="1">  1       -4 0.11457115E-02 0.33642484E+02</pdfrwt>
<totfact> 0.37858772E+05</totfact>
</mgrwt>
</event>
<event>
 4    1  0.4118611E+000  0.5117279E+02  0.7546771E-02  0.1439117E+00
         -1   -1    0    0    0  501 -0.00000000000E+00  0.00000000000E+00  0.17932957036E+02  0.17932957036E+02  0.00000000000E+00 0. -1.
          1   -1    0    0  501    0  0.00000000000E+00 -0.00000000000E+00 -0.36506169211E+02  0.36506169211E+02  0.00000000000E+00 0.  1.
        -11    1    1    2    0    0  0.18032002749E+01  0.16382713396E+02  0.11533458565E+02  0.20116299260E+02  0.00000000000E+00 0. -1.
         11    1    1    2    0    0 -0.18032002749E+01 -0.16382713396E+02 -0.30106670739E+02  0.34322826987E+02  0.00000000000E+00 0.  1.
<mgrwt>
<rscale>  0 0.51172788E+02</rscale>
<asrwt>0</asrwt>
<pdfrwt beam="2">  1        1 0.56163336E-02 0.51172788E+02</pdfrwt>
<pdfrwt beam="1">  1       -1 0.27589165E-02 0.51172788E+02</pdfrwt>
<totfact> 0.42631681E+05</totfact>
</mgrwt>
</event>
<event>
 4    1  0.4118611E+000  0.3939953E+02  0.7546771E-02  0.1512677E+00
          2   -1    0    0  501    0  0.00000000000E+00  0.00000000000E+00  0.57343985195E+02  0.57343985195E+02  0.00000000000E+00 0.  1.
         -2   -1    0    0    0  501 -0.00000000000E+00 -0.00000000000E+00 -0.67675930983E+01  0.67675930983E+01  0.00000000000E+00 0. -1.
        -11    1    1    2    0    0 -0.38217739035E+01  0.15036020073E+02  0.45043499449E+02  0.47640368366E+02  0.00000000000E+00 0.  1.
         11    1    1    2    0    0  0.38217739035E+01 -0.15036020073E+02  0.55328926473E+01  0.16471209927E+02  0.00000000000E+00 0. -1.
<mgrwt>
<rscale>  0 0.39399531E+02</rscale>
<asrwt>0</asrwt>
<pdfrwt beam="1">  1        2 0.88221512E-02 0.39399531E+02</pdfrwt>
<pdfrwt beam="2">  1       -2 0.10411682E-02 0.39399531E+02</pdfrwt>
<totfact> 0.96044947E+05</totfact>
</mgrwt>
</event>
<event>
 4    1  0.4118611E+000  0.2305151E+02  0.7546771E-02  0.1690677E+00
         -2   -1    0    0    0  501 -0.00000000000E+00  0.00000000000E+00  0.30773234620E+01  0.30773234620E+01  0.00000000000E+00 0. -1.
          2   -1    0    0  501    0  0.00000000000E+00 -0.00000000000E+00 -0.43168355171E+02  0.43168355171E+02  0.00000000000E+00 0.  1.
        -11    1    1    2    0    0 -0.54703462074E+01  0.91873146962E+01 -0.11413876893E+02  0.15639949638E+02  0.00000000000E+00 0.  1.
         11    1    1    2    0    0  0.54703462074E+01 -0.91873146962E+01 -0.28677154816E+02  0.30605728995E+02  0.00000000000E+00 0. -1.
<mgrwt>
<rscale>  0 0.23051507E+02</rscale>
<asrwt>0</asrwt>
<pdfrwt beam="2">  1        2 0.66412855E-02 0.23051507E+02</pdfrwt>
<pdfrwt beam="1">  1       -2 0.47343437E-03 0.23051507E+02</pdfrwt>
<totfact> 0.32900818E+06</totfact>
</mgrwt>
</event>
<event>
 4    1  0.4118611E+000  0.2296549E+02  0.7546771E-02  0.1692070E+00
          3   -1    0    0  501    0  0.00000000000E+00  0.00000000000E+00  0.21481696442E+02  0.21481696442E+02  0.00000000000E+00 0. -1.
         -3   -1    0    0    0  501 -0.00000000000E+00 -0.00000000000E+00 -0.61379408446E+01  0.61379408446E+01  0.00000000000E+00 0.  1.
        -11    1    1    2    0    0 -0.10102022502E+02 -0.76252911751E+00  0.14173031232E+02  0.17421455840E+02  0.00000000000E+00 0. -1.
         11    1    1    2    0    0  0.10102022502E+02  0.76252911751E+00  0.11707243660E+01  0.10198181447E+02  0.00000000000E+00 0.  1.
<mgrwt>
<rscale>  0 0.22965486E+02</rscale>
<asrwt>0</asrwt>
<pdfrwt beam="1">  1        3 0.33048763E-02 0.22965486E+02</pdfrwt>
<pdfrwt beam="2">  1       -3 0.94429860E-03 0.22965486E+02</pdfrwt>
<totfact> 0.12861749E+06</totfact>
</mgrwt>
</event>
<event>
 4    1  0.4118611E+000  0.3023095E+02  0.7546771E-02  0.1595550E+00
         -2   -1    0    0    0  501 -0.00000000000E+00  0.00000000000E+00  0.15643856767E+02  0.15643856767E+02  0.00000000000E+00 0. -1.
          2   -1    0    0  501    0  0.00000000000E+00 -0.00000000000E+00 -0.14604942830E+02  0.14604942830E+02  0.00000000000E+00 0.  1.
        -13    1    1    2    0    0  0.26112419237E+01  0.10210782358E+02 -0.10322020004E+02  0.14752042493E+02  0.00000000000E+00 0.  1.
         13    1    1    2    0    0 -0.26112419237E+01 -0.10210782358E+02  0.11360933941E+02  0.15496757104E+02  0.00000000000E+00 0. -1.
<mgrwt>
<rscale>  0 0.30230953E+02</rscale>
<asrwt>0</asrwt>
<pdfrwt beam="2">  1        2 0.22469143E-02 0.30230953E+02</pdfrwt>
<pdfrwt beam="1">  1       -2 0.24067472E-02 0.30230953E+02</pdfrwt>
<totfact> 0.15322466E+06</totfact>
</mgrwt>
</event>
<event>
 4    1  0.4118611E+000  0.4315947E+02  0.7546771E-02  0.1486170E+00
          1   -1    0    0  501    0  0.00000000000E+00  0.00000000000E+00  0.46392283681E+01  0.46392283681E+01  0.00000000000E+00 0. -1.
         -1   -1    0    0    0  501 -0.00000000000E+00 -0.00000000000E+00 -0.10037983545E+03  0.10037983545E+03  0.00000000000E+00 0.  1.
        -11    1    1    2    0    0 -0.21356103351E+02  0.16415619863E+01 -0.41475311133E+02  0.46679538447E+02  0.00000000000E+00 0. -1.
         11    1    1    2    0    0  0.21356103351E+02 -0.16415619863E+01 -0.54265295953E+02  0.58339525375E+02  0.00000000000E+00 0.  1.
<mgrwt>
<rscale>  0 0.43159471E+02</rscale>
<asrwt>0</asrwt>
<pdfrwt beam="1">  1        1 0.71372742E-03 0.43159471E+02</pdfrwt>
<pdfrwt beam="2">  1       -1 0.15443052E-01 0.43159471E+02</pdfrwt>
<totfact> 0.53384781E+05</totfact>
</mgrwt>
</event>
<event>
 4    1  0.4118611E+000  0.2567243E+02  0.7546771E-02  0.1651527E+00
          2   -1    0    0  501    0  0.00000000000E+00  0.00000000000E+00  0.12618670354E+03  0.12618670354E+03  0.00000000000E+00 0. -1.
         -2   -1    0    0    0  501 -0.00000000000E+00 -0.00000000000E+00 -0.13057511184E+01  0.13057511184E+01  0.00000000000E+00 0.  1.
        -13    1    1    2    0    0 -0.11499687151E+02 -0.54707365675E+01  0.70442973591E+02  0.71584804893E+02  0.00000000000E+00 0.  1.
         13    1    1    2    0    0  0.11499687151E+02  0.54707365675E+01  0.54437978830E+02  0.55907649765E+02  0.00000000000E+00 0. -1.
<mgrwt>
<rscale>  0 0.25672431E+02</rscale>
<asrwt>0</asrwt>
<pdfrwt beam="1">  1        2 0.19413329E-01 0.25672431E+02</pdfrwt>
<pdfrwt beam="2">  1       -2 0.20088489E-03 0.25672431E+02</pdfrwt>
<totfact> 0.31832760E+06</totfact>
</mgrwt>
</event>
<event>
 4    1  0.4118611E+000  0.3965149E+02  0.7546771E-02  0.1510792E+00
          2   -1    0    0  501    0  0.00000000000E+00  0.00000000000E+00  0.12290252462E+03  0.12290252462E+03  0.00000000000E+00 0.  1.
         -2   -1    0    0    0  501 -0.00000000000E+00 -0.00000000000E+00 -0.31981463675E+01  0.31981463675E+01  0.00000000000E+00 0. -1.
        -13    1    1    2    0    0  0.92364006497E+01  0.14559998990E+02  0.28732165957E+02  0.33508835075E+02  0.00000000000E+00 0. -1.
         13    1    1    2    0    0 -0.92364006497E+01 -0.14559998990E+02  0.90972212297E+02  0.92591835913E+02  0.00000000000E+00 0.  1.
<mgrwt>
<rscale>  0 0.39651495E+02</rscale>
<asrwt>0</asrwt>
<pdfrwt beam="1">  1        2 0.18908077E-01 0.39651495E+02</pdfrwt>
<pdfrwt beam="2">  1       -2 0.49202261E-03 0.39651495E+02</pdfrwt>
<totfact> 0.11268416E+06</totfact>
</mgrwt>
</event>
<event>
 4    1  0.4118611E+000  0.2519712E+02  0.7546771E-02  0.1658187E+00
          2   -1    0    0  501    0  0.00000000000E+00  0.00000000000E+00  0.28666162211E+02  0.28666162211E+02  0.00000000000E+00 0. -1.
         -2   -1    0    0    0  501 -0.00000000000E+00 -0.00000000000E+00 -0.55369710884E+01  0.55369710884E+01  0.00000000000E+00 0.  1.
        -11    1    1    2    0    0 -0.72124162735E+01 -0.10329259389E+02  0.11708016466E+02  0.17198552195E+02  0.00000000000E+00 0.  1.
         11    1    1    2    0    0  0.72124162735E+01  0.10329259389E+02  0.11421174656E+02  0.17004581105E+02  0.00000000000E+00 0. -1.
<mgrwt>
<rscale>  0 0.25197120E+02</rscale>
<asrwt>0</asrwt>
<pdfrwt beam="1">  1        2 0.44101787E-02 0.25197120E+02</pdfrwt>
<pdfrwt beam="2">  1       -2 0.85184172E-03 0.25197120E+02</pdfrwt>
<totfact> 0.25423581E+06</totfact>
</mgrwt>
</event>
<event>
 4    1  0.4118611E+000  0.2207078E+02  0.7546771E-02  0.1707031E+00
          2   -1    0    0  501    0  0.00000000000E+00  0.00000000000E+00  0.22326838045E+01  0.22326838045E+01  0.00000000000E+00 0. -1.
         -2   -1    0    0    0  501 -0.00000000000E+00 -0.00000000000E+00 -0.54544133608E+02  0.54544133608E+02  0.00000000000E+00 0.  1.
        -11    1    1    2    0    0 -0.33869376668E+01 -0.10483488797E+02 -0.24518765802E+02  0.26880192718E+02  0.00000000000E+00 0. -1.
         11    1    1    2    0    0  0.33869376668E+01  0.10483488797E+02 -0.27792684002E+02  0.29896624695E+02  0.00000000000E+00 0.  1.
<mgrwt>
<rscale>  0 0.22070777E+02</rscale>
<asrwt>0</asrwt>
<pdfrwt beam="1">  1        2 0.34348984E-03 0.22070777E+02</pdfrwt>
<pdfrwt beam="2">  1       -2 0.83914046E-02 0.22070777E+02</pdfrwt>
<totfact> 0.26932622E+06</totfact>
</mgrwt>
</event>
<event>
 4    1  0.4118611E+000  0.3209624E+02  0.7546771E-02  0.1576010E+00
         -1   -1    0    0    0  501 -0.00000000000E+00  0.00000000000E+00  0.74612081029E+01  0.74612081029E+01  0.00000000000E+00 0.  1.
          1   -1    0    0  501    0  0.00000000000E+00 -0.00000000000E+00 -0.34517489958E+02  0.34517489958E+02  0.00000000000E+00 0. -1.
        -13    1    1    2    0    0  0.44523979442E+01  0.15377108387E+02 -0.14997924608E+02  0.21936660009E+02  0.00000000000E+00 0. -1.
         13    1    1    2    0    0 -0.44523979442E+01 -0.15377108387E+02 -0.12058357247E+02  0.20042038052E+02  0.00000000000E+00 0.  1.
<mgrwt>
<rscale>  0 0.32096241E+02</rscale>
<asrwt>0</asrwt>
<pdfrwt beam="2">  1        1 0.53103831E-02 0.32096241E+02</pdfrwt>
<pdfrwt beam="1">  1       -1 0.11478782E-02 0.32096241E+02</pdfrwt>
<totfact> 0.13590109E+06</totfact>
</mgrwt>
</event>
<event>
 4    1  0.4118611E+000  0.2409156E+02  0.7546771E-02  0.1674404E+00
         -1   -1    0    0    0  501 -0.00000000000E+00  0.00000000000E+00  0.70355160110E+01  0.70355160110E+01  0.00000000000E+00 0. -1.
          1   -1    0    0  501    0  0.00000000000E+00 -0.00000000000E+00 -0.20624041477E+02  0.20624041477E+02  0.00000000000E+00 0.  1.
        -11    1    1    2    0    0 -0.10262848844E+02  0.63559319391E+00  0.40962764031E+00  0.10290667613E+02  0.00000000000E+00 0. -1.
         11    1    1    2    0    0  0.10262848844E+02 -0.63559319391E+00 -0.13998153106E+02  0.17368889875E+02  0.00000000000E+00 0.  1.
<mgrwt>
<rscale>  0 0.24091557E+02</rscale>
<asrwt>0</asrwt>
<pdfrwt beam="2">  1        1 0.31729294E-02 0.24091557E+02</pdfrwt>
<pdfrwt beam="1">  1       -1 0.10823871E-02 0.24091557E+02</pdfrwt>
<totfact> 0.26003142E+06</totfact>
</mgrwt>
</event>
<event>
 4    1  0.4118611E+000  0.3323686E+02  0.7546771E-02  0.1564839E+00
         -2   -1    0    0    0  501 -0.00000000000E+00  0.00000000000E+00  0.21011331583E+02  0.21011331583E+02  0.00000000000E+00 0.  1.
          2   -1    0    0  501    0  0.00000000000E+00 -0.00000000000E+00 -0.13143961608E+02  0.13143961608E+02  0.00000000000E+00 0. -1.
        -11    1    1    2    0    0 -0.12062373096E+02  0.27516305942E+01  0.15335311271E+02  0.19703910460E+02  0.00000000000E+00 0.  1.
         11    1    1    2    0    0  0.12062373096E+02 -0.27516305942E+01 -0.74679412962E+01  0.14451382731E+02  0.00000000000E+00 0. -1.
<mgrwt>
<rscale>  0 0.33236855E+02</rscale>
<asrwt>0</asrwt>
<pdfrwt beam="2">  1        2 0.20221479E-02 0.33236855E+02</pdfrwt>
<pdfrwt beam="1">  1       -2 0.32325126E-02 0.33236855E+02</pdfrwt>
<totfact> 0.11976796E+06</totfact>
</mgrwt>
</event>
<event>
 4    1  0.4118611E+000  0.2307493E+02  0.7546771E-02  0.1690298E+00
         -2   -1    0    0    0  501 -0.00000000000E+00  0.00000000000E+00  0.57080533532E+02  0.57080533532E+02  0.00000000000E+00 0. -1.
          2   -1    0    0  501    0  0.00000000000E+00 -0.00000000000E+00 -0.23320234264E+01  0.23320234264E+01  0.00000000000E+00 0.  1.
        -13    1    1    2    0    0  0.30732729468E+01  0.10429649746E+02  0.37309830362E+02  0.38861884180E+02  0.00000000000E+00 0. -1.
         13    1    1    2    0    0 -0.30732729468E+01 -0.10429649746E+02  0.17438679744E+02  0.20550672778E+02  0.00000000000E+00 0.  1.
<mgrwt>
<rscale>  0 0.23074934E+02</rscale>
<asrwt>0</asrwt>
<pdfrwt beam="2">  1        2 0.35877288E-03 0.23074934E+02</pdfrwt>
<pdfrwt beam="1">  1       -2 0.87816195E-02 0.23074934E+02</pdfrwt>
<totfact> 0.24219748E+06</totfact>
</mgrwt>
</event>
<event>
 4    1  0.4118611E+000  0.2050824E+02  0.7546771E-02  0.1735406E+00
          1   -1    0    0  501    0  0.00000000000E+00  0.00000000000E+00  0.19988604066E+02  0.19988604066E+02  0.00000000000E+00 0. -1.
         -1   -1    0    0    0  501 -0.00000000000E+00 -0.00000000000E+00 -0.52603465368E+01  0.52603465368E+01  0.00000000000E+00 0.  1.
        -13    1    1    2    0    0 -0.71319136566E+01  0.73437527517E+01  0.66335953243E+01  0.12198339387E+02  0.00000000000E+00 0.  1.
         13    1    1    2    0    0  0.71319136566E+01 -0.73437527517E+01  0.80946622046E+01  0.13050611215E+02  0.00000000000E+00 0. -1.
<mgrwt>
<rscale>  0 0.20508241E+02</rscale>
<asrwt>0</asrwt>
<pdfrwt beam="1">  1        1 0.30751698E-02 0.20508241E+02</pdfrwt>
<pdfrwt beam="2">  1       -1 0.80928409E-03 0.20508241E+02</pdfrwt>
<totfact> 0.37525154E+06</totfact>
</mgrwt>
</event>
<event>
 4    1  0.4118611E+000  0.2348956E+02  0.7546771E-02  0.1683695E+00
         -1   -1    0    0    0  501 -0.00000000000E+00  0.00000000000E+00  0.42404830968E+02  0.42404830968E+02  0.00000000000E+00 0.  1.
          1   -1    0    0  501    0  0.00000000000E+00 -0.00000000000E+00 -0.32529282294E+01  0.32529282294E+01  0.00000000000E+00 0. -1.
        -11    1    1    2    0    0 -0.24206666979E+01  0.10716722477E+02  0.11507153430E+02  0.15909819231E+02  0.00000000000E+00 0. -1.
         11    1    1    2    0    0  0.24206666979E+01 -0.10716722477E+02  0.27644749309E+02  0.29747939966E+02  0.00000000000E+00 0.  1.
<mgrwt>
<rscale>  0 0.23489561E+02</rscale>
<asrwt>0</asrwt>
<pdfrwt beam="2">  1        1 0.50045052E-03 0.23489561E+02</pdfrwt>
<pdfrwt beam="1">  1       -1 0.65238198E-02 0.23489561E+02</pdfrwt>
<totfact> 0.24795871E+06</totfact>
</mgrwt>
</event>
<event>
 4    1  0.4118611E+000  0.2588387E+02  0.7546771E-02  0.1648622E+00
         -2   -1    0    0    0  501 -0.00000000000E+00  0.00000000000E+00  0.11986006296E+01  0.11986006296E+01  0.00000000000E+00 0.  1.
          2   -1    0    0  501    0  0.00000000000E+00 -0.00000000000E+00 -0.13974098219E+03  0.13974098219E+03  0.00000000000E+00 0. -1.
        -13    1    1    2    0    0  0.27524185494E+01 -0.12622155113E+02 -0.65056894110E+02  0.66327174513E+02  0.00000000000E+00 0. -1.
         13    1    1    2    0    0 -0.27524185494E+01  0.12622155113E+02 -0.73485487452E+02  0.74612408309E+02  0.00000000000E+00 0.  1.
<mgrwt>
<rscale>  0 0.25883866E+02</rscale>
<asrwt>0</asrwt>
<pdfrwt beam="2">  1        2 0.21498596E-01 0.25883866E+02</pdfrwt>
<pdfrwt beam="1">  1       -2 0.18440024E-03 0.25883866E+02</pdfrwt>
<totfact> 0.32107330E+06</totfact>
</mgrwt>
</event>
<event>
 4    1  0.4118611E+000  0.2724021E+02  0.7546771E-02  0.1630764E+00
         -2   -1    0    0    0  501 -0.00000000000E+00  0.00000000000E+00  0.68294909204E+01  0.68294909204E+01  0.00000000000E+00 0.  1.
          2   -1    0    0  501    0  0.00000000000E+00 -0.00000000000E+00 -0.27162682196E+02  0.27162682196E+02  0.00000000000E+00 0. -1.
        -13    1    1    2    0    0 -0.13547147982E+02  0.12514853534E+01 -0.93618833170E+01  0.16514729586E+02  0.00000000000E+00 0. -1.
         13    1    1    2    0    0  0.13547147982E+02 -0.12514853534E+01 -0.10971307958E+02  0.17477443530E+02  0.00000000000E+00 0.  1.
<mgrwt>
<rscale>  0 0.27240212E+02</rscale>
<asrwt>0</asrwt>
<pdfrwt beam="2">  1        2 0.41788742E-02 0.27240212E+02</pdfrwt>
<pdfrwt beam="1">  1       -2 0.10506909E-02 0.27240212E+02</pdfrwt>
<totfact> 0.21030180E+06</totfact>
</mgrwt>
</event>
<event>
 4    1  0.4118611E+000  0.3009741E+02  0.7546771E-02  0.1597014E+00
         -2   -1    0    0    0  501 -0.00000000000E+00  0.00000000000E+00  0.18028576528E+02  0.18028576528E+02  0.00000000000E+00 0. -1.
          2   -1    0    0  501    0  0.00000000000E+00 -0.00000000000E+00 -0.12561365698E+02  0.12561365698E+02  0.00000000000E+00 0.  1.
        -13    1    1    2    0    0 -0.11154305629E+02 -0.31845078844E+01  0.12477139894E+02  0.17036391768E+02  0.00000000000E+00 0. -1.
         13    1    1    2    0    0  0.11154305629E+02  0.31845078844E+01 -0.70099290642E+01  0.13553550458E+02  0.00000000000E+00 0.  1.
<mgrwt>
<rscale>  0 0.30097411E+02</rscale>
<asrwt>0</asrwt>
<pdfrwt beam="2">  1        2 0.19325178E-02 0.30097411E+02</pdfrwt>
<pdfrwt beam="1">  1       -2 0.27736272E-02 0.30097411E+02</pdfrwt>
<totfact> 0.15252443E+06</totfact>
</mgrwt>
</event>
<event>
 4    1  0.4118611E+000  0.2680099E+02  0.7546771E-02  0.1636404E+00
         -1   -1    0    0    0  501 -0.00000000000E+00  0.00000000000E+00  0.24585103943E+02  0.24585103943E+02  0.00000000000E+00 0.  1.
          1   -1    0    0  501    0  0.00000000000E+00 -0.00000000000E+00 -0.73041509034E+01  0.73041509034E+01  0.00000000000E+00 0. -1.
        -13    1    1    2    0    0 -0.13323576015E+02 -0.15742738949E+00  0.10336110797E+02  0.16863500456E+02  0.00000000000E+00 0. -1.
         13    1    1    2    0    0  0.13323576015E+02  0.15742738949E+00  0.69448422422E+01  0.15025754390E+02  0.00000000000E+00 0.  1.
<mgrwt>
<rscale>  0 0.26800993E+02</rscale>
<asrwt>0</asrwt>
<pdfrwt beam="2">  1        1 0.11237155E-02 0.26800993E+02</pdfrwt>
<pdfrwt beam="1">  1       -1 0.37823236E-02 0.26800993E+02</pdfrwt>
<totfact> 0.19144554E+06</totfact>
</mgrwt>
</event>
<event>
 4    1  0.4118611E+000  0.2317296E+02  0.7546771E-02  0.1688722E+00
         -2   -1    0    0    0  501 -0.00000000000E+00  0.00000000000E+00  0.18925087633E+02  0.18925087633E+02  0.00000000000E+00 0.  1.
          2   -1    0    0  501    0  0.00000000000E+00 -0.00000000000E+00 -0.70935719857E+01  0.70935719857E+01  0.00000000000E+00 0. -1.
        -11    1    1    2    0    0  0.50231110122E+01  0.98519077225E+01  0.20335965042E+01  0.11243987049E+02  0.00000000000E+00 0. -1.
         11    1    1    2    0    0 -0.50231110122E+01 -0.98519077225E+01  0.97979191435E+01  0.14774672570E+02  0.00000000000E+00 0.  1.
<mgrwt>
<rscale>  0 0.23172956E+02</rscale>
<asrwt>0</asrwt>
<pdfrwt beam="2">  1        2 0.10913188E-02 0.23172956E+02</pdfrwt>
<pdfrwt beam="1">  1       -2 0.29115519E-02 0.23172956E+02</pdfrwt>
<totfact> 0.27236260E+06</totfact>
</mgrwt>
</event>
<event>
 4    1  0.4118611E+000  0.7583279E+02  0.7546771E-02  0.1341311E+00
          2   -1    0    0  501    0  0.00000000000E+00  0.00000000000E+00  0.53873252960E+02  0.53873252960E+02  0.00000000000E+00 0.  1.
         -2   -1    0    0    0  501 -0.00000000000E+00 -0.00000000000E+00 -0.26685842021E+02  0.26685842021E+02  0.00000000000E+00 0. -1.
        -11    1    1    2    0    0  0.11771215070E+02  0.17524406805E+02  0.47052513860E+02  0.51571362195E+02  0.00000000000E+00 0.  1.
         11    1    1    2    0    0 -0.11771215070E+02 -0.17524406805E+02 -0.19865102920E+02  0.28987732787E+02  0.00000000000E+00 0. -1.
<mgrwt>
<rscale>  0 0.75832793E+02</rscale>
<asrwt>0</asrwt>
<pdfrwt beam="1">  1        2 0.82881927E-02 0.75832793E+02</pdfrwt>
<pdfrwt beam="2">  1       -2 0.41055142E-02 0.75832793E+02</pdfrwt>
<totfact> 0.17236986E+05</totfact>
</mgrwt>
</event>
<event>
 4    1  0.4118611E+000  0.2879015E+02  0.7546771E-02  0.1611860E+00
          2   -1    0    0  501    0  0.00000000000E+00  0.00000000000E+00  0.62860820146E+02  0.62860820146E+02  0.00000000000E+00 0.  1.
         -2   -1    0    0    0  501 -0.00000000000E+00 -0.00000000000E+00 -0.32964594591E+01  0.32964594591E+01  0.00000000000E+00 0. -1.
        -13    1    1    2    0    0  0.87987149206E+01  0.62997876287E+01  0.51595839787E+02  0.52718453996E+02  0.00000000000E+00 0.  1.
         13    1    1    2    0    0 -0.87987149206E+01 -0.62997876287E+01  0.79685209004E+01  0.13438825609E+02  0.00000000000E+00 0. -1.
<mgrwt>
<rscale>  0 0.28790147E+02</rscale>
<asrwt>0</asrwt>
<pdfrwt beam="1">  1        2 0.96708945E-02 0.28790147E+02</pdfrwt>
<pdfrwt beam="2">  1       -2 0.50714766E-03 0.28790147E+02</pdfrwt>
<totfact> 0.20863067E+06</totfact>
</mgrwt>
</event>
<event>
 4    1  0.4118611E+000  0.2162962E+02  0.7546771E-02  0.1714737E+00
         -2   -1    0    0    0  501 -0.00000000000E+00  0.00000000000E+00  0.20137321327E+01  0.20137321327E+01  0.00000000000E+00 0. -1.
          2   -1    0    0  501    0  0.00000000000E+00 -0.00000000000E+00 -0.58081288297E+02  0.58081288297E+02  0.00000000000E+00 0.  1.
        -11    1    1    2    0    0 -0.43231973569E+01 -0.97999768474E+01 -0.32183298747E+02  0.33918937186E+02  0.00000000000E+00 0.  1.
         11    1    1    2    0    0  0.43231973569E+01  0.97999768474E+01 -0.23884257417E+02  0.26176083243E+02  0.00000000000E+00 0. -1.
<mgrwt>
<rscale>  0 0.21629624E+02</rscale>
<asrwt>0</asrwt>
<pdfrwt beam="2">  1        2 0.89355827E-02 0.21629624E+02</pdfrwt>
<pdfrwt beam="1">  1       -2 0.30980495E-03 0.21629624E+02</pdfrwt>
<totfact> 0.39804541E+06</totfact>
</mgrwt>
</event>
<event>
 4    1  0.4118611E+000  0.3023022E+02  0.7546771E-02  0.1595558E+00
         -4   -1    0    0    0  501 -0.00000000000E+00  0.00000000000E+00  0.28032599220E+02  0.28032599220E+02  0.00000000000E+00 0. -1.
          4   -1    0    0  501    0  0.00000000000E+00 -0.00000000000E+00 -0.81500299687E+01  0.81500299687E+01  0.00000000000E+00 0.  1.
        -11    1    1    2    0    0  0.11471505639E+02  0.31028398101E-01  0.21721514260E+02  0.24564620619E+02  0.00000000000E+00 0. -1.
         11    1    1    2    0    0 -0.11471505639E+02 -0.31028398101E-01 -0.18389450089E+01  0.11618008570E+02  0.00000000000E+00 0.  1.
<mgrwt>
<rscale>  0 0.30230218E+02</rscale>
<asrwt>0</asrwt>
<pdfrwt beam="2">  1        4 0.12538508E-02 0.30230218E+02</pdfrwt>
<pdfrwt beam="1">  1       -4 0.43127075E-02 0.30230218E+02</pdfrwt>
<totfact> 0.49959612E+05</totfact>
</mgrwt>
</event>
<event>
 4    1  0.4118611E+000  0.3157808E+02  0.7546771E-02  0.1581273E+00
          1   -1    0    0  501    0  0.00000000000E+00  0.00000000000E+00  0.12038378412E+02  0.12038378412E+02  0.00000000000E+00 0. -1.
         -1   -1    0    0    0  501 -0.00000000000E+00 -0.00000000000E+00 -0.20708248003E+02  0.20708248003E+02  0.00000000000E+00 0.  1.
        -11    1    1    2    0    0 -0.10591128613E+02 -0.75061952653E+01 -0.13655225704E+02  0.18840917219E+02  0.00000000000E+00 0. -1.
         11    1    1    2    0    0  0.10591128613E+02  0.75061952653E+01  0.49853561126E+01  0.13905709195E+02  0.00000000000E+00 0.  1.
<mgrwt>
<rscale>  0 0.31578076E+02</rscale>
<asrwt>0</asrwt>
<pdfrwt beam="1">  1        1 0.18520582E-02 0.31578076E+02</pdfrwt>
<pdfrwt beam="2">  1       -1 0.31858843E-02 0.31578076E+02</pdfrwt>
<totfact> 0.13246725E+06</totfact>
</mgrwt>
</event>
<event>
 4    1  0.4118611E+000  0.3720288E+02  0.7546771E-02  0.1529866E+00
          2   -1    0    0  501    0  0.00000000000E+00  0.00000000000E+00  0.20991306741E+01  0.20991306741E+01  0.00000000000E+00 0. -1.
         -2   -1    0    0    0  501 -0.00000000000E+00 -0.00000000000E+00 -0.16483659946E+03  0.16483659946E+03  0.00000000000E+00 0.  1.
        -13    1    1    2    0    0  0.15828412853E+02 -0.88187530072E+01 -0.10024928382E+03  0.10187358816E+03  0.00000000000E+00 0. -1.
         13    1    1    2    0    0 -0.15828412853E+02  0.88187530072E+01 -0.62488184970E+02  0.65062141979E+02  0.00000000000E+00 0.  1.
<mgrwt>
<rscale>  0 0.37202880E+02</rscale>
<asrwt>0</asrwt>
<pdfrwt beam="1">  1        2 0.32294304E-03 0.37202880E+02</pdfrwt>
<pdfrwt beam="2">  1       -2 0.25359488E-01 0.37202880E+02</pdfrwt>
<totfact> 0.62082303E+05</totfact>
</mgrwt>
</event>
<event>
 4    1  0.4118611E+000  0.5629940E+02  0.7546771E-02  0.1414052E+00
          2   -1    0    0  501    0  0.00000000000E+00  0.00000000000E+00  0.11749327007E+03  0.11749327007E+03  0.00000000000E+00 0. -1.
         -2   -1    0    0    0  501 -0.00000000000E+00 -0.00000000000E+00 -0.67442635804E+01  0.67442635804E+01  0.00000000000E+00 0.  1.
        -13    1    1    2    0    0  0.26165820311E+02  0.74297647826E+01  0.39377005630E+02  0.47858125012E+02  0.00000000000E+00 0.  1.
         13    1    1    2    0    0 -0.26165820311E+02 -0.74297647826E+01  0.71372000858E+02  0.76379408637E+02  0.00000000000E+00 0. -1.
<mgrwt>
<rscale>  0 0.56299399E+02</rscale>
<asrwt>0</asrwt>
<pdfrwt beam="1">  1        2 0.18075886E-01 0.56299399E+02</pdfrwt>
<pdfrwt beam="2">  1       -2 0.10375791E-02 0.56299399E+02</pdfrwt>
<totfact> 0.46229830E+05</totfact>
</mgrwt>
</event>
<event>
 4    1  0.4118611E+000  0.2060703E+02  0.7546771E-02  0.1733519E+00
          2   -1    0    0  501    0  0.00000000000E+00  0.00000000000E+00  0.66937011037E+02  0.66937011037E+02  0.00000000000E+00 0.  1.
         -2   -1    0    0    0  501 -0.00000000000E+00 -0.00000000000E+00 -0.15860044639E+01  0.15860044639E+01  0.00000000000E+00 0. -1.
        -11    1    1    2    0    0 -0.97355890339E+01 -0.32916691124E+01  0.35131715137E+02  0.36604018740E+02  0.00000000000E+00 0. -1.
         11    1    1    2    0    0  0.97355890339E+01  0.32916691124E+01  0.30219291436E+02  0.31918996761E+02  0.00000000000E+00 0.  1.
<mgrwt>
<rscale>  0 0.20607028E+02</rscale>
<asrwt>0</asrwt>
<pdfrwt beam="1">  1        2 0.10297999E-01 0.20607028E+02</pdfrwt>
<pdfrwt beam="2">  1       -2 0.24400074E-03 0.20607028E+02</pdfrwt>
<totfact> 0.45489509E+06</totfact>
</mgrwt>
</event>
<event>
 4    1  0.4118611E+000  0.5278568E+02  0.7546771E-02  0.1430870E+00
          1   -1    0    0  501    0  0.00000000000E+00  0.00000000000E+00  0.12359622924E+02  0.12359622924E+02  0.00000000000E+00 0. -1.
         -1   -1    0    0    0  501 -0.00000000000E+00 -0.00000000000E+00 -0.56359496904E+02  0.56359496904E+02  0.00000000000E+00 0.  1.
        -13    1    1    2    0    0  0.86181519778E+01 -0.24917804245E+02 -0.20452639605E+02  0.33368847429E+02  0.00000000000E+00 0. -1.
         13    1    1    2    0    0 -0.86181519778E+01  0.24917804245E+02 -0.23547234376E+02  0.35350272399E+02  0.00000000000E+00 0.  1.
<mgrwt>
<rscale>  0 0.52785685E+02</rscale>
<asrwt>0</asrwt>
<pdfrwt beam="1">  1        1 0.19014805E-02 0.52785685E+02</pdfrwt>
<pdfrwt beam="2">  1       -1 0.86706918E-02 0.52785685E+02</pdfrwt>
<totfact> 0.35270873E+05</totfact>
</mgrwt>
</event>
<event>
 4    1  0.4118611E+000  0.2155868E+02  0.7546771E-02  0.1715998E+00
         -2   -1    0    0    0  501 -0.00000000000E+00  0.00000000000E+00  0.10298251571E+01  0.10298251571E+01  0.00000000000E+00 0. -1.
          2   -1    0    0  501    0  0.00000000000E+00 -0.00000000000E+00 -0.11282900749E+03  0.11282900749E+03  0.00000000000E+00 0.  1.
        -13    1    1    2    0    0 -0.78822563190E+01  0.73163151513E+01 -0.52034027440E+02  0.53133778744E+02  0.00000000000E+00 0.  1.
         13    1    1    2    0    0  0.78822563190E+01 -0.73163151513E+01 -0.59765154892E+02  0.60725053901E+02  0.00000000000E+00 0. -1.
<mgrwt>
<rscale>  0 0.21558678E+02</rscale>
<asrwt>0</asrwt>
<pdfrwt beam="2">  1        2 0.17358300E-01 0.21558678E+02</pdfrwt>
<pdfrwt beam="1">  1       -2 0.15843472E-03 0.21558678E+02</pdfrwt>
<totfact> 0.45949375E+06</totfact>
</mgrwt>
</event>
<event>
 4    1  0.4118611E+000  0.2111006E+02  0.7546771E-02  0.1724113E+00
          2   -1    0    0  501    0  0.00000000000E+00  0.00000000000E+00  0.45906781585E+02  0.45906781585E+02  0.00000000000E+00 0.  1.
         -2   -1    0    0    0  501 -0.00000000000E+00 -0.00000000000E+00 -0.24268461332E+01  0.24268461332E+01  0.00000000000E+00 0. -1.
        -11    1    1    2    0    0  0.68331400891E+01  0.77845116175E+01  0.26386375291E+02  0.28346626353E+02  0.00000000000E+00 0. -1.
         11    1    1    2    0    0 -0.68331400891E+01 -0.77845116175E+01  0.17093560160E+02  0.19987001364E+02  0.00000000000E+00 0.  1.
<mgrwt>
<rscale>  0 0.21110064E+02</rscale>
<asrwt>0</asrwt>
<pdfrwt beam="1">  1        2 0.70625811E-02 0.21110064E+02</pdfrwt>
<pdfrwt beam="2">  1       -2 0.37336098E-03 0.21110064E+02</pdfrwt>
<totfact> 0.40531563E+06</totfact>
</mgrwt>
</event>
<event>
 4    1  0.4118611E+000  0.3641540E+02  0.7546771E-02  0.1536379E+00
          2   -1    0    0  501    0  0.00000000000E+00  0.00000000000E+00  0.15084444601E+03  0.15084444601E+03  0.00000000000E+00 0. -1.
         -2   -1    0    0    0  501 -0.00000000000E+00 -0.00000000000E+00 -0.21977635545E+01  0.21977635545E+01  0.00000000000E+00 0.  1.
        -13    1    1    2    0    0 -0.16210384236E+01 -0.17652862239E+02  0.91788041115E+02  0.93484200818E+02  0.00000000000E+00 0. -1.
         13    1    1    2    0    0  0.16210384236E+01  0.17652862239E+02  0.56858641337E+02  0.59558008743E+02  0.00000000000E+00 0.  1.
<mgrwt>
<rscale>  0 0.36415405E+02</rscale>
<asrwt>0</asrwt>
<pdfrwt beam="1">  1        2 0.23206830E-01 0.36415405E+02</pdfrwt>
<pdfrwt beam="2">  1       -2 0.33811759E-03 0.36415405E+02</pdfrwt>
<totfact> 0.14690839E+06</totfact>
</mgrwt>
</event>
<event>
 4    1  0.4118611E+000  0.3636816E+02  0.7546771E-02  0.1536776E+00
         -2   -1    0    0    0  501 -0.00000000000E+00  0.00000000000E+00  0.11658922709E+03  0.11658922709E+03  0.00000000000E+00 0. -1.
          2   -1    0    0  501    0  0.00000000000E+00 -0.00000000000E+00 -0.28361179800E+01  0.28361179800E+01  0.00000000000E+00 0.  1.
        -13    1    1    2    0    0 -0.11017926277E+02  0.12167652386E+02  0.82568780560E+02  0.84184618472E+02  0.00000000000E+00 0. -1.
         13    1    1    2    0    0  0.11017926277E+02 -0.12167652386E+02  0.31184328546E+02  0.35240726594E+02  0.00000000000E+00 0.  1.
<mgrwt>
<rscale>  0 0.36368162E+02</rscale>
<asrwt>0</asrwt>
<pdfrwt beam="2">  1        2 0.43632593E-03 0.36368162E+02</pdfrwt>
<pdfrwt beam="1">  1       -2 0.17936800E-01 0.36368162E+02</pdfrwt>
<totfact> 0.73002425E+05</totfact>
</mgrwt>
</event>
<event>
 4    1  0.4118611E+000  0.2746872E+02  0.7546771E-02  0.1627881E+00
         -2   -1    0    0    0  501 -0.00000000000E+00  0.00000000000E+00  0.66382402178E+01  0.66382402178E+01  0.00000000000E+00 0. -1.
          2   -1    0    0  501    0  0.00000000000E+00 -0.00000000000E+00 -0.28416070026E+02  0.28416070026E+02  0.00000000000E+00 0.  1.
        -11    1    1    2    0    0  0.57819164341E+01  0.10953810932E+02 -0.18462020025E+02  0.22232020038E+02  0.00000000000E+00 0.  1.
         11    1    1    2    0    0 -0.57819164341E+01 -0.10953810932E+02 -0.33158097829E+01  0.12822290205E+02  0.00000000000E+00 0. -1.
<mgrwt>
<rscale>  0 0.27468724E+02</rscale>
<asrwt>0</asrwt>
<pdfrwt beam="2">  1        2 0.43717031E-02 0.27468724E+02</pdfrwt>
<pdfrwt beam="1">  1       -2 0.10212677E-02 0.27468724E+02</pdfrwt>
<totfact> 0.20726299E+06</totfact>
</mgrwt>
</event>
<event>
 4    1  0.4118611E+000  0.3597392E+02  0.7546771E-02  0.1540118E+00
         -3   -1    0    0    0  501 -0.00000000000E+00  0.00000000000E+00  0.55788956379E+01  0.55788956379E+01  0.00000000000E+00 0. -1.
          3   -1    0    0  501    0  0.00000000000E+00 -0.00000000000E+00 -0.57991906737E+02  0.57991906737E+02  0.00000000000E+00 0.  1.
        -13    1    1    2    0    0  0.87299130524E+00 -0.12765358916E+02 -0.48546223935E+02  0.50204107007E+02  0.00000000000E+00 0.  1.
         13    1    1    2    0    0 -0.87299130524E+00  0.12765358916E+02 -0.38667871643E+01  0.13366695367E+02  0.00000000000E+00 0. -1.
<mgrwt>
<rscale>  0 0.35973924E+02</rscale>
<asrwt>0</asrwt>
<pdfrwt beam="2">  1        3 0.89218321E-02 0.35973924E+02</pdfrwt>
<pdfrwt beam="1">  1       -3 0.85829161E-03 0.35973924E+02</pdfrwt>
<totfact> 0.40986055E+05</totfact>
</mgrwt>
</event>
<event>
 4    1  0.4118611E+000  0.2032004E+02  0.7546771E-02  0.1739038E+00
          4   -1    0    0  501    0  0.00000000000E+00  0.00000000000E+00  0.14719585718E+02  0.14719585718E+02  0.00000000000E+00 0.  1.
         -4   -1    0    0    0  501 -0.00000000000E+00 -0.00000000000E+00 -0.70128329175E+01  0.70128329175E+01  0.00000000000E+00 0. -1.
        -13    1    1    2    0    0  0.59036469813E+00 -0.10076684603E+02  0.50904458658E+01  0.11304899034E+02  0.00000000000E+00 0.  1.
         13    1    1    2    0    0 -0.59036469813E+00  0.10076684603E+02  0.26163069345E+01  0.10427519601E+02  0.00000000000E+00 0. -1.
<mgrwt>
<rscale>  0 0.20320039E+02</rscale>
<asrwt>0</asrwt>
<pdfrwt beam="1">  1        4 0.22645516E-02 0.20320039E+02</pdfrwt>
<pdfrwt beam="2">  1       -4 0.10788974E-02 0.20320039E+02</pdfrwt>
<totfact> 0.12498976E+06</totfact>
</mgrwt>
</event>
<event>
 4    1  0.4118611E+000  0.2995949E+02  0.7546771E-02  0.1598537E+00
          2   -1    0    0  501    0  0.00000000000E+00  0.00000000000E+00  0.96698334592E+01  0.96698334592E+01  0.00000000000E+00 0. -1.
         -2   -1    0    0    0  501 -0.00000000000E+00 -0.00000000000E+00 -0.23205443632E+02  0.23205443632E+02  0.00000000000E+00 0.  1.
        -11    1    1    2    0    0 -0.13531165448E+02 -0.64241228875E+01 -0.69609529013E+01  0.16517162545E+02  0.00000000000E+00 0. -1.
         11    1    1    2    0    0  0.13531165448E+02  0.64241228875E+01 -0.65746572712E+01  0.16358114546E+02  0.00000000000E+00 0.  1.
<mgrwt>
<rscale>  0 0.29959491E+02</rscale>
<asrwt>0</asrwt>
<pdfrwt beam="1">  1        2 0.14876667E-02 0.29959491E+02</pdfrwt>
<pdfrwt beam="2">  1       -2 0.35700682E-02 0.29959491E+02</pdfrwt>
<totfact> 0.15012792E+06</totfact>
</mgrwt>
</event>
<event>
 4    1  0.4118611E+000  0.3067563E+02  0.7546771E-02  0.1590738E+00
          3   -1    0    0  501    0  0.00000000000E+00  0.00000000000E+00  0.28823970391E+02  0.28823970391E+02  0.00000000000E+00 0. -1.
         -3   -1    0    0    0  501 -0.00000000000E+00 -0.00000000000E+00 -0.81615622756E+01  0.81615622756E+01  0.00000000000E+00 0.  1.
        -13    1    1    2    0    0 -0.44922313848E+01 -0.14580970419E+02  0.12223722047E+02  0.19550044037E+02  0.00000000000E+00 0. -1.
         13    1    1    2    0    0  0.44922313848E+01  0.14580970419E+02  0.84386860684E+01  0.17435488629E+02  0.00000000000E+00 0.  1.
<mgrwt>
<rscale>  0 0.30675634E+02</rscale>
<asrwt>0</asrwt>
<pdfrwt beam="1">  1        3 0.44344569E-02 0.30675634E+02</pdfrwt>
<pdfrwt beam="2">  1       -3 0.12556250E-02 0.30675634E+02</pdfrwt>
<totfact> 0.64483020E+05</totfact>
</mgrwt>
</event>
<event>
 4    1  0.4118611E+000  0.6299615E+02  0.7546771E-02  0.1385672E+00
          4   -1    0    0  501    0  0.00000000000E+00  0.00000000000E+00  0.14992907891E+02  0.14992907891E+02  0.00000000000E+00 0.  1.
         -4   -1    0    0    0  501 -0.00000000000E+00 -0.00000000000E+00 -0.66173203680E+02  0.66173203680E+02  0.00000000000E+00 0. -1.
        -13    1    1    2    0    0  0.11628135474E+02 -0.22067868253E+02 -0.80923966404E+00  0.24957147527E+02  0.00000000000E+00 0.  1.
         13    1    1    2    0    0 -0.11628135474E+02  0.22067868253E+02 -0.50371056124E+02  0.56208964044E+02  0.00000000000E+00 0. -1.
<mgrwt>
<rscale>  0 0.62996151E+02</rscale>
<asrwt>0</asrwt>
<pdfrwt beam="1">  1        4 0.23066012E-02 0.62996151E+02</pdfrwt>
<pdfrwt beam="2">  1       -4 0.10180493E-01 0.62996151E+02</pdfrwt>
<totfact> 0.73573861E+04</totfact>
</mgrwt>
</event>
<event>
 4    1  0.4118611E+000  0.1537711E+03  0.7546771E-02  0.1195914E+00
          2   -1    0    0  501    0  0.00000000000E+00  0.00000000000E+00  0.38959519599E+03  0.38959519599E+03  0.00000000000E+00 0. -1.
         -2   -1    0    0    0  501 -0.00000000000E+00 -0.00000000000E+00 -0.15173152543E+02  0.15173152543E+02  0.00000000000E+00 0.  1.
        -11    1    1    2    0    0 -0.26246363371E+02  0.65483285924E+02  0.10674527614E+03  0.12795110903E+03  0.00000000000E+00 0.  1.
         11    1    1    2    0    0  0.26246363371E+02 -0.65483285924E+02  0.26767676731E+03  0.27681723950E+03  0.00000000000E+00 0. -1.
<mgrwt>
<rscale>  0 0.15377109E+03</rscale>
<asrwt>0</asrwt>
<pdfrwt beam="1">  1        2 0.59937715E-01 0.15377109E+03</pdfrwt>
<pdfrwt beam="2">  1       -2 0.23343315E-02 0.15377109E+03</pdfrwt>
<totfact> 0.47357845E+04</totfact>
</mgrwt>
</event>
<event>
 4    1  0.4118611E+000  0.2810609E+02  0.7546771E-02  0.1620019E+00
         -4   -1    0    0    0  501 -0.00000000000E+00  0.00000000000E+00  0.59642908895E+01  0.59642908895E+01  0.00000000000E+00 0.  1.
          4   -1    0    0  501    0  0.00000000000E+00 -0.00000000000E+00 -0.33111749833E+02  0.33111749833E+02  0.00000000000E+00 0. -1.
        -11    1    1    2    0    0  0.55715782627E+01 -0.11205410916E+02 -0.46839938934E+01  0.13362017697E+02  0.00000000000E+00 0.  1.
         11    1    1    2    0    0 -0.55715782627E+01  0.11205410916E+02 -0.22463465050E+02  0.25714023026E+02  0.00000000000E+00 0. -1.
<mgrwt>
<rscale>  0 0.28106092E+02</rscale>
<asrwt>0</asrwt>
<pdfrwt beam="2">  1        4 0.50941156E-02 0.28106092E+02</pdfrwt>
<pdfrwt beam="1">  1       -4 0.91758318E-03 0.28106092E+02</pdfrwt>
<totfact> 0.58192724E+05</totfact>
</mgrwt>
</event>
<event>
 4    1  0.4118611E+000  0.3382446E+02  0.7546771E-02  0.1559294E+00
         -4   -1    0    0    0  501 -0.00000000000E+00  0.00000000000E+00  0.73874181143E+01  0.73874181143E+01  0.00000000000E+00 0.  1.
          4   -1    0    0  501    0  0.00000000000E+00 -0.00000000000E+00 -0.38717657523E+02  0.38717657523E+02  0.00000000000E+00 0. -1.
        -11    1    1    2    0    0 -0.12696970638E+02 -0.11132192765E+02 -0.14383004599E+02  0.22181289422E+02  0.00000000000E+00 0.  1.
         11    1    1    2    0    0  0.12696970638E+02  0.11132192765E+02 -0.16947234810E+02  0.23923786215E+02  0.00000000000E+00 0. -1.
<mgrwt>
<rscale>  0 0.33824460E+02</rscale>
<asrwt>0</asrwt>
<pdfrwt beam="2">  1        4 0.59565627E-02 0.33824460E+02</pdfrwt>
<pdfrwt beam="1">  1       -4 0.11365259E-02 0.33824460E+02</pdfrwt>
<totfact> 0.37306234E+05</totfact>
</mgrwt>
</event>
<event>
 4    1  0.4118611E+000  0.2393732E+02  0.7546771E-02  0.1676752E+00
         -4   -1    0    0    0  501 -0.00000000000E+00  0.00000000000E+00  0.14417306678E+02  0.14417306678E+02  0.00000000000E+00 0. -1.
          4   -1    0    0  501    0  0.00000000000E+00 -0.00000000000E+00 -0.99358963604E+01  0.99358963604E+01  0.00000000000E+00 0.  1.
        -13    1    1    2    0    0 -0.69141691351E+01 -0.83004697178E+01 -0.30010240915E+01  0.11212032731E+02  0.00000000000E+00 0.  1.
         13    1    1    2    0    0  0.69141691351E+01  0.83004697178E+01  0.74824344095E+01  0.13141170308E+02  0.00000000000E+00 0. -1.
<mgrwt>
<rscale>  0 0.23937324E+02</rscale>
<asrwt>0</asrwt>
<pdfrwt beam="2">  1        4 0.15285995E-02 0.23937324E+02</pdfrwt>
<pdfrwt beam="1">  1       -4 0.22180472E-02 0.23937324E+02</pdfrwt>
<totfact> 0.87577282E+05</totfact>
</mgrwt>
</event>
<event>
 4    1  0.4118611E+000  0.5092717E+02  0.7546771E-02  0.1440404E+00
          2   -1    0    0  501    0  0.00000000000E+00  0.00000000000E+00  0.15595395797E+02  0.15595395797E+02  0.00000000000E+00 0. -1.
         -2   -1    0    0    0  501 -0.00000000000E+00 -0.00000000000E+00 -0.41575991851E+02  0.41575991851E+02  0.00000000000E+00 0.  1.
        -13    1    1    2    0    0 -0.40834926662E+00 -0.25449950400E+02 -0.13805505269E+02  0.28956151337E+02  0.00000000000E+00 0. -1.
         13    1    1    2    0    0  0.40834926662E+00  0.25449950400E+02 -0.12175090785E+02  0.28215236312E+02  0.00000000000E+00 0.  1.
<mgrwt>
<rscale>  0 0.50927166E+02</rscale>
<asrwt>0</asrwt>
<pdfrwt beam="1">  1        2 0.23992917E-02 0.50927166E+02</pdfrwt>
<pdfrwt beam="2">  1       -2 0.63963062E-02 0.50927166E+02</pdfrwt>
<totfact> 0.40263763E+05</totfact>
</mgrwt>
</event>
<event>
 4    1  0.4118611E+000  0.3307136E+02  0.7546771E-02  0.1566426E+00
          2   -1    0    0  501    0  0.00000000000E+00  0.00000000000E+00  0.13954417133E+02  0.13954417133E+02  0.00000000000E+00 0. -1.
         -2   -1    0    0    0  501 -0.00000000000E+00 -0.00000000000E+00 -0.19594418431E+02  0.19594418431E+02  0.00000000000E+00 0.  1.
        -11    1    1    2    0    0  0.52465511323E+01 -0.14314044296E+02  0.36764042058E+01  0.15682286529E+02  0.00000000000E+00 0. -1.
         11    1    1    2    0    0 -0.52465511323E+01  0.14314044296E+02 -0.93164055040E+01  0.17866549035E+02  0.00000000000E+00 0.  1.
<mgrwt>
<rscale>  0 0.33071358E+02</rscale>
<asrwt>0</asrwt>
<pdfrwt beam="1">  1        2 0.21468334E-02 0.33071358E+02</pdfrwt>
<pdfrwt beam="2">  1       -2 0.30145259E-02 0.33071358E+02</pdfrwt>
<totfact> 0.12208403E+06</totfact>
</mgrwt>
</event>
<event>
 4    1  0.4118611E+000  0.2328562E+02  0.7546771E-02  0.1686922E+00
          4   -1    0    0  501    0  0.00000000000E+00  0.00000000000E+00  0.38524353042E+01  0.38524353042E+01  0.00000000000E+00 0.  1.
         -4   -1    0    0    0  501 -0.00000000000E+00 -0.00000000000E+00 -0.35186836416E+02  0.35186836416E+02  0.00000000000E+00 0. -1.
        -13    1    1    2    0    0 -0.11429530656E+02  0.21147127217E+01 -0.16790394701E+02  0.20421154109E+02  0.00000000000E+00 0. -1.
         13    1    1    2    0    0  0.11429530656E+02 -0.21147127217E+01 -0.14544006411E+02  0.18618117612E+02  0.00000000000E+00 0.  1.
<mgrwt>
<rscale>  0 0.23285619E+02</rscale>
<asrwt>0</asrwt>
<pdfrwt beam="1">  1        4 0.59268237E-03 0.23285619E+02</pdfrwt>
<pdfrwt beam="2">  1       -4 0.54133593E-02 0.23285619E+02</pdfrwt>
<totfact> 0.87567302E+05</totfact>
</mgrwt>
</event>
<event>
 4    1  0.4118611E+000  0.2222424E+02  0.7546771E-02  0.1704402E+00
         -1   -1    0    0    0  501 -0.00000000000E+00  0.00000000000E+00  0.54770897247E+02  0.54770897247E+02  0.00000000000E+00 0. -1.
          1   -1    0    0  501    0  0.00000000000E+00 -0.00000000000E+00 -0.22544676508E+01  0.22544676508E+01  0.00000000000E+00 0.  1.
        -11    1    1    2    0    0 -0.77109354840E+01 -0.79391818190E+01  0.23705062394E+02  0.26161405105E+02  0.00000000000E+00 0. -1.
         11    1    1    2    0    0  0.77109354840E+01  0.79391818190E+01  0.28811367203E+02  0.30863959793E+02  0.00000000000E+00 0.  1.
<mgrwt>
<rscale>  0 0.22224240E+02</rscale>
<asrwt>0</asrwt>
<pdfrwt beam="2">  1        1 0.34684122E-03 0.22224240E+02</pdfrwt>
<pdfrwt beam="1">  1       -1 0.84262909E-02 0.22224240E+02</pdfrwt>
<totfact> 0.27380156E+06</totfact>
</mgrwt>
</event>
<event>
 4    1  0.4118611E+000  0.3109788E+02  0.7546771E-02  0.1586261E+00
         -2   -1    0    0    0  501 -0.00000000000E+00  0.00000000000E+00  0.17463879803E+01  0.17463879803E+01  0.00000000000E+00 0. -1.
          2   -1    0    0  501    0  0.00000000000E+00 -0.00000000000E+00 -0.13843975602E+03  0.13843975602E+03  0.00000000000E+00 0.  1.
        -13    1    1    2    0    0  0.90362748885E+01  0.12441635111E+02 -0.57948199745E+02  0.59953668794E+02  0.00000000000E+00 0. -1.
         13    1    1    2    0    0 -0.90362748885E+01 -0.12441635111E+02 -0.78745168293E+02  0.80232475205E+02  0.00000000000E+00 0.  1.
<mgrwt>
<rscale>  0 0.31097879E+02</rscale>
<asrwt>0</asrwt>
<pdfrwt beam="2">  1        2 0.21298431E-01 0.31097879E+02</pdfrwt>
<pdfrwt beam="1">  1       -2 0.26867499E-03 0.31097879E+02</pdfrwt>
<totfact> 0.20890219E+06</totfact>
</mgrwt>
</event>
<event>
 4    1  0.4118611E+000  0.6114834E+02  0.7546771E-02  0.1393075E+00
          2   -1    0    0  501    0  0.00000000000E+00  0.00000000000E+00  0.17498579047E+02  0.17498579047E+02  0.00000000000E+00 0. -1.
         -2   -1    0    0    0  501 -0.00000000000E+00 -0.00000000000E+00 -0.53420322338E+02  0.53420322338E+02  0.00000000000E+00 0.  1.
        -11    1    1    2    0    0 -0.27657669681E+02  0.76743608656E+01 -0.57452376710E+01  0.29272004762E+02  0.00000000000E+00 0. -1.
         11    1    1    2    0    0  0.27657669681E+02 -0.76743608656E+01 -0.30176505620E+02  0.41646896623E+02  0.00000000000E+00 0.  1.
<mgrwt>
<rscale>  0 0.61148335E+02</rscale>
<asrwt>0</asrwt>
<pdfrwt beam="1">  1        2 0.26920891E-02 0.61148335E+02</pdfrwt>
<pdfrwt beam="2">  1       -2 0.82185110E-02 0.61148335E+02</pdfrwt>
<totfact> 0.24793404E+05</totfact>
</mgrwt>
</event>
<event>
 4    1  0.4118611E+000  0.2504334E+02  0.7546771E-02  0.1660380E+00
          2   -1    0    0  501    0  0.00000000000E+00  0.00000000000E+00  0.16391670209E+01  0.16391670209E+01  0.00000000000E+00 0. -1.
         -2   -1    0    0    0  501 -0.00000000000E+00 -0.00000000000E+00 -0.95653605356E+02  0.95653605356E+02  0.00000000000E+00 0.  1.
        -13    1    1    2    0    0  0.35578542046E+01 -0.11917861553E+02 -0.41379385924E+02  0.43208185914E+02  0.00000000000E+00 0.  1.
         13    1    1    2    0    0 -0.35578542046E+01  0.11917861553E+02 -0.52635052411E+02  0.54084586463E+02  0.00000000000E+00 0. -1.
<mgrwt>
<rscale>  0 0.25043341E+02</rscale>
<asrwt>0</asrwt>
<pdfrwt beam="1">  1        2 0.25217944E-03 0.25043341E+02</pdfrwt>
<pdfrwt beam="2">  1       -2 0.14715945E-01 0.25043341E+02</pdfrwt>
<totfact> 0.18230428E+06</totfact>
</mgrwt>
</event>
<event>
 4    1  0.4118611E+000  0.4565350E+02  0.7546771E-02  0.1470303E+00
          2   -1    0    0  501    0  0.00000000000E+00  0.00000000000E+00  0.42310608262E+02  0.42310608262E+02  0.00000000000E+00 0. -1.
         -2   -1    0    0    0  501 -0.00000000000E+00 -0.00000000000E+00 -0.12315125979E+02  0.12315125979E+02  0.00000000000E+00 0.  1.
        -11    1    1    2    0    0  0.12650675631E+02 -0.29709433745E+01 -0.74573299417E+01  0.14982585502E+02  0.00000000000E+00 0. -1.
         11    1    1    2    0    0 -0.12650675631E+02  0.29709433745E+01  0.37452812225E+02  0.39643148740E+02  0.00000000000E+00 0.  1.
<mgrwt>
<rscale>  0 0.45653498E+02</rscale>
<asrwt>0</asrwt>
<pdfrwt beam="1">  1        2 0.65093243E-02 0.45653498E+02</pdfrwt>
<pdfrwt beam="2">  1       -2 0.18946348E-02 0.45653498E+02</pdfrwt>
<totfact> 0.62831432E+05</totfact>
</mgrwt>
</event>
<event>
 4    1  0.4118611E+000  0.2861515E+02  0.7546771E-02  0.1613921E+00
         -2   -1    0    0    0  501 -0.00000000000E+00  0.00000000000E+00  0.36004553220E+01  0.36004553220E+01  0.00000000000E+00 0.  1.
          2   -1    0    0  501    0  0.00000000000E+00 -0.00000000000E+00 -0.56855767762E+02  0.56855767762E+02  0.00000000000E+00 0. -1.
        -13    1    1    2    0    0 -0.15754680864E+01 -0.13225232650E+02 -0.15585149126E+02  0.20500871972E+02  0.00000000000E+00 0. -1.
         13    1    1    2    0    0  0.15754680864E+01  0.13225232650E+02 -0.37670163315E+02  0.39955351112E+02  0.00000000000E+00 0.  1.
<mgrwt>
<rscale>  0 0.28615146E+02</rscale>
<asrwt>0</asrwt>
<pdfrwt beam="2">  1        2 0.87470411E-02 0.28615146E+02</pdfrwt>
<pdfrwt beam="1">  1       -2 0.55391621E-03 0.28615146E+02</pdfrwt>
<totfact> 0.20785869E+06</totfact>
</mgrwt>
</event>
<event>
 4    1  0.4118611E+000  0.3707581E+02  0.7546771E-02  0.1530903E+00
          2   -1    0    0  501    0  0.00000000000E+00  0.00000000000E+00  0.50118254383E+02  0.50118254383E+02  0.00000000000E+00 0.  1.
         -2   -1    0    0    0  501 -0.00000000000E+00 -0.00000000000E+00 -0.68568619114E+01  0.68568619114E+01  0.00000000000E+00 0. -1.
        -13    1    1    2    0    0  0.16499167378E+02  0.80676982891E+01  0.17760216160E+02  0.25548689944E+02  0.00000000000E+00 0.  1.
         13    1    1    2    0    0 -0.16499167378E+02 -0.80676982891E+01  0.25501176312E+02  0.31426426350E+02  0.00000000000E+00 0. -1.
<mgrwt>
<rscale>  0 0.37075811E+02</rscale>
<asrwt>0</asrwt>
<pdfrwt beam="1">  1        2 0.77105004E-02 0.37075811E+02</pdfrwt>
<pdfrwt beam="2">  1       -2 0.10549019E-02 0.37075811E+02</pdfrwt>
<totfact> 0.10891976E+06</totfact>
</mgrwt>
</event>
<event>
 4    1  0.4118611E+000  0.6610469E+02  0.7546771E-02  0.1373864E+00
         -2   -1    0    0    0  501 -0.00000000000E+00  0.00000000000E+00  0.69353363083E+02  0.69353363083E+02  0.00000000000E+00 0.  1.
          2   -1    0    0  501    0  0.00000000000E+00 -0.00000000000E+00 -0.15752049480E+02  0.15752049480E+02  0.00000000000E+00 0. -1.
        -13    1    1    2    0    0  0.29873467373E+02 -0.14028194709E+02  0.24482093620E+02  0.41092422753E+02  0.00000000000E+00 0. -1.
         13    1    1    2    0    0 -0.29873467373E+02  0.14028194709E+02  0.29119219982E+02  0.44012989810E+02  0.00000000000E+00 0.  1.
<mgrwt>
<rscale>  0 0.66104693E+02</rscale>
<asrwt>0</asrwt>
<pdfrwt beam="2">  1        2 0.24233923E-02 0.66104693E+02</pdfrwt>
<pdfrwt beam="1">  1       -2 0.10669748E-01 0.66104693E+02</pdfrwt>
<totfact> 0.19413076E+05</totfact>
</mgrwt>
</event>
<event>
 4    1  0.4118611E+000  0.8415367E+02  0.7546771E-02  0.1317661E+00
         -2   -1    0    0    0  501 -0.00000000000E+00  0.00000000000E+00  0.23810598351E+03  0.23810598351E+03  0.00000000000E+00 0.  1.
          2   -1    0    0  501    0  0.00000000000E+00 -0.00000000000E+00 -0.74355973699E+01  0.74355973699E+01  0.00000000000E+00 0. -1.
        -11    1    1    2    0    0  0.35039871075E+02 -0.66983423989E+01  0.18043494801E+03  0.18392778697E+03  0.00000000000E+00 0.  1.
         11    1    1    2    0    0 -0.35039871075E+02  0.66983423989E+01  0.50235438124E+02  0.61613793905E+02  0.00000000000E+00 0. -1.
<mgrwt>
<rscale>  0 0.84153674E+02</rscale>
<asrwt>0</asrwt>
<pdfrwt beam="2">  1        2 0.11439382E-02 0.84153674E+02</pdfrwt>
<pdfrwt beam="1">  1       -2 0.36631684E-01 0.84153674E+02</pdfrwt>
<totfact> 0.70634793E+04</totfact>
</mgrwt>
</event>
<event>
 4    1  0.4118611E+000  0.4981141E+02  0.7546771E-02  0.1446361E+00
          2   -1    0    0  501    0  0.00000000000E+00  0.00000000000E+00  0.13709160358E+02  0.13709160358E+02  0.00000000000E+00 0. -1.
         -2   -1    0    0    0  501 -0.00000000000E+00 -0.00000000000E+00 -0.45246698598E+02  0.45246698598E+02  0.00000000000E+00 0.  1.
        -11    1    1    2    0    0  0.18220260274E+02 -0.96624803960E+01  0.75704548887E+00  0.20637696813E+02  0.00000000000E+00 0. -1.
         11    1    1    2    0    0 -0.18220260274E+02  0.96624803960E+01 -0.32294583728E+02  0.38318162143E+02  0.00000000000E+00 0.  1.
<mgrwt>
<rscale>  0 0.49811414E+02</rscale>
<asrwt>0</asrwt>
<pdfrwt beam="1">  1        2 0.21091016E-02 0.49811414E+02</pdfrwt>
<pdfrwt beam="2">  1       -2 0.69610307E-02 0.49811414E+02</pdfrwt>
<totfact> 0.41851567E+05</totfact>
</mgrwt>
</event>
<event>
 4    1  0.4118611E+000  0.2446422E+02  0.7546771E-02  0.1668819E+00
          4   -1    0    0  501    0  0.00000000000E+00  0.00000000000E+00  0.84487642198E+01  0.84487642198E+01  0.00000000000E+00 0. -1.
         -4   -1    0    0    0  501 -0.00000000000E+00 -0.00000000000E+00 -0.17709629416E+02  0.17709629416E+02  0.00000000000E+00 0.  1.
        -11    1    1    2    0    0  0.97590465032E+01 -0.48348947958E+01  0.13237977736E+01  0.10971218569E+02  0.00000000000E+00 0. -1.
         11    1    1    2    0    0 -0.97590465032E+01  0.48348947958E+01 -0.10584662970E+02  0.15187175067E+02  0.00000000000E+00 0.  1.
<mgrwt>
<rscale>  0 0.24464217E+02</rscale>
<asrwt>0</asrwt>
<pdfrwt beam="1">  1        4 0.12998099E-02 0.24464217E+02</pdfrwt>
<pdfrwt beam="2">  1       -4 0.27245583E-02 0.24464217E+02</pdfrwt>
<totfact> 0.82946991E+05</totfact>
</mgrwt>
</event>
<event>
 4    1  0.4118611E+000  0.2941268E+02  0.7546771E-02  0.1604673E+00
         -2   -1    0    0    0  501 -0.00000000000E+00  0.00000000000E+00  0.28390564116E+01  0.28390564116E+01  0.00000000000E+00 0. -1.
          2   -1    0    0  501    0  0.00000000000E+00 -0.00000000000E+00 -0.76178989361E+02  0.76178989361E+02  0.00000000000E+00 0.  1.
        -13    1    1    2    0    0 -0.10889460810E+02 -0.96527592121E+01 -0.42381816494E+02  0.44810428322E+02  0.00000000000E+00 0.  1.
         13    1    1    2    0    0  0.10889460810E+02  0.96527592121E+01 -0.30958116456E+02  0.34207617450E+02  0.00000000000E+00 0. -1.
<mgrwt>
<rscale>  0 0.29412681E+02</rscale>
<asrwt>0</asrwt>
<pdfrwt beam="2">  1        2 0.11719846E-01 0.29412681E+02</pdfrwt>
<pdfrwt beam="1">  1       -2 0.43677787E-03 0.29412681E+02</pdfrwt>
<totfact> 0.20599556E+06</totfact>
</mgrwt>
</event>
<event>
 4    1  0.4118611E+000  0.2828225E+02  0.7546771E-02  0.1617891E+00
         -2   -1    0    0    0  501 -0.00000000000E+00  0.00000000000E+00  0.66149206613E+01  0.66149206613E+01  0.00000000000E+00 0.  1.
          2   -1    0    0  501    0  0.00000000000E+00 -0.00000000000E+00 -0.30230354818E+02  0.30230354818E+02  0.00000000000E+00 0. -1.
        -11    1    1    2    0    0 -0.59839411174E-01 -0.14014909827E+02 -0.14262366165E+02  0.19995908753E+02  0.00000000000E+00 0. -1.
         11    1    1    2    0    0  0.59839411174E-01  0.14014909827E+02 -0.93530679915E+01  0.16849366726E+02  0.00000000000E+00 0.  1.
<mgrwt>
<rscale>  0 0.28282249E+02</rscale>
<asrwt>0</asrwt>
<pdfrwt beam="2">  1        2 0.46508238E-02 0.28282249E+02</pdfrwt>
<pdfrwt beam="1">  1       -2 0.10176801E-02 0.28282249E+02</pdfrwt>
<totfact> 0.19482731E+06</totfact>
</mgrwt>
</event>
<event>
 4    1  0.4118611E+000  0.2585739E+02  0.7546771E-02  0.1648984E+00
          3   -1    0    0  501    0  0.00000000000E+00  0.00000000000E+00  0.25841384664E+01  0.25841384664E+01  0.00000000000E+00 0.  1.
         -3   -1    0    0    0  501 -0.00000000000E+00 -0.00000000000E+00 -0.64683509862E+02  0.64683509862E+02  0.00000000000E+00 0. -1.
        -11    1    1    2    0    0 -0.20873584599E+01 -0.12742207208E+02 -0.32756062711E+02  0.35209097606E+02  0.00000000000E+00 0.  1.
         11    1    1    2    0    0  0.20873584599E+01  0.12742207208E+02 -0.29343308684E+02  0.32058550723E+02  0.00000000000E+00 0. -1.
<mgrwt>
<rscale>  0 0.25857389E+02</rscale>
<asrwt>0</asrwt>
<pdfrwt beam="1">  1        3 0.39755980E-03 0.25857389E+02</pdfrwt>
<pdfrwt beam="2">  1       -3 0.99513084E-02 0.25857389E+02</pdfrwt>
<totfact> 0.87547156E+05</totfact>
</mgrwt>
</event>
<event>
 4    1  0.4118611E+000  0.2404510E+02  0.7546771E-02  0.1675109E+00
         -4   -1    0    0    0  501 -0.00000000000E+00  0.00000000000E+00  0.23851605349E+02  0.23851605349E+02  0.00000000000E+00 0.  1.
          4   -1    0    0  501    0  0.00000000000E+00 -0.00000000000E+00 -0.60600420030E+01  0.60600420030E+01  0.00000000000E+00 0. -1.
        -11    1    1    2    0    0  0.88580574593E+01  0.73691020445E+01  0.13164083599E+02  0.17494626143E+02  0.00000000000E+00 0.  1.
         11    1    1    2    0    0 -0.88580574593E+01 -0.73691020445E+01  0.46274797476E+01  0.12417021209E+02  0.00000000000E+00 0. -1.
<mgrwt>
<rscale>  0 0.24045102E+02</rscale>
<asrwt>0</asrwt>
<pdfrwt beam="2">  1        4 0.93231417E-03 0.24045102E+02</pdfrwt>
<pdfrwt beam="1">  1       -4 0.36694777E-02 0.24045102E+02</pdfrwt>
<totfact> 0.84767328E+05</totfact>
</mgrwt>
</event>
<event>
 4    1  0.4118611E+000  0.2261057E+02  0.7546771E-02  0.1697901E+00
         -3   -1    0    0    0  501 -0.00000000000E+00  0.00000000000E+00  0.34098988341E+02  0.34098988341E+02  0.00000000000E+00 0.  1.
          3   -1    0    0  501    0  0.00000000000E+00 -0.00000000000E+00 -0.37481904382E+01  0.37481904382E+01  0.00000000000E+00 0. -1.
        -11    1    1    2    0    0  0.10193386184E+02  0.41391440357E+01  0.19531281370E+02  0.22416703308E+02  0.00000000000E+00 0. -1.
         11    1    1    2    0    0 -0.10193386184E+02 -0.41391440357E+01  0.10819516532E+02  0.15430475471E+02  0.00000000000E+00 0.  1.
<mgrwt>
<rscale>  0 0.22610573E+02</rscale>
<asrwt>0</asrwt>
<pdfrwt beam="2">  1        3 0.57664470E-03 0.22610573E+02</pdfrwt>
<pdfrwt beam="1">  1       -3 0.52459980E-02 0.22610573E+02</pdfrwt>
<totfact> 0.12875562E+06</totfact>
</mgrwt>
</event>
<event>
 4    1  0.4118611E+000  0.2029327E+02  0.7546771E-02  0.1739558E+00
         -1   -1    0    0    0  501 -0.00000000000E+00  0.00000000000E+00  0.97118277899E+00  0.97118277899E+00  0.00000000000E+00 0.  1.
          1   -1    0    0  501    0  0.00000000000E+00 -0.00000000000E+00 -0.10600910022E+03  0.10600910022E+03  0.00000000000E+00 0. -1.
        -13    1    1    2    0    0  0.48792224239E+01  0.88835006455E+01 -0.49986246003E+02  0.51003413461E+02  0.00000000000E+00 0.  1.
         13    1    1    2    0    0 -0.48792224239E+01 -0.88835006455E+01 -0.55051671441E+02  0.55976869541E+02  0.00000000000E+00 0. -1.
<mgrwt>
<rscale>  0 0.20293271E+02</rscale>
<asrwt>0</asrwt>
<pdfrwt beam="2">  1        1 0.16309087E-01 0.20293271E+02</pdfrwt>
<pdfrwt beam="1">  1       -1 0.14941278E-03 0.20293271E+02</pdfrwt>
<totfact> 0.43237295E+06</totfact>
</mgrwt>
</event>
<event>
 4    1  0.4118611E+000  0.2555155E+02  0.7546771E-02  0.1653204E+00
          3   -1    0    0  501    0  0.00000000000E+00  0.00000000000E+00  0.81491401643E+01  0.81491401643E+01  0.00000000000E+00 0. -1.
         -3   -1    0    0    0  501 -0.00000000000E+00 -0.00000000000E+00 -0.20029154822E+02  0.20029154822E+02  0.00000000000E+00 0.  1.
        -11    1    1    2    0    0  0.41883574123E+01 -0.12026814090E+02 -0.70612890251E+01  0.14561881666E+02  0.00000000000E+00 0.  1.
         11    1    1    2    0    0 -0.41883574123E+01  0.12026814090E+02 -0.48187256323E+01  0.13616413320E+02  0.00000000000E+00 0. -1.
<mgrwt>
<rscale>  0 0.25551547E+02</rscale>
<asrwt>0</asrwt>
<pdfrwt beam="1">  1        3 0.12537139E-02 0.25551547E+02</pdfrwt>
<pdfrwt beam="2">  1       -3 0.30814084E-02 0.25551547E+02</pdfrwt>
<totfact> 0.10105793E+06</totfact>
</mgrwt>
</event>
<event>
 4    1  0.4118611E+000  0.2696930E+02  0.7546771E-02  0.1634228E+00
         -4   -1    0    0    0  501 -0.00000000000E+00  0.00000000000E+00  0.15257737767E+02  0.15257737767E+02  0.00000000000E+00 0.  1.
          4   -1    0    0  501    0  0.00000000000E+00 -0.00000000000E+00 -0.11917608095E+02  0.11917608095E+02  0.00000000000E+00 0. -1.
        -11    1    1    2    0    0 -0.82220482513E+01 -0.82712604068E+01 -0.51506923821E+01  0.12749331676E+02  0.00000000000E+00 0. -1.
         11    1    1    2    0    0  0.82220482513E+01  0.82712604068E+01  0.84908220540E+01  0.14426014187E+02  0.00000000000E+00 0.  1.
<mgrwt>
<rscale>  0 0.26969297E+02</rscale>
<asrwt>0</asrwt>
<pdfrwt beam="2">  1        4 0.18334782E-02 0.26969297E+02</pdfrwt>
<pdfrwt beam="1">  1       -4 0.23473443E-02 0.26969297E+02</pdfrwt>
<totfact> 0.66747217E+05</totfact>
</mgrwt>
</event>
<event>
 4    1  0.4118611E+000  0.2801790E+02  0.7546771E-02  0.1621092E+00
         -1   -1    0    0    0  501 -0.00000000000E+00  0.00000000000E+00  0.69981739968E+01  0.69981739968E+01  0.00000000000E+00 0.  1.
          1   -1    0    0  501    0  0.00000000000E+00 -0.00000000000E+00 -0.28043124125E+02  0.28043124125E+02  0.00000000000E+00 0. -1.
        -13    1    1    2    0    0  0.10859981351E+02 -0.12077061683E+01 -0.21486620608E+02  0.24105447814E+02  0.00000000000E+00 0. -1.
         13    1    1    2    0    0 -0.10859981351E+02  0.12077061683E+01  0.44167048060E+00  0.10935850308E+02  0.00000000000E+00 0.  1.
<mgrwt>
<rscale>  0 0.28017899E+02</rscale>
<asrwt>0</asrwt>
<pdfrwt beam="2">  1        1 0.43143268E-02 0.28017899E+02</pdfrwt>
<pdfrwt beam="1">  1       -1 0.10766421E-02 0.28017899E+02</pdfrwt>
<totfact> 0.18555876E+06</totfact>
</mgrwt>
</event>
<event>
 4    1  0.4118611E+000  0.4005318E+02  0.7546771E-02  0.1507820E+00
          1   -1    0    0  501    0  0.00000000000E+00  0.00000000000E+00  0.10757543521E+02  0.10757543521E+02  0.00000000000E+00 0. -1.
         -1   -1    0    0    0  501 -0.00000000000E+00 -0.00000000000E+00 -0.37282149278E+02  0.37282149278E+02  0.00000000000E+00 0.  1.
        -13    1    1    2    0    0  0.94055216684E+01 -0.67686399235E+01  0.63281615941E+01  0.13203179671E+02  0.00000000000E+00 0. -1.
         13    1    1    2    0    0 -0.94055216684E+01  0.67686399235E+01 -0.32852767351E+02  0.34836513127E+02  0.00000000000E+00 0.  1.
<mgrwt>
<rscale>  0 0.40053182E+02</rscale>
<asrwt>0</asrwt>
<pdfrwt beam="1">  1        1 0.16550067E-02 0.40053182E+02</pdfrwt>
<pdfrwt beam="2">  1       -1 0.57357154E-02 0.40053182E+02</pdfrwt>
<totfact> 0.72151637E+05</totfact>
</mgrwt>
</event>
<event>
 4    1  0.4118611E+000  0.6031244E+02  0.7546771E-02  0.1396525E+00
         -1   -1    0    0    0  501 -0.00000000000E+00  0.00000000000E+00  0.35443604363E+02  0.35443604363E+02  0.00000000000E+00 0. -1.
          1   -1    0    0  501    0  0.00000000000E+00 -0.00000000000E+00 -0.25657593828E+02  0.25657593828E+02  0.00000000000E+00 0.  1.
        -13    1    1    2    0    0 -0.92092186480E+01  0.45933576047E+01 -0.23823579323E+02  0.25951330871E+02  0.00000000000E+00 0.  1.
         13    1    1    2    0    0  0.92092186480E+01 -0.45933576047E+01  0.33609589859E+02  0.35149867321E+02  0.00000000000E+00 0. -1.
<mgrwt>
<rscale>  0 0.60312440E+02</rscale>
<asrwt>0</asrwt>
<pdfrwt beam="2">  1        1 0.39473221E-02 0.60312440E+02</pdfrwt>
<pdfrwt beam="1">  1       -1 0.54528622E-02 0.60312440E+02</pdfrwt>
<totfact> 0.26717646E+05</totfact>
</mgrwt>
</event>
<event>
 4    1  0.4118611E+000  0.3134274E+02  0.7546771E-02  0.1583704E+00
          2   -1    0    0  501    0  0.00000000000E+00  0.00000000000E+00  0.39942324612E+01  0.39942324612E+01  0.00000000000E+00 0.  1.
         -2   -1    0    0    0  501 -0.00000000000E+00 -0.00000000000E+00 -0.61486598250E+02  0.61486598250E+02  0.00000000000E+00 0. -1.
        -13    1    1    2    0    0  0.11428617319E+02 -0.97292619838E+01 -0.19328622143E+02  0.24471768766E+02  0.00000000000E+00 0.  1.
         13    1    1    2    0    0 -0.11428617319E+02  0.97292619838E+01 -0.38163743646E+02  0.41009061946E+02  0.00000000000E+00 0. -1.
<mgrwt>
<rscale>  0 0.31342735E+02</rscale>
<asrwt>0</asrwt>
<pdfrwt beam="1">  1        2 0.61449727E-03 0.31342735E+02</pdfrwt>
<pdfrwt beam="2">  1       -2 0.94594771E-02 0.31342735E+02</pdfrwt>
<totfact> 0.11899020E+06</totfact>
</mgrwt>
</event>
<event>
 4    1  0.4118611E+000  0.2737152E+02  0.7546771E-02  0.1629103E+00
          3   -1    0    0  501    0  0.00000000000E+00  0.00000000000E+00  0.35714179882E+02  0.35714179882E+02  0.00000000000E+00 0. -1.
         -3   -1    0    0    0  501 -0.00000000000E+00 -0.00000000000E+00 -0.52444156503E+01  0.52444156503E+01  0.00000000000E+00 0.  1.
        -11    1    1    2    0    0 -0.13279536335E+02  0.19501478840E+01  0.11233364305E+02  0.17502503697E+02  0.00000000000E+00 0.  1.
         11    1    1    2    0    0  0.13279536335E+02 -0.19501478840E+01  0.19236399926E+02  0.23456091835E+02  0.00000000000E+00 0. -1.
<mgrwt>
<rscale>  0 0.27371518E+02</rscale>
<asrwt>0</asrwt>
<pdfrwt beam="1">  1        3 0.54944891E-02 0.27371518E+02</pdfrwt>
<pdfrwt beam="2">  1       -3 0.80683320E-03 0.27371518E+02</pdfrwt>
<totfact> 0.82937468E+05</totfact>
</mgrwt>
</event>
<event>
 4    1  0.4118611E+000  0.2693152E+02  0.7546771E-02  0.1634714E+00
         -1   -1    0    0    0  501 -0.00000000000E+00  0.00000000000E+00  0.22394724105E+01  0.22394724105E+01  0.00000000000E+00 0.  1.
          1   -1    0    0  501    0  0.00000000000E+00 -0.00000000000E+00 -0.80968504276E+02  0.80968504276E+02  0.00000000000E+00 0. -1.
        -11    1    1    2    0    0  0.11420518650E+02  0.30425727758E+01 -0.59301793535E+02  0.60468075972E+02  0.00000000000E+00 0. -1.
         11    1    1    2    0    0 -0.11420518650E+02 -0.30425727758E+01 -0.19427238331E+02  0.22739900714E+02  0.00000000000E+00 0.  1.
<mgrwt>
<rscale>  0 0.26931523E+02</rscale>
<asrwt>0</asrwt>
<pdfrwt beam="2">  1        1 0.12456692E-01 0.26931523E+02</pdfrwt>
<pdfrwt beam="1">  1       -1 0.34453424E-03 0.26931523E+02</pdfrwt>
<totfact> 0.22099173E+06</totfact>
</mgrwt>
</event>
<event>
 4    1  0.4118611E+000  0.2718822E+02  0.7546771E-02  0.1631425E+00
         -1   -1    0    0    0  501 -0.00000000000E+00  0.00000000000E+00  0.47022104751E+01  0.47022104751E+01  0.00000000000E+00 0.  1.
          1   -1    0    0  501    0  0.00000000000E+00 -0.00000000000E+00 -0.39300634327E+02  0.39300634327E+02  0.00000000000E+00 0. -1.
        -11    1    1    2    0    0  0.11499716225E+02  0.50278546293E+01 -0.25751975426E+02  0.28647635745E+02  0.00000000000E+00 0. -1.
         11    1    1    2    0    0 -0.11499716225E+02 -0.50278546293E+01 -0.88464484259E+01  0.15355209057E+02  0.00000000000E+00 0.  1.
<mgrwt>
<rscale>  0 0.27188222E+02</rscale>
<asrwt>0</asrwt>
<pdfrwt beam="2">  1        1 0.60462513E-02 0.27188222E+02</pdfrwt>
<pdfrwt beam="1">  1       -1 0.72341702E-03 0.27188222E+02</pdfrwt>
<totfact> 0.20341128E+06</totfact>
</mgrwt>
</event>
<event>
 4    1  0.4118611E+000  0.2557717E+02  0.7546771E-02  0.1652848E+00
         -2   -1    0    0    0  501 -0.00000000000E+00  0.00000000000E+00  0.85887722480E+01  0.85887722480E+01  0.00000000000E+00 0.  1.
          2   -1    0    0  501    0  0.00000000000E+00 -0.00000000000E+00 -0.19042064054E+02  0.19042064054E+02  0.00000000000E+00 0. -1.
        -11    1    1    2    0    0 -0.79845810494E+01  0.98636839052E+01 -0.69354753567E+01  0.14461902127E+02  0.00000000000E+00 0.  1.
         11    1    1    2    0    0  0.79845810494E+01 -0.98636839052E+01 -0.35178164489E+01  0.13168934174E+02  0.00000000000E+00 0. -1.
<mgrwt>
<rscale>  0 0.25577174E+02</rscale>
<asrwt>0</asrwt>
<pdfrwt beam="2">  1        2 0.29295483E-02 0.25577174E+02</pdfrwt>
<pdfrwt beam="1">  1       -2 0.13213496E-02 0.25577174E+02</pdfrwt>
<totfact> 0.23513974E+06</totfact>
</mgrwt>
</event>
<event>
 4    1  0.4118611E+000  0.2870014E+02  0.7546771E-02  0.1612918E+00
         -3   -1    0    0    0  501 -0.00000000000E+00  0.00000000000E+00  0.72401355537E+02  0.72401355537E+02  0.00000000000E+00 0. -1.
          3   -1    0    0  501    0  0.00000000000E+00 -0.00000000000E+00 -0.28442084292E+01  0.28442084292E+01  0.00000000000E+00 0.  1.
        -11    1    1    2    0    0 -0.80089013484E+01 -0.82967802675E+01  0.12386410542E+02  0.16923422518E+02  0.00000000000E+00 0.  1.
         11    1    1    2    0    0  0.80089013484E+01  0.82967802675E+01  0.57170736566E+02  0.58322141448E+02  0.00000000000E+00 0. -1.
<mgrwt>
<rscale>  0 0.28700143E+02</rscale>
<asrwt>0</asrwt>
<pdfrwt beam="2">  1        3 0.43757058E-03 0.28700143E+02</pdfrwt>
<pdfrwt beam="1">  1       -3 0.11138669E-01 0.28700143E+02</pdfrwt>
<totfact> 0.67559586E+05</totfact>
</mgrwt>
</event>
<event>
 4    1  0.4118611E+000  0.3792648E+02  0.7546771E-02  0.1524049E+00
         -2   -1    0    0    0  501 -0.00000000000E+00  0.00000000000E+00  0.42871090430E+01  0.42871090430E+01  0.00000000000E+00 0.  1.
          2   -1    0    0  501    0  0.00000000000E+00 -0.00000000000E+00 -0.83880389660E+02  0.83880389660E+02  0.00000000000E+00 0. -1.
        -11    1    1    2    0    0 -0.67605000930E+01  0.10405076838E+02 -0.73132673128E+02  0.74177879886E+02  0.00000000000E+00 0. -1.
         11    1    1    2    0    0  0.67605000930E+01 -0.10405076838E+02 -0.64606074888E+01  0.13989618817E+02  0.00000000000E+00 0.  1.
<mgrwt>
<rscale>  0 0.37926475E+02</rscale>
<asrwt>0</asrwt>
<pdfrwt beam="2">  1        2 0.12904675E-01 0.37926475E+02</pdfrwt>
<pdfrwt beam="1">  1       -2 0.65955525E-03 0.37926475E+02</pdfrwt>
<totfact> 0.11414801E+06</totfact>
</mgrwt>
</event>
<event>
 4    1  0.4118611E+000  0.3871486E+02  0.7546771E-02  0.1517887E+00
         -4   -1    0    0    0  501 -0.00000000000E+00  0.00000000000E+00  0.21525278736E+03  0.21525278736E+03  0.00000000000E+00 0.  1.
          4   -1    0    0  501    0  0.00000000000E+00 -0.00000000000E+00 -0.17407913090E+01  0.17407913090E+01  0.00000000000E+00 0. -1.
        -13    1    1    2    0    0 -0.90534318365E+01  0.17109240602E+02  0.10597452970E+03  0.10772785938E+03  0.00000000000E+00 0. -1.
         13    1    1    2    0    0  0.90534318365E+01 -0.17109240602E+02  0.10753746635E+03  0.10926571929E+03  0.00000000000E+00 0.  1.
<mgrwt>
<rscale>  0 0.38714864E+02</rscale>
<asrwt>0</asrwt>
<pdfrwt beam="2">  1        4 0.26781422E-03 0.38714864E+02</pdfrwt>
<pdfrwt beam="1">  1       -4 0.33115792E-01 0.38714864E+02</pdfrwt>
<totfact> 0.17656154E+05</totfact>
</mgrwt>
</event>
<event>
 4    1  0.4118611E+000  0.2157960E+02  0.7546771E-02  0.1715626E+00
         -2   -1    0    0    0  501 -0.00000000000E+00  0.00000000000E+00  0.19718275372E+01  0.19718275372E+01  0.00000000000E+00 0. -1.
          2   -1    0    0  501    0  0.00000000000E+00 -0.00000000000E+00 -0.59041585107E+02  0.59041585107E+02  0.00000000000E+00 0.  1.
        -13    1    1    2    0    0 -0.20588220604E+01  0.10588125809E+02 -0.29297045959E+02  0.31219610157E+02  0.00000000000E+00 0. -1.
         13    1    1    2    0    0  0.20588220604E+01 -0.10588125809E+02 -0.27772711610E+02  0.29793802486E+02  0.00000000000E+00 0.  1.
<mgrwt>
<rscale>  0 0.21579604E+02</rscale>
<asrwt>0</asrwt>
<pdfrwt beam="2">  1        2 0.90833221E-02 0.21579604E+02</pdfrwt>
<pdfrwt beam="1">  1       -2 0.30335804E-03 0.21579604E+02</pdfrwt>
<totfact> 0.40123976E+06</totfact>
</mgrwt>
</event>
<event>
 4    1  0.4118611E+000  0.2733047E+02  0.7546771E-02  0.1629621E+00
         -2   -1    0    0    0  501 -0.00000000000E+00  0.00000000000E+00  0.40740032545E+02  0.40740032545E+02  0.00000000000E+00 0. -1.
          2   -1    0    0  501    0  0.00000000000E+00 -0.00000000000E+00 -0.45836661175E+01  0.45836661175E+01  0.00000000000E+00 0.  1.
        -13    1    1    2    0    0  0.11033120715E+02 -0.83502961156E+00  0.31377309208E+02  0.33271046877E+02  0.00000000000E+00 0. -1.
         13    1    1    2    0    0 -0.11033120715E+02  0.83502961156E+00  0.47790572199E+01  0.12052651786E+02  0.00000000000E+00 0.  1.
<mgrwt>
<rscale>  0 0.27330474E+02</rscale>
<asrwt>0</asrwt>
<pdfrwt beam="2">  1        2 0.70517943E-03 0.27330474E+02</pdfrwt>
<pdfrwt beam="1">  1       -2 0.62676971E-02 0.27330474E+02</pdfrwt>
<totfact> 0.17342642E+06</totfact>
</mgrwt>
</event>
<event>
 4    1  0.4118611E+000  0.2911851E+02  0.7546771E-02  0.1608042E+00
         -2   -1    0    0    0  501 -0.00000000000E+00  0.00000000000E+00  0.46658776859E+02  0.46658776859E+02  0.00000000000E+00 0.  1.
          2   -1    0    0  501    0  0.00000000000E+00 -0.00000000000E+00 -0.45430227881E+01  0.45430227881E+01  0.00000000000E+00 0. -1.
        -13    1    1    2    0    0 -0.45308186428E+01 -0.89162856545E+01  0.39662264742E+02  0.40903834929E+02  0.00000000000E+00 0.  1.
         13    1    1    2    0    0  0.45308186428E+01  0.89162856545E+01  0.24534893290E+01  0.10297964718E+02  0.00000000000E+00 0. -1.
<mgrwt>
<rscale>  0 0.29118509E+02</rscale>
<asrwt>0</asrwt>
<pdfrwt beam="2">  1        2 0.69892662E-03 0.29118509E+02</pdfrwt>
<pdfrwt beam="1">  1       -2 0.71782730E-02 0.29118509E+02</pdfrwt>
<totfact> 0.14728748E+06</totfact>
</mgrwt>
</event>
<event>
 4    1  0.4118611E+000  0.2055329E+02  0.7546771E-02  0.1734544E+00
         -4   -1    0    0    0  501 -0.00000000000E+00  0.00000000000E+00  0.16132944405E+02  0.16132944405E+02  0.00000000000E+00 0.  1.
          4   -1    0    0  501    0  0.00000000000E+00 -0.00000000000E+00 -0.65461964592E+01  0.65461964592E+01  0.00000000000E+00 0. -1.
        -13    1    1    2    0    0  0.58773192543E+01  0.81003841388E+01  0.22173125330E+01  0.10250638013E+02  0.00000000000E+00 0. -1.
         13    1    1    2    0    0 -0.58773192543E+01 -0.81003841388E+01  0.73694354130E+01  0.12428502851E+02  0.00000000000E+00 0.  1.
<mgrwt>
<rscale>  0 0.20553289E+02</rscale>
<asrwt>0</asrwt>
<pdfrwt beam="2">  1        4 0.10071072E-02 0.20553289E+02</pdfrwt>
<pdfrwt beam="1">  1       -4 0.24819914E-02 0.20553289E+02</pdfrwt>
<totfact> 0.12156677E+06</totfact>
</mgrwt>
</event>
<event>
 4    1  0.4118611E+000  0.2280609E+02  0.7546771E-02  0.1694673E+00
          4   -1    0    0  501    0  0.00000000000E+00  0.00000000000E+00  0.14242081556E+02  0.14242081556E+02  0.00000000000E+00 0. -1.
         -4   -1    0    0    0  501 -0.00000000000E+00 -0.00000000000E+00 -0.91299461819E+01  0.91299461819E+01  0.00000000000E+00 0.  1.
        -11    1    1    2    0    0 -0.77664856556E+01  0.76653278296E+01 -0.83572813961E+00  0.10944130468E+02  0.00000000000E+00 0. -1.
         11    1    1    2    0    0  0.77664856556E+01 -0.76653278296E+01  0.59478635133E+01  0.12427897270E+02  0.00000000000E+00 0.  1.
<mgrwt>
<rscale>  0 0.22806090E+02</rscale>
<asrwt>0</asrwt>
<pdfrwt beam="1">  1        4 0.21910895E-02 0.22806090E+02</pdfrwt>
<pdfrwt beam="2">  1       -4 0.14046071E-02 0.22806090E+02</pdfrwt>
<totfact> 0.97500072E+05</totfact>
</mgrwt>
</event>
<event>
 4    1  0.4118611E+000  0.2418404E+02  0.7546771E-02  0.1673006E+00
         -2   -1    0    0    0  501 -0.00000000000E+00  0.00000000000E+00  0.11381176259E+02  0.11381176259E+02  0.00000000000E+00 0.  1.
          2   -1    0    0  501    0  0.00000000000E+00 -0.00000000000E+00 -0.12847257164E+02  0.12847257164E+02  0.00000000000E+00 0. -1.
        -13    1    1    2    0    0 -0.37985390474E+01 -0.96893989050E+01  0.54348476830E+01  0.11740993117E+02  0.00000000000E+00 0.  1.
         13    1    1    2    0    0  0.37985390474E+01  0.96893989050E+01 -0.69009285874E+01  0.12487440306E+02  0.00000000000E+00 0. -1.
<mgrwt>
<rscale>  0 0.24184036E+02</rscale>
<asrwt>0</asrwt>
<pdfrwt beam="2">  1        2 0.19765011E-02 0.24184036E+02</pdfrwt>
<pdfrwt beam="1">  1       -2 0.17509502E-02 0.24184036E+02</pdfrwt>
<totfact> 0.25895053E+06</totfact>
</mgrwt>
</event>
<event>
 4    1  0.4118611E+000  0.2256156E+02  0.7546771E-02  0.1698717E+00
          2   -1    0    0  501    0  0.00000000000E+00  0.00000000000E+00  0.26525332002E+01  0.26525332002E+01  0.00000000000E+00 0. -1.
         -2   -1    0    0    0  501 -0.00000000000E+00 -0.00000000000E+00 -0.47975253807E+02  0.47975253807E+02  0.00000000000E+00 0.  1.
        -13    1    1    2    0    0  0.10159720563E+02  0.29352696035E+01 -0.31473172542E+02  0.33202354124E+02  0.00000000000E+00 0.  1.
         13    1    1    2    0    0 -0.10159720563E+02 -0.29352696035E+01 -0.13849548066E+02  0.17425432884E+02  0.00000000000E+00 0. -1.
<mgrwt>
<rscale>  0 0.22561556E+02</rscale>
<asrwt>0</asrwt>
<pdfrwt beam="1">  1        2 0.40808203E-03 0.22561556E+02</pdfrwt>
<pdfrwt beam="2">  1       -2 0.73808084E-02 0.22561556E+02</pdfrwt>
<totfact> 0.26134944E+06</totfact>
</mgrwt>
</event>
<event>
 4    1  0.4118611E+000  0.3283097E+02  0.7546771E-02  0.1568751E+00
          4   -1    0    0  501    0  0.00000000000E+00  0.00000000000E+00  0.10554846021E+02  0.10554846021E+02  0.00000000000E+00 0. -1.
         -4   -1    0    0    0  501 -0.00000000000E+00 -0.00000000000E+00 -0.25530271947E+02  0.25530271947E+02  0.00000000000E+00 0.  1.
        -11    1    1    2    0    0 -0.10994079799E+02 -0.10619271300E+02 -0.14066776533E+02  0.20772888956E+02  0.00000000000E+00 0.  1.
         11    1    1    2    0    0  0.10994079799E+02  0.10619271300E+02 -0.90864939280E+00  0.15312229011E+02  0.00000000000E+00 0. -1.
<mgrwt>
<rscale>  0 0.32830966E+02</rscale>
<asrwt>0</asrwt>
<pdfrwt beam="1">  1        4 0.16238225E-02 0.32830966E+02</pdfrwt>
<pdfrwt beam="2">  1       -4 0.39277341E-02 0.32830966E+02</pdfrwt>
<totfact> 0.41392127E+05</totfact>
</mgrwt>
</event>
<event>
 4    1  0.4118611E+000  0.2426676E+02  0.7546771E-02  0.1671763E+00
          2   -1    0    0  501    0  0.00000000000E+00  0.00000000000E+00  0.21923374101E+01  0.21923374101E+01  0.00000000000E+00 0. -1.
         -2   -1    0    0    0  501 -0.00000000000E+00 -0.00000000000E+00 -0.67151573375E+02  0.67151573375E+02  0.00000000000E+00 0.  1.
        -13    1    1    2    0    0 -0.47040795613E+01  0.11172247732E+02 -0.30990875774E+02  0.33277347628E+02  0.00000000000E+00 0.  1.
         13    1    1    2    0    0  0.47040795613E+01 -0.11172247732E+02 -0.33968360191E+02  0.36066563157E+02  0.00000000000E+00 0. -1.
<mgrwt>
<rscale>  0 0.24266760E+02</rscale>
<asrwt>0</asrwt>
<pdfrwt beam="1">  1        2 0.33728274E-03 0.24266760E+02</pdfrwt>
<pdfrwt beam="2">  1       -2 0.10331010E-01 0.24266760E+02</pdfrwt>
<totfact> 0.21048626E+06</totfact>
</mgrwt>
</event>
<event>
 4    1  0.4118611E+000  0.2247857E+02  0.7546771E-02  0.1700104E+00
         -1   -1    0    0    0  501 -0.00000000000E+00  0.00000000000E+00  0.30154996024E+02  0.30154996024E+02  0.00000000000E+00 0. -1.
          1   -1    0    0  501    0  0.00000000000E+00 -0.00000000000E+00 -0.41890755603E+01  0.41890755603E+01  0.00000000000E+00 0.  1.
        -11    1    1    2    0    0 -0.36276453289E+01 -0.97136563649E+01  0.19608762897E+02  0.22181490323E+02  0.00000000000E+00 0. -1.
         11    1    1    2    0    0  0.36276453289E+01  0.97136563649E+01  0.63571575669E+01  0.12162581261E+02  0.00000000000E+00 0.  1.
<mgrwt>
<rscale>  0 0.22478573E+02</rscale>
<asrwt>0</asrwt>
<pdfrwt beam="2">  1        1 0.64447318E-03 0.22478573E+02</pdfrwt>
<pdfrwt beam="1">  1       -1 0.46392300E-02 0.22478573E+02</pdfrwt>
<totfact> 0.28133501E+06</totfact>
</mgrwt>
</event>
<event>
 4    1  0.4118611E+000  0.2471300E+02  0.7546771E-02  0.1665159E+00
          1   -1    0    0  501    0  0.00000000000E+00  0.00000000000E+00  0.38460872050E+02  0.38460872050E+02  0.00000000000E+00 0. -1.
         -1   -1    0    0    0  501 -0.00000000000E+00 -0.00000000000E+00 -0.39698290099E+01  0.39698290099E+01  0.00000000000E+00 0.  1.
        -11    1    1    2    0    0  0.99746327462E+01  0.72890211962E+01  0.16825109250E+02  0.20873606054E+02  0.00000000000E+00 0. -1.
         11    1    1    2    0    0 -0.99746327462E+01 -0.72890211962E+01  0.17665933789E+02  0.21557095005E+02  0.00000000000E+00 0.  1.
<mgrwt>
<rscale>  0 0.24712999E+02</rscale>
<asrwt>0</asrwt>
<pdfrwt beam="1">  1        1 0.59170570E-02 0.24712999E+02</pdfrwt>
<pdfrwt beam="2">  1       -1 0.61074295E-03 0.24712999E+02</pdfrwt>
<totfact> 0.25368661E+06</totfact>
</mgrwt>
</event>
<event>
 4    1  0.4118611E+000  0.3507515E+02  0.7546771E-02  0.1547934E+00
          2   -1    0    0  501    0  0.00000000000E+00  0.00000000000E+00  0.89644502322E+02  0.89644502322E+02  0.00000000000E+00 0.  1.
         -2   -1    0    0    0  501 -0.00000000000E+00 -0.00000000000E+00 -0.34309585303E+01  0.34309585303E+01  0.00000000000E+00 0. -1.
        -13    1    1    2    0    0  0.13494959709E+02 -0.73336566052E+01  0.20641862046E+02  0.25729028848E+02  0.00000000000E+00 0.  1.
         13    1    1    2    0    0 -0.13494959709E+02  0.73336566052E+01  0.65571681745E+02  0.67346432004E+02  0.00000000000E+00 0. -1.
<mgrwt>
<rscale>  0 0.35075152E+02</rscale>
<asrwt>0</asrwt>
<pdfrwt beam="1">  1        2 0.13791460E-01 0.35075152E+02</pdfrwt>
<pdfrwt beam="2">  1       -2 0.52783984E-03 0.35075152E+02</pdfrwt>
<totfact> 0.14018361E+06</totfact>
</mgrwt>
</event>
<event>
 4    1  0.4118611E+000  0.3107109E+02  0.7546771E-02  0.1586542E+00
         -4   -1    0    0    0  501 -0.00000000000E+00  0.00000000000E+00  0.42006192111E+01  0.42006192111E+01  0.00000000000E+00 0. -1.
          4   -1    0    0  501    0  0.00000000000E+00 -0.00000000000E+00 -0.57456553489E+02  0.57456553489E+02  0.00000000000E+00 0.  1.
        -11    1    1    2    0    0 -0.11409554181E+02  0.10538526406E+02 -0.25956090481E+02  0.30248257776E+02  0.00000000000E+00 0.  1.
         11    1    1    2    0    0  0.11409554181E+02 -0.10538526406E+02 -0.27299843798E+02  0.31408914925E+02  0.00000000000E+00 0. -1.
<mgrwt>
<rscale>  0 0.31071086E+02</rscale>
<asrwt>0</asrwt>
<pdfrwt beam="2">  1        4 0.88394691E-02 0.31071086E+02</pdfrwt>
<pdfrwt beam="1">  1       -4 0.64624916E-03 0.31071086E+02</pdfrwt>
<totfact> 0.43029998E+05</totfact>
</mgrwt>
</event>
<event>
 4    1  0.4118611E+000  0.2456401E+02  0.7546771E-02  0.1667344E+00
         -2   -1    0    0    0  501 -0.00000000000E+00  0.00000000000E+00  0.47717949838E+02  0.47717949838E+02  0.00000000000E+00 0.  1.
          2   -1    0    0  501    0  0.00000000000E+00 -0.00000000000E+00 -0.31612342700E+01  0.31612342700E+01  0.00000000000E+00 0. -1.
        -13    1    1    2    0    0 -0.10442489362E+02  0.35535809591E+01  0.11090688435E+02  0.15642151121E+02  0.00000000000E+00 0. -1.
         13    1    1    2    0    0  0.10442489362E+02 -0.35535809591E+01  0.33466027133E+02  0.35237032988E+02  0.00000000000E+00 0.  1.
<mgrwt>
<rscale>  0 0.24564008E+02</rscale>
<asrwt>0</asrwt>
<pdfrwt beam="2">  1        2 0.48634377E-03 0.24564008E+02</pdfrwt>
<pdfrwt beam="1">  1       -2 0.73412225E-02 0.24564008E+02</pdfrwt>
<totfact> 0.21622109E+06</totfact>
</mgrwt>
</event>
<event>
 4    1  0.4118611E+000  0.2259898E+02  0.7546771E-02  0.1698094E+00
         -2   -1    0    0    0  501 -0.00000000000E+00  0.00000000000E+00  0.50096964885E+01  0.50096964885E+01  0.00000000000E+00 0.  1.
          2   -1    0    0  501    0  0.00000000000E+00 -0.00000000000E+00 -0.25486267890E+02  0.25486267890E+02  0.00000000000E+00 0. -1.
        -11    1    1    2    0    0 -0.58427289623E+01  0.96617196647E+01 -0.96467472971E+01  0.14850792639E+02  0.00000000000E+00 0.  1.
         11    1    1    2    0    0  0.58427289623E+01 -0.96617196647E+01 -0.10829824104E+02  0.15645171739E+02  0.00000000000E+00 0. -1.
<mgrwt>
<rscale>  0 0.22598979E+02</rscale>
<asrwt>0</asrwt>
<pdfrwt beam="2">  1        2 0.39209643E-02 0.22598979E+02</pdfrwt>
<pdfrwt beam="1">  1       -2 0.77072254E-03 0.22598979E+02</pdfrwt>
<totfact> 0.32296633E+06</totfact>
</mgrwt>
</event>
<event>
 4    1  0.4118611E+000  0.3188701E+02  0.7546771E-02  0.1578120E+00
         -2   -1    0    0    0  501 -0.00000000000E+00  0.00000000000E+00  0.82664346831E+01  0.82664346831E+01  0.00000000000E+00 0.  1.
          2   -1    0    0  501    0  0.00000000000E+00 -0.00000000000E+00 -0.30750298572E+02  0.30750298572E+02  0.00000000000E+00 0. -1.
        -11    1    1    2    0    0  0.13445067162E+02 -0.81759697877E+01 -0.81034634048E+01  0.17699786217E+02  0.00000000000E+00 0. -1.
         11    1    1    2    0    0 -0.13445067162E+02  0.81759697877E+01 -0.14380400484E+02  0.21316947039E+02  0.00000000000E+00 0.  1.
<mgrwt>
<rscale>  0 0.31887009E+02</rscale>
<asrwt>0</asrwt>
<pdfrwt beam="2">  1        2 0.47308152E-02 0.31887009E+02</pdfrwt>
<pdfrwt beam="1">  1       -2 0.12717592E-02 0.31887009E+02</pdfrwt>
<totfact> 0.14633343E+06</totfact>
</mgrwt>
</event>
<event>
 4    1  0.4118611E+000  0.2605436E+02  0.7546771E-02  0.1646304E+00
          2   -1    0    0  501    0  0.00000000000E+00  0.00000000000E+00  0.94918700120E+02  0.94918700120E+02  0.00000000000E+00 0.  1.
         -2   -1    0    0    0  501 -0.00000000000E+00 -0.00000000000E+00 -0.17879241494E+01  0.17879241494E+01  0.00000000000E+00 0. -1.
        -13    1    1    2    0    0  0.12975800919E+02  0.11190240527E+01  0.45490833266E+02  0.47318490420E+02  0.00000000000E+00 0.  1.
         13    1    1    2    0    0 -0.12975800919E+02 -0.11190240527E+01  0.47639942704E+02  0.49388133850E+02  0.00000000000E+00 0. -1.
<mgrwt>
<rscale>  0 0.26054361E+02</rscale>
<asrwt>0</asrwt>
<pdfrwt beam="1">  1        2 0.14602873E-01 0.26054361E+02</pdfrwt>
<pdfrwt beam="2">  1       -2 0.27506533E-03 0.26054361E+02</pdfrwt>
<totfact> 0.28686787E+06</totfact>
</mgrwt>
</event>
<event>
 4    1  0.4118611E+000  0.4042892E+02  0.7546771E-02  0.1505079E+00
         -2   -1    0    0    0  501 -0.00000000000E+00  0.00000000000E+00  0.21884307396E+01  0.21884307396E+01  0.00000000000E+00 0.  1.
          2   -1    0    0  501    0  0.00000000000E+00 -0.00000000000E+00 -0.18672025888E+03  0.18672025888E+03  0.00000000000E+00 0. -1.
        -11    1    1    2    0    0 -0.13599645392E+02 -0.14739107952E+02 -0.80414877513E+02  0.82877887180E+02  0.00000000000E+00 0.  1.
         11    1    1    2    0    0  0.13599645392E+02  0.14739107952E+02 -0.10411695063E+03  0.10603080244E+03  0.00000000000E+00 0. -1.
<mgrwt>
<rscale>  0 0.40428918E+02</rscale>
<asrwt>0</asrwt>
<pdfrwt beam="2">  1        2 0.28726199E-01 0.40428918E+02</pdfrwt>
<pdfrwt beam="1">  1       -2 0.33668159E-03 0.40428918E+02</pdfrwt>
<totfact> 0.12170872E+06</totfact>
</mgrwt>
</event>
<event>
 4    1  0.4118611E+000  0.3724463E+02  0.7546771E-02  0.1529526E+00
         -4   -1    0    0    0  501 -0.00000000000E+00  0.00000000000E+00  0.19246874419E+02  0.19246874419E+02  0.00000000000E+00 0.  1.
          4   -1    0    0  501    0  0.00000000000E+00 -0.00000000000E+00 -0.18018021759E+02  0.18018021759E+02  0.00000000000E+00 0. -1.
        -13    1    1    2    0    0  0.73844123446E+01  0.15725506151E+02 -0.60951539075E+01  0.18411191991E+02  0.00000000000E+00 0. -1.
         13    1    1    2    0    0 -0.73844123446E+01 -0.15725506151E+02  0.73240065672E+01  0.18853704187E+02  0.00000000000E+00 0.  1.
<mgrwt>
<rscale>  0 0.37244629E+02</rscale>
<asrwt>0</asrwt>
<pdfrwt beam="2">  1        4 0.27720034E-02 0.37244629E+02</pdfrwt>
<pdfrwt beam="1">  1       -4 0.29610576E-02 0.37244629E+02</pdfrwt>
<totfact> 0.30714971E+05</totfact>
</mgrwt>
</event>
<event>
 4    1  0.4118611E+000  0.2285386E+02  0.7546771E-02  0.1693890E+00
          2   -1    0    0  501    0  0.00000000000E+00  0.00000000000E+00  0.48257361534E+01  0.48257361534E+01  0.00000000000E+00 0.  1.
         -2   -1    0    0    0  501 -0.00000000000E+00 -0.00000000000E+00 -0.27057999323E+02  0.27057999323E+02  0.00000000000E+00 0. -1.
        -13    1    1    2    0    0 -0.11123786517E+02  0.14268240570E+01 -0.14172771756E+02  0.18073237469E+02  0.00000000000E+00 0.  1.
         13    1    1    2    0    0  0.11123786517E+02 -0.14268240570E+01 -0.80594914135E+01  0.13810498007E+02  0.00000000000E+00 0. -1.
<mgrwt>
<rscale>  0 0.22853863E+02</rscale>
<asrwt>0</asrwt>
<pdfrwt beam="1">  1        2 0.74242095E-03 0.22853863E+02</pdfrwt>
<pdfrwt beam="2">  1       -2 0.41627691E-02 0.22853863E+02</pdfrwt>
<totfact> 0.27168577E+06</totfact>
</mgrwt>
</event>
<event>
 4    1  0.4118611E+000  0.3022454E+02  0.7546771E-02  0.1595620E+00
          2   -1    0    0  501    0  0.00000000000E+00  0.00000000000E+00  0.15932097092E+02  0.15932097092E+02  0.00000000000E+00 0. -1.
         -2   -1    0    0    0  501 -0.00000000000E+00 -0.00000000000E+00 -0.14334628227E+02  0.14334628227E+02  0.00000000000E+00 0.  1.
        -13    1    1    2    0    0 -0.71331025734E+01 -0.12455491761E+02 -0.39365294759E+01  0.14883436822E+02  0.00000000000E+00 0.  1.
         13    1    1    2    0    0  0.71331025734E+01  0.12455491761E+02  0.55339983411E+01  0.15383288496E+02  0.00000000000E+00 0. -1.
<mgrwt>
<rscale>  0 0.30224539E+02</rscale>
<asrwt>0</asrwt>
<pdfrwt beam="1">  1        2 0.24510919E-02 0.30224539E+02</pdfrwt>
<pdfrwt beam="2">  1       -2 0.22053274E-02 0.30224539E+02</pdfrwt>
<totfact> 0.15468722E+06</totfact>
</mgrwt>
</event>
<event>
 4    1  0.4118611E+000  0.4087267E+02  0.7546771E-02  0.1501886E+00
         -4   -1    0    0    0  501 -0.00000000000E+00  0.00000000000E+00  0.64273979685E+01  0.64273979685E+01  0.00000000000E+00 0. -1.
          4   -1    0    0  501    0  0.00000000000E+00 -0.00000000000E+00 -0.64978687216E+02  0.64978687216E+02  0.00000000000E+00 0.  1.
        -11    1    1    2    0    0  0.68802718567E+01 -0.17774699820E+02 -0.42157102222E+02  0.46265531039E+02  0.00000000000E+00 0. -1.
         11    1    1    2    0    0 -0.68802718567E+01  0.17774699820E+02 -0.16394187025E+02  0.25140554145E+02  0.00000000000E+00 0.  1.
<mgrwt>
<rscale>  0 0.40872675E+02</rscale>
<asrwt>0</asrwt>
<pdfrwt beam="2">  1        4 0.99967212E-02 0.40872675E+02</pdfrwt>
<pdfrwt beam="1">  1       -4 0.98883045E-03 0.40872675E+02</pdfrwt>
<totfact> 0.22085633E+05</totfact>
</mgrwt>
</event>
<event>
 4    1  0.4118611E+000  0.7284063E+02  0.7546771E-02  0.1350691E+00
          4   -1    0    0  501    0  0.00000000000E+00  0.00000000000E+00  0.97401979519E+02  0.97401979519E+02  0.00000000000E+00 0. -1.
         -4   -1    0    0    0  501 -0.00000000000E+00 -0.00000000000E+00 -0.13618196821E+02  0.13618196821E+02  0.00000000000E+00 0.  1.
        -11    1    1    2    0    0  0.23518446331E+02 -0.27416864196E+02  0.34802116522E+02  0.50159635909E+02  0.00000000000E+00 0. -1.
         11    1    1    2    0    0 -0.23518446331E+02  0.27416864196E+02  0.48981666176E+02  0.60860540431E+02  0.00000000000E+00 0.  1.
<mgrwt>
<rscale>  0 0.72840630E+02</rscale>
<asrwt>0</asrwt>
<pdfrwt beam="1">  1        4 0.14984920E-01 0.72840630E+02</pdfrwt>
<pdfrwt beam="2">  1       -4 0.20951073E-02 0.72840630E+02</pdfrwt>
<totfact> 0.46861009E+04</totfact>
</mgrwt>
</event>
<event>
 4    1  0.4118611E+000  0.2586173E+02  0.7546771E-02  0.1648924E+00
         -1   -1    0    0    0  501 -0.00000000000E+00  0.00000000000E+00  0.19963607477E+01  0.19963607477E+01  0.00000000000E+00 0.  1.
          1   -1    0    0  501    0  0.00000000000E+00 -0.00000000000E+00 -0.83756009314E+02  0.83756009314E+02  0.00000000000E+00 0. -1.
        -11    1    1    2    0    0  0.86096428299E+01  0.76802742856E+01 -0.60241000324E+02  0.61335884136E+02  0.00000000000E+00 0. -1.
         11    1    1    2    0    0 -0.86096428299E+01 -0.76802742856E+01 -0.21518648242E+02  0.24416485925E+02  0.00000000000E+00 0.  1.
<mgrwt>
<rscale>  0 0.25861725E+02</rscale>
<asrwt>0</asrwt>
<pdfrwt beam="2">  1        1 0.12885540E-01 0.25861725E+02</pdfrwt>
<pdfrwt beam="1">  1       -1 0.30713243E-03 0.25861725E+02</pdfrwt>
<totfact> 0.24360578E+06</totfact>
</mgrwt>
</event>
<event>
 4    1  0.4118611E+000  0.5121033E+02  0.7546771E-02  0.1438921E+00
          2   -1    0    0  501    0  0.00000000000E+00  0.00000000000E+00  0.11856524000E+02  0.11856524000E+02  0.00000000000E+00 0. -1.
         -2   -1    0    0    0  501 -0.00000000000E+00 -0.00000000000E+00 -0.55296520252E+02  0.55296520252E+02  0.00000000000E+00 0.  1.
        -13    1    1    2    0    0 -0.15053026500E+02 -0.38468302178E+01  0.49688827661E+01  0.16312004950E+02  0.00000000000E+00 0. -1.
         13    1    1    2    0    0  0.15053026500E+02  0.38468302178E+01 -0.48408879018E+02  0.50841039302E+02  0.00000000000E+00 0.  1.
<mgrwt>
<rscale>  0 0.51210332E+02</rscale>
<asrwt>0</asrwt>
<pdfrwt beam="1">  1        2 0.18240806E-02 0.51210332E+02</pdfrwt>
<pdfrwt beam="2">  1       -2 0.85071570E-02 0.51210332E+02</pdfrwt>
<totfact> 0.37805470E+05</totfact>
</mgrwt>
</event>
<event>
 4    1  0.4118611E+000  0.2860442E+02  0.7546771E-02  0.1614048E+00
         -2   -1    0    0    0  501 -0.00000000000E+00  0.00000000000E+00  0.80105524220E+01  0.80105524220E+01  0.00000000000E+00 0.  1.
          2   -1    0    0  501    0  0.00000000000E+00 -0.00000000000E+00 -0.25535473585E+02  0.25535473585E+02  0.00000000000E+00 0. -1.
        -11    1    1    2    0    0 -0.11456782627E+02 -0.80537383369E+01 -0.12168037650E+02  0.18552134907E+02  0.00000000000E+00 0. -1.
         11    1    1    2    0    0  0.11456782627E+02  0.80537383369E+01 -0.53568835134E+01  0.14993891100E+02  0.00000000000E+00 0.  1.
<mgrwt>
<rscale>  0 0.28604423E+02</rscale>
<asrwt>0</asrwt>
<pdfrwt beam="2">  1        2 0.39285344E-02 0.28604423E+02</pdfrwt>
<pdfrwt beam="1">  1       -2 0.12323927E-02 0.28604423E+02</pdfrwt>
<totfact> 0.18589416E+06</totfact>
</mgrwt>
</event>
<event>
 4    1  0.4118611E+000  0.2532739E+02  0.7546771E-02  0.1656344E+00
         -4   -1    0    0    0  501 -0.00000000000E+00  0.00000000000E+00  0.94851735961E+01  0.94851735961E+01  0.00000000000E+00 0.  1.
          4   -1    0    0  501    0  0.00000000000E+00 -0.00000000000E+00 -0.16907349119E+02  0.16907349119E+02  0.00000000000E+00 0. -1.
        -11    1    1    2    0    0  0.10804906361E+00 -0.11757093911E+02  0.11908031793E+01  0.11817738533E+02  0.00000000000E+00 0. -1.
         11    1    1    2    0    0 -0.10804906361E+00  0.11757093911E+02 -0.86129787020E+01  0.14574784182E+02  0.00000000000E+00 0.  1.
<mgrwt>
<rscale>  0 0.25327388E+02</rscale>
<asrwt>0</asrwt>
<pdfrwt beam="2">  1        4 0.26011306E-02 0.25327388E+02</pdfrwt>
<pdfrwt beam="1">  1       -4 0.14592575E-02 0.25327388E+02</pdfrwt>
<totfact> 0.76856145E+05</totfact>
</mgrwt>
</event>
<event>
 4    1  0.4118611E+000  0.4201751E+02  0.7546771E-02  0.1493869E+00
         -2   -1    0    0    0  501 -0.00000000000E+00  0.00000000000E+00  0.11059569755E+03  0.11059569755E+03  0.00000000000E+00 0.  1.
          2   -1    0    0  501    0  0.00000000000E+00 -0.00000000000E+00 -0.39908226833E+01  0.39908226833E+01  0.00000000000E+00 0. -1.
        -11    1    1    2    0    0  0.16095565458E+02  0.53786228038E+01  0.19529033143E+02  0.25872378054E+02  0.00000000000E+00 0. -1.
         11    1    1    2    0    0 -0.16095565458E+02 -0.53786228038E+01  0.87075841720E+02  0.88714142175E+02  0.00000000000E+00 0.  1.
<mgrwt>
<rscale>  0 0.42017512E+02</rscale>
<asrwt>0</asrwt>
<pdfrwt beam="2">  1        2 0.61397280E-03 0.42017512E+02</pdfrwt>
<pdfrwt beam="1">  1       -2 0.17014720E-01 0.42017512E+02</pdfrwt>
<totfact> 0.52431983E+05</totfact>
</mgrwt>
</event>
<event>
 4    1  0.4118611E+000  0.5728879E+02  0.7546771E-02  0.1409575E+00
         -2   -1    0    0    0  501 -0.00000000000E+00  0.00000000000E+00  0.56699916994E+02  0.56699916994E+02  0.00000000000E+00 0. -1.
          2   -1    0    0  501    0  0.00000000000E+00 -0.00000000000E+00 -0.14470947083E+02  0.14470947083E+02  0.00000000000E+00 0.  1.
        -13    1    1    2    0    0  0.15251198127E+02  0.14628852900E+02  0.45136518738E+02  0.49838817254E+02  0.00000000000E+00 0. -1.
         13    1    1    2    0    0 -0.15251198127E+02 -0.14628852900E+02 -0.29075488270E+01  0.21332046823E+02  0.00000000000E+00 0.  1.
<mgrwt>
<rscale>  0 0.57288795E+02</rscale>
<asrwt>0</asrwt>
<pdfrwt beam="2">  1        2 0.22262996E-02 0.57288795E+02</pdfrwt>
<pdfrwt beam="1">  1       -2 0.87230640E-02 0.57288795E+02</pdfrwt>
<totfact> 0.28691573E+05</totfact>
</mgrwt>
</event>
<event>
 4    1  0.4118611E+000  0.1847913E+03  0.7546771E-02  0.1163245E+00
         -4   -1    0    0    0  501 -0.00000000000E+00  0.00000000000E+00  0.48232998492E+02  0.48232998492E+02  0.00000000000E+00 0.  1.
          4   -1    0    0  501    0  0.00000000000E+00 -0.00000000000E+00 -0.17699409908E+03  0.17699409908E+03  0.00000000000E+00 0. -1.
        -13    1    1    2    0    0 -0.34589443410E+02  0.38919209683E+02  0.28648312532E+02  0.59429456406E+02  0.00000000000E+00 0.  1.
         13    1    1    2    0    0  0.34589443410E+02 -0.38919209683E+02 -0.15740941312E+03  0.16579764116E+03  0.00000000000E+00 0. -1.
<mgrwt>
<rscale>  0 0.18479130E+03</rscale>
<asrwt>0</asrwt>
<pdfrwt beam="2">  1        4 0.27229861E-01 0.18479130E+03</pdfrwt>
<pdfrwt beam="1">  1       -4 0.74204613E-02 0.18479130E+03</pdfrwt>
<totfact> 0.28036359E+03</totfact>
</mgrwt>
</event>
<event>
 4    1  0.4118611E+000  0.2075525E+02  0.7546771E-02  0.1730713E+00
          2   -1    0    0  501    0  0.00000000000E+00  0.00000000000E+00  0.53884368120E+01  0.53884368120E+01  0.00000000000E+00 0.  1.
         -2   -1    0    0    0  501 -0.00000000000E+00 -0.00000000000E+00 -0.19986334143E+02  0.19986334143E+02  0.00000000000E+00 0. -1.
        -13    1    1    2    0    0  0.20816204548E+01  0.98300840590E+01 -0.41269942335E+01  0.10862586144E+02  0.00000000000E+00 0.  1.
         13    1    1    2    0    0 -0.20816204548E+01 -0.98300840590E+01 -0.10470903098E+02  0.14512184812E+02  0.00000000000E+00 0. -1.
<mgrwt>
<rscale>  0 0.20755250E+02</rscale>
<asrwt>0</asrwt>
<pdfrwt beam="1">  1        2 0.82899027E-03 0.20755250E+02</pdfrwt>
<pdfrwt beam="2">  1       -2 0.30748207E-02 0.20755250E+02</pdfrwt>
<totfact> 0.34532387E+06</totfact>
</mgrwt>
</event>
<event>
 4    1  0.4118611E+000  0.2159048E+02  0.7546771E-02  0.1715432E+00
          2   -1    0    0  501    0  0.00000000000E+00  0.00000000000E+00  0.59074954217E+02  0.59074954217E+02  0.00000000000E+00 0.  1.
         -2   -1    0    0    0  501 -0.00000000000E+00 -0.00000000000E+00 -0.19727015434E+01  0.19727015434E+01  0.00000000000E+00 0. -1.
        -11    1    1    2    0    0  0.53532093067E+01 -0.91507425883E+01  0.22794965634E+02  0.25139677763E+02  0.00000000000E+00 0.  1.
         11    1    1    2    0    0 -0.53532093067E+01  0.91507425883E+01  0.34307287040E+02  0.35907977997E+02  0.00000000000E+00 0. -1.
<mgrwt>
<rscale>  0 0.21590484E+02</rscale>
<asrwt>0</asrwt>
<pdfrwt beam="1">  1        2 0.90884531E-02 0.21590484E+02</pdfrwt>
<pdfrwt beam="2">  1       -2 0.30349259E-03 0.21590484E+02</pdfrwt>
<totfact> 0.40082259E+06</totfact>
</mgrwt>
</event>
<event>
 4    1  0.4118611E+000  0.4976943E+02  0.7546771E-02  0.1446589E+00
          1   -1    0    0  501    0  0.00000000000E+00  0.00000000000E+00  0.88675844102E+01  0.88675844102E+01  0.00000000000E+00 0. -1.
         -1   -1    0    0    0  501 -0.00000000000E+00 -0.00000000000E+00 -0.69832891700E+02  0.69832891700E+02  0.00000000000E+00 0.  1.
        -11    1    1    2    0    0  0.14956847044E+02  0.19701330159E+02 -0.34784078098E+02  0.42682335605E+02  0.00000000000E+00 0. -1.
         11    1    1    2    0    0 -0.14956847044E+02 -0.19701330159E+02 -0.26181229192E+02  0.36018140506E+02  0.00000000000E+00 0.  1.
<mgrwt>
<rscale>  0 0.49769431E+02</rscale>
<asrwt>0</asrwt>
<pdfrwt beam="1">  1        1 0.13642437E-02 0.49769431E+02</pdfrwt>
<pdfrwt beam="2">  1       -1 0.10743522E-01 0.49769431E+02</pdfrwt>
<totfact> 0.39703083E+05</totfact>
</mgrwt>
</event>
<event>
 4    1  0.4118611E+000  0.4676083E+02  0.7546771E-02  0.1463639E+00
          2   -1    0    0  501    0  0.00000000000E+00  0.00000000000E+00  0.19507803935E+03  0.19507803935E+03  0.00000000000E+00 0.  1.
         -2   -1    0    0    0  501 -0.00000000000E+00 -0.00000000000E+00 -0.28021800636E+01  0.28021800636E+01  0.00000000000E+00 0. -1.
        -11    1    1    2    0    0 -0.15890361227E+02 -0.16974656007E+02  0.85771203541E+02  0.88866989841E+02  0.00000000000E+00 0.  1.
         11    1    1    2    0    0  0.15890361227E+02  0.16974656007E+02  0.10650465575E+03  0.10901322957E+03  0.00000000000E+00 0. -1.
<mgrwt>
<rscale>  0 0.46760829E+02</rscale>
<asrwt>0</asrwt>
<pdfrwt beam="1">  1        2 0.30011995E-01 0.46760829E+02</pdfrwt>
<pdfrwt beam="2">  1       -2 0.43110478E-03 0.46760829E+02</pdfrwt>
<totfact> 0.86285047E+05</totfact>
</mgrwt>
</event>
<event>
 4    1  0.4118611E+000  0.4654497E+02  0.7546771E-02  0.1464921E+00
         -4   -1    0    0    0  501 -0.00000000000E+00  0.00000000000E+00  0.10620624539E+03  0.10620624539E+03  0.00000000000E+00 0.  1.
          4   -1    0    0  501    0  0.00000000000E+00 -0.00000000000E+00 -0.50995933282E+01  0.50995933282E+01  0.00000000000E+00 0. -1.
        -11    1    1    2    0    0  0.81864225344E+01 -0.14668513100E+02  0.89070267319E+02  0.90640472808E+02  0.00000000000E+00 0.  1.
         11    1    1    2    0    0 -0.81864225344E+01  0.14668513100E+02  0.12036384739E+02  0.20665365907E+02  0.00000000000E+00 0. -1.
<mgrwt>
<rscale>  0 0.46544974E+02</rscale>
<asrwt>0</asrwt>
<pdfrwt beam="2">  1        4 0.78455290E-03 0.46544974E+02</pdfrwt>
<pdfrwt beam="1">  1       -4 0.16339421E-01 0.46544974E+02</pdfrwt>
<totfact> 0.14492452E+05</totfact>
</mgrwt>
</event>
<event>
 4    1  0.4118611E+000  0.2325464E+02  0.7546771E-02  0.1687415E+00
          3   -1    0    0  501    0  0.00000000000E+00  0.00000000000E+00  0.53559978924E+01  0.53559978924E+01  0.00000000000E+00 0.  1.
         -3   -1    0    0    0  501 -0.00000000000E+00 -0.00000000000E+00 -0.25241709658E+02  0.25241709658E+02  0.00000000000E+00 0. -1.
        -13    1    1    2    0    0 -0.10860677668E+02  0.34371008335E+01 -0.13007935101E+02  0.17290874968E+02  0.00000000000E+00 0. -1.
         13    1    1    2    0    0  0.10860677668E+02 -0.34371008335E+01 -0.68777766645E+01  0.13306832583E+02  0.00000000000E+00 0.  1.
<mgrwt>
<rscale>  0 0.23254638E+02</rscale>
<asrwt>0</asrwt>
<pdfrwt beam="1">  1        3 0.82399965E-03 0.23254638E+02</pdfrwt>
<pdfrwt beam="2">  1       -3 0.38833401E-02 0.23254638E+02</pdfrwt>
<totfact> 0.12386136E+06</totfact>
</mgrwt>
</event>
<event>
 4    1  0.4118611E+000  0.4083129E+02  0.7546771E-02  0.1502182E+00
         -2   -1    0    0    0  501 -0.00000000000E+00  0.00000000000E+00  0.37117241081E+02  0.37117241081E+02  0.00000000000E+00 0.  1.
          2   -1    0    0  501    0  0.00000000000E+00 -0.00000000000E+00 -0.11229244041E+02  0.11229244041E+02  0.00000000000E+00 0. -1.
        -13    1    1    2    0    0  0.18656785791E+02  0.75425185758E+01  0.17017098140E+02  0.26354257182E+02  0.00000000000E+00 0.  1.
         13    1    1    2    0    0 -0.18656785791E+02 -0.75425185758E+01  0.88708988993E+01  0.21992227940E+02  0.00000000000E+00 0. -1.
<mgrwt>
<rscale>  0 0.40831290E+02</rscale>
<asrwt>0</asrwt>
<pdfrwt beam="2">  1        2 0.17275760E-02 0.40831290E+02</pdfrwt>
<pdfrwt beam="1">  1       -2 0.57103447E-02 0.40831290E+02</pdfrwt>
<totfact> 0.69175989E+05</totfact>
</mgrwt>
</event>
<event>
 4    1  0.4118611E+000  0.2442082E+02  0.7546771E-02  0.1669463E+00
          1   -1    0    0  501    0  0.00000000000E+00  0.00000000000E+00  0.53219096908E+02  0.53219096908E+02  0.00000000000E+00 0.  1.
         -1   -1    0    0    0  501 -0.00000000000E+00 -0.00000000000E+00 -0.28015153508E+01  0.28015153508E+01  0.00000000000E+00 0. -1.
        -11    1    1    2    0    0 -0.80851792119E+01 -0.87700406351E+01  0.19222286240E+02  0.22622555645E+02  0.00000000000E+00 0. -1.
         11    1    1    2    0    0  0.80851792119E+01  0.87700406351E+01  0.31195295318E+02  0.33398056614E+02  0.00000000000E+00 0.  1.
<mgrwt>
<rscale>  0 0.24420820E+02</rscale>
<asrwt>0</asrwt>
<pdfrwt beam="1">  1        1 0.81875526E-02 0.24420820E+02</pdfrwt>
<pdfrwt beam="2">  1       -1 0.43100240E-03 0.24420820E+02</pdfrwt>
<totfact> 0.26679915E+06</totfact>
</mgrwt>
</event>
<event>
 4    1  0.4118611E+000  0.2572571E+02  0.7546771E-02  0.1650792E+00
         -2   -1    0    0    0  501 -0.00000000000E+00  0.00000000000E+00  0.20210813374E+02  0.20210813374E+02  0.00000000000E+00 0.  1.
          2   -1    0    0  501    0  0.00000000000E+00 -0.00000000000E+00 -0.81863610965E+01  0.81863610965E+01  0.00000000000E+00 0. -1.
        -11    1    1    2    0    0 -0.10691430308E+02 -0.66688494475E+01  0.88636464374E+01  0.15405987899E+02  0.00000000000E+00 0.  1.
         11    1    1    2    0    0  0.10691430308E+02  0.66688494475E+01  0.31608058401E+01  0.12991186571E+02  0.00000000000E+00 0. -1.
<mgrwt>
<rscale>  0 0.25725708E+02</rscale>
<asrwt>0</asrwt>
<pdfrwt beam="2">  1        2 0.12594402E-02 0.25725708E+02</pdfrwt>
<pdfrwt beam="1">  1       -2 0.31093559E-02 0.25725708E+02</pdfrwt>
<totfact> 0.21462200E+06</totfact>
</mgrwt>
</event>
<event>
 4    1  0.4118611E+000  0.4252166E+02  0.7546771E-02  0.1490434E+00
         -2   -1    0    0    0  501 -0.00000000000E+00  0.00000000000E+00  0.58645711931E+02  0.58645711931E+02  0.00000000000E+00 0. -1.
          2   -1    0    0  501    0  0.00000000000E+00 -0.00000000000E+00 -0.77076884944E+01  0.77076884944E+01  0.00000000000E+00 0.  1.
        -13    1    1    2    0    0  0.11139261040E+02 -0.48060586115E+01 -0.17761917549E+01  0.12261166055E+02  0.00000000000E+00 0.  1.
         13    1    1    2    0    0 -0.11139261040E+02  0.48060586115E+01  0.52714215191E+02  0.54092234370E+02  0.00000000000E+00 0. -1.
<mgrwt>
<rscale>  0 0.42521659E+02</rscale>
<asrwt>0</asrwt>
<pdfrwt beam="2">  1        2 0.11857983E-02 0.42521659E+02</pdfrwt>
<pdfrwt beam="1">  1       -2 0.90224169E-02 0.42521659E+02</pdfrwt>
<totfact> 0.58446606E+05</totfact>
</mgrwt>
</event>
<event>
 4    1  0.4118611E+000  0.3252626E+02  0.7546771E-02  0.1571733E+00
         -2   -1    0    0    0  501 -0.00000000000E+00  0.00000000000E+00  0.19179528643E+01  0.19179528643E+01  0.00000000000E+00 0.  1.
          2   -1    0    0  501    0  0.00000000000E+00 -0.00000000000E+00 -0.13790193714E+03  0.13790193714E+03  0.00000000000E+00 0. -1.
        -13    1    1    2    0    0  0.14920237576E+02  0.63341994144E+01 -0.73684849017E+02  0.75446620509E+02  0.00000000000E+00 0.  1.
         13    1    1    2    0    0 -0.14920237576E+02 -0.63341994144E+01 -0.62299135256E+02  0.64373269493E+02  0.00000000000E+00 0. -1.
<mgrwt>
<rscale>  0 0.32526261E+02</rscale>
<asrwt>0</asrwt>
<pdfrwt beam="2">  1        2 0.21215682E-01 0.32526261E+02</pdfrwt>
<pdfrwt beam="1">  1       -2 0.29506968E-03 0.32526261E+02</pdfrwt>
<totfact> 0.18761498E+06</totfact>
</mgrwt>
</event>
<event>
 4    1  0.4118611E+000  0.2198812E+02  0.7546771E-02  0.1708458E+00
         -2   -1    0    0    0  501 -0.00000000000E+00  0.00000000000E+00  0.10890127014E+01  0.10890127014E+01  0.00000000000E+00 0. -1.
          2   -1    0    0  501    0  0.00000000000E+00 -0.00000000000E+00 -0.11098982645E+03  0.11098982645E+03  0.00000000000E+00 0.  1.
        -13    1    1    2    0    0  0.72338549586E+01  0.82731944794E+01 -0.53379940053E+02  0.54499471599E+02  0.00000000000E+00 0. -1.
         13    1    1    2    0    0 -0.72338549586E+01 -0.82731944794E+01 -0.56520873691E+02  0.57579367548E+02  0.00000000000E+00 0.  1.
<mgrwt>
<rscale>  0 0.21988118E+02</rscale>
<asrwt>0</asrwt>
<pdfrwt beam="2">  1        2 0.17075361E-01 0.21988118E+02</pdfrwt>
<pdfrwt beam="1">  1       -2 0.16754039E-03 0.21988118E+02</pdfrwt>
<totfact> 0.43791437E+06</totfact>
</mgrwt>
</event>
<event>
 4    1  0.4118611E+000  0.2692606E+02  0.7546771E-02  0.1634785E+00
         -4   -1    0    0    0  501 -0.00000000000E+00  0.00000000000E+00  0.18508297704E+01  0.18508297704E+01  0.00000000000E+00 0.  1.
          4   -1    0    0  501    0  0.00000000000E+00 -0.00000000000E+00 -0.97930739656E+02  0.97930739656E+02  0.00000000000E+00 0. -1.
        -13    1    1    2    0    0  0.10657536419E+02  0.67120844648E+01 -0.30415959493E+02  0.32920597690E+02  0.00000000000E+00 0.  1.
         13    1    1    2    0    0 -0.10657536419E+02 -0.67120844648E+01 -0.65663950393E+02  0.66860971737E+02  0.00000000000E+00 0. -1.
<mgrwt>
<rscale>  0 0.26926056E+02</rscale>
<asrwt>0</asrwt>
<pdfrwt beam="2">  1        4 0.15066266E-01 0.26926056E+02</pdfrwt>
<pdfrwt beam="1">  1       -4 0.28474307E-03 0.26926056E+02</pdfrwt>
<totfact> 0.52729027E+05</totfact>
</mgrwt>
</event>
<event>
 4    1  0.4118611E+000  0.3129572E+02  0.7546771E-02  0.1584193E+00
         -2   -1    0    0    0  501 -0.00000000000E+00  0.00000000000E+00  0.16105961716E+03  0.16105961716E+03  0.00000000000E+00 0.  1.
          2   -1    0    0  501    0  0.00000000000E+00 -0.00000000000E+00 -0.15202786482E+01  0.15202786482E+01  0.00000000000E+00 0. -1.
        -11    1    1    2    0    0 -0.15515491328E+02  0.18877175743E+01  0.75876749420E+02  0.77469833170E+02  0.00000000000E+00 0. -1.
         11    1    1    2    0    0  0.15515491328E+02 -0.18877175743E+01  0.83662589091E+02  0.85110062638E+02  0.00000000000E+00 0.  1.
<mgrwt>
<rscale>  0 0.31295718E+02</rscale>
<asrwt>0</asrwt>
<pdfrwt beam="2">  1        2 0.23388915E-03 0.31295718E+02</pdfrwt>
<pdfrwt beam="1">  1       -2 0.24778389E-01 0.31295718E+02</pdfrwt>
<totfact> 0.94061672E+05</totfact>
</mgrwt>
</event>
<event>
 4    1  0.4118611E+000  0.2278815E+02  0.7546771E-02  0.1694967E+00
          4   -1    0    0  501    0  0.00000000000E+00  0.00000000000E+00  0.13038270100E+03  0.13038270100E+03  0.00000000000E+00 0. -1.
         -4   -1    0    0    0  501 -0.00000000000E+00 -0.00000000000E+00 -0.99572221542E+00  0.99572221542E+00  0.00000000000E+00 0.  1.
        -11    1    1    2    0    0  0.13697778533E+01  0.11304353556E+02  0.67001382072E+02  0.67962121069E+02  0.00000000000E+00 0.  1.
         11    1    1    2    0    0 -0.13697778533E+01 -0.11304353556E+02  0.62385596710E+02  0.63416302143E+02  0.00000000000E+00 0. -1.
<mgrwt>
<rscale>  0 0.22788151E+02</rscale>
<asrwt>0</asrwt>
<pdfrwt beam="1">  1        4 0.20058863E-01 0.22788151E+02</pdfrwt>
<pdfrwt beam="2">  1       -4 0.15318814E-03 0.22788151E+02</pdfrwt>
<totfact> 0.68966431E+05</totfact>
</mgrwt>
</event>
<event>
 4    1  0.4118611E+000  0.6907655E+02  0.7546771E-02  0.1363262E+00
         -4   -1    0    0    0  501 -0.00000000000E+00  0.00000000000E+00  0.11781500191E+03  0.11781500191E+03  0.00000000000E+00 0.  1.
          4   -1    0    0  501    0  0.00000000000E+00 -0.00000000000E+00 -0.10125130820E+02  0.10125130820E+02  0.00000000000E+00 0. -1.
        -11    1    1    2    0    0 -0.25945058632E+02  0.22390971197E+02  0.61787755198E+02  0.70655702890E+02  0.00000000000E+00 0. -1.
         11    1    1    2    0    0  0.25945058632E+02 -0.22390971197E+02  0.45902115891E+02  0.57284429837E+02  0.00000000000E+00 0.  1.
<mgrwt>
<rscale>  0 0.69076546E+02</rscale>
<asrwt>0</asrwt>
<pdfrwt beam="2">  1        4 0.15577125E-02 0.69076546E+02</pdfrwt>
<pdfrwt beam="1">  1       -4 0.18125384E-01 0.69076546E+02</pdfrwt>
<totfact> 0.51701695E+04</totfact>
</mgrwt>
</event>
<event>
 4    1  0.4118611E+000  0.6513267E+02  0.7546771E-02  0.1377473E+00
          2   -1    0    0  501    0  0.00000000000E+00  0.00000000000E+00  0.91500468568E+02  0.91500468568E+02  0.00000000000E+00 0.  1.
         -2   -1    0    0    0  501 -0.00000000000E+00 -0.00000000000E+00 -0.11590826107E+02  0.11590826107E+02  0.00000000000E+00 0. -1.
        -11    1    1    2    0    0 -0.48663100216E+01  0.21026415436E+02  0.13537408142E+01  0.21624609442E+02  0.00000000000E+00 0. -1.
         11    1    1    2    0    0  0.48663100216E+01 -0.21026415436E+02  0.78555901647E+02  0.81466685233E+02  0.00000000000E+00 0.  1.
<mgrwt>
<rscale>  0 0.65132665E+02</rscale>
<asrwt>0</asrwt>
<pdfrwt beam="1">  1        2 0.14076995E-01 0.65132665E+02</pdfrwt>
<pdfrwt beam="2">  1       -2 0.17832041E-02 0.65132665E+02</pdfrwt>
<totfact> 0.29564585E+05</totfact>
</mgrwt>
</event>
<event>
 4    1  0.4118611E+000  0.2976589E+02  0.7546771E-02  0.1600691E+00
          2   -1    0    0  501    0  0.00000000000E+00  0.00000000000E+00  0.60174687750E+01  0.60174687750E+01  0.00000000000E+00 0. -1.
         -2   -1    0    0    0  501 -0.00000000000E+00 -0.00000000000E+00 -0.36809827388E+02  0.36809827388E+02  0.00000000000E+00 0.  1.
        -13    1    1    2    0    0 -0.13266316200E+02 -0.22351920479E+01 -0.62384662353E+01  0.14829352312E+02  0.00000000000E+00 0. -1.
         13    1    1    2    0    0  0.13266316200E+02  0.22351920479E+01 -0.24553892378E+02  0.27997943852E+02  0.00000000000E+00 0.  1.
<mgrwt>
<rscale>  0 0.29765886E+02</rscale>
<asrwt>0</asrwt>
<pdfrwt beam="1">  1        2 0.92576443E-03 0.29765886E+02</pdfrwt>
<pdfrwt beam="2">  1       -2 0.56630504E-02 0.29765886E+02</pdfrwt>
<totfact> 0.14453783E+06</totfact>
</mgrwt>
</event>
<event>
 4    1  0.4118611E+000  0.4313759E+02  0.7546771E-02  0.1486315E+00
          1   -1    0    0  501    0  0.00000000000E+00  0.00000000000E+00  0.61919101496E+01  0.61919101496E+01  0.00000000000E+00 0. -1.
         -1   -1    0    0    0  501 -0.00000000000E+00 -0.00000000000E+00 -0.75132365741E+02  0.75132365741E+02  0.00000000000E+00 0.  1.
        -11    1    1    2    0    0 -0.15441265887E+02  0.11749512561E+02 -0.16712089139E+02  0.25608156142E+02  0.00000000000E+00 0. -1.
         11    1    1    2    0    0  0.15441265887E+02 -0.11749512561E+02 -0.52228366452E+02  0.55716119749E+02  0.00000000000E+00 0.  1.
<mgrwt>
<rscale>  0 0.43137587E+02</rscale>
<asrwt>0</asrwt>
<pdfrwt beam="1">  1        1 0.95260156E-03 0.43137587E+02</pdfrwt>
<pdfrwt beam="2">  1       -1 0.11558826E-01 0.43137587E+02</pdfrwt>
<totfact> 0.55819825E+05</totfact>
</mgrwt>
</event>
<event>
 4    1  0.4118611E+000  0.3863224E+02  0.7546771E-02  0.1518525E+00
         -4   -1    0    0    0  501 -0.00000000000E+00  0.00000000000E+00  0.35237692021E+02  0.35237692021E+02  0.00000000000E+00 0.  1.
          4   -1    0    0  501    0  0.00000000000E+00 -0.00000000000E+00 -0.10588447298E+02  0.10588447298E+02  0.00000000000E+00 0. -1.
        -11    1    1    2    0    0 -0.13987979724E+02  0.11046245461E+02  0.21156096875E+02  0.27663397306E+02  0.00000000000E+00 0.  1.
         11    1    1    2    0    0  0.13987979724E+02 -0.11046245461E+02  0.34931478480E+01  0.18162742013E+02  0.00000000000E+00 0. -1.
<mgrwt>
<rscale>  0 0.38632238E+02</rscale>
<asrwt>0</asrwt>
<pdfrwt beam="2">  1        4 0.16289919E-02 0.38632238E+02</pdfrwt>
<pdfrwt beam="1">  1       -4 0.54211833E-02 0.38632238E+02</pdfrwt>
<totfact> 0.27351160E+05</totfact>
</mgrwt>
</event>
<event>
 4    1  0.4118611E+000  0.2511807E+02  0.7546771E-02  0.1659312E+00
         -4   -1    0    0    0  501 -0.00000000000E+00  0.00000000000E+00  0.35279644668E+01  0.35279644668E+01  0.00000000000E+00 0.  1.
          4   -1    0    0  501    0  0.00000000000E+00 -0.00000000000E+00 -0.44708321643E+02  0.44708321643E+02  0.00000000000E+00 0. -1.
        -13    1    1    2    0    0 -0.12172295576E+02  0.51878098493E+00 -0.26445125362E+02  0.29116637318E+02  0.00000000000E+00 0. -1.
         13    1    1    2    0    0  0.12172295576E+02 -0.51878098493E+00 -0.14735231813E+02  0.19119648791E+02  0.00000000000E+00 0.  1.
<mgrwt>
<rscale>  0 0.25118071E+02</rscale>
<asrwt>0</asrwt>
<pdfrwt beam="2">  1        4 0.68782027E-02 0.25118071E+02</pdfrwt>
<pdfrwt beam="1">  1       -4 0.54276381E-03 0.25118071E+02</pdfrwt>
<totfact> 0.72008258E+05</totfact>
</mgrwt>
</event>
<event>
 4    1  0.4118611E+000  0.3102967E+02  0.7546771E-02  0.1586978E+00
         -4   -1    0    0    0  501 -0.00000000000E+00  0.00000000000E+00  0.11465007222E+02  0.11465007222E+02  0.00000000000E+00 0. -1.
          4   -1    0    0  501    0  0.00000000000E+00 -0.00000000000E+00 -0.20995198592E+02  0.20995198592E+02  0.00000000000E+00 0.  1.
        -13    1    1    2    0    0  0.12898602860E+01  0.15396704754E+02 -0.32901855771E+01  0.15797074981E+02  0.00000000000E+00 0. -1.
         13    1    1    2    0    0 -0.12898602860E+01 -0.15396704754E+02 -0.62400057927E+01  0.16663130832E+02  0.00000000000E+00 0.  1.
<mgrwt>
<rscale>  0 0.31029670E+02</rscale>
<asrwt>0</asrwt>
<pdfrwt beam="2">  1        4 0.32300305E-02 0.31029670E+02</pdfrwt>
<pdfrwt beam="1">  1       -4 0.17638473E-02 0.31029670E+02</pdfrwt>
<totfact> 0.47739770E+05</totfact>
</mgrwt>
</event>
<event>
 4    1  0.4118611E+000  0.2634430E+02  0.7546771E-02  0.1642412E+00
         -2   -1    0    0    0  501 -0.00000000000E+00  0.00000000000E+00  0.32338010958E+02  0.32338010958E+02  0.00000000000E+00 0. -1.
          2   -1    0    0  501    0  0.00000000000E+00 -0.00000000000E+00 -0.53653754690E+01  0.53653754690E+01  0.00000000000E+00 0.  1.
        -13    1    1    2    0    0 -0.99856296944E+01  0.64687594080E+01  0.21575692586E+02  0.24638753199E+02  0.00000000000E+00 0. -1.
         13    1    1    2    0    0  0.99856296944E+01 -0.64687594080E+01  0.53969429036E+01  0.13064633228E+02  0.00000000000E+00 0.  1.
<mgrwt>
<rscale>  0 0.26344303E+02</rscale>
<asrwt>0</asrwt>
<pdfrwt beam="2">  1        2 0.82544240E-03 0.26344303E+02</pdfrwt>
<pdfrwt beam="1">  1       -2 0.49750785E-02 0.26344303E+02</pdfrwt>
<totfact> 0.19387094E+06</totfact>
</mgrwt>
</event>
<event>
 4    1  0.4118611E+000  0.2661018E+02  0.7546771E-02  0.1638896E+00
          2   -1    0    0  501    0  0.00000000000E+00  0.00000000000E+00  0.71190021350E+02  0.71190021350E+02  0.00000000000E+00 0. -1.
         -2   -1    0    0    0  501 -0.00000000000E+00 -0.00000000000E+00 -0.24866611349E+01  0.24866611349E+01  0.00000000000E+00 0.  1.
        -11    1    1    2    0    0  0.13202392573E+02  0.15905752007E+01  0.33137341607E+02  0.35705973000E+02  0.00000000000E+00 0. -1.
         11    1    1    2    0    0 -0.13202392573E+02 -0.15905752007E+01  0.35566018609E+02  0.37970709485E+02  0.00000000000E+00 0.  1.
<mgrwt>
<rscale>  0 0.26610183E+02</rscale>
<asrwt>0</asrwt>
<pdfrwt beam="1">  1        2 0.10952309E-01 0.26610183E+02</pdfrwt>
<pdfrwt beam="2">  1       -2 0.38256331E-03 0.26610183E+02</pdfrwt>
<totfact> 0.25693040E+06</totfact>
</mgrwt>
</event>
<event>
 4    1  0.4118611E+000  0.2420643E+02  0.7546771E-02  0.1672669E+00
         -1   -1    0    0    0  501 -0.00000000000E+00  0.00000000000E+00  0.65477518676E+02  0.65477518676E+02  0.00000000000E+00 0.  1.
          1   -1    0    0  501    0  0.00000000000E+00 -0.00000000000E+00 -0.22372229479E+01  0.22372229479E+01  0.00000000000E+00 0. -1.
        -13    1    1    2    0    0  0.12084586356E+02  0.23778759471E+00  0.33376133674E+02  0.35497324820E+02  0.00000000000E+00 0.  1.
         13    1    1    2    0    0 -0.12084586356E+02 -0.23778759471E+00  0.29864162053E+02  0.32217416804E+02  0.00000000000E+00 0. -1.
<mgrwt>
<rscale>  0 0.24206430E+02</rscale>
<asrwt>0</asrwt>
<pdfrwt beam="2">  1        1 0.34418820E-03 0.24206430E+02</pdfrwt>
<pdfrwt beam="1">  1       -1 0.10073463E-01 0.24206430E+02</pdfrwt>
<totfact> 0.22133791E+06</totfact>
</mgrwt>
</event>
<event>
 4    1  0.4118611E+000  0.2659324E+02  0.7546771E-02  0.1639119E+00
         -2   -1    0    0    0  501 -0.00000000000E+00  0.00000000000E+00  0.25624398385E+02  0.25624398385E+02  0.00000000000E+00 0. -1.
          2   -1    0    0  501    0  0.00000000000E+00 -0.00000000000E+00 -0.68996776355E+01  0.68996776355E+01  0.00000000000E+00 0.  1.
        -13    1    1    2    0    0 -0.12255370796E+00 -0.10935172278E+02  0.18612719832E+02  0.21587643496E+02  0.00000000000E+00 0. -1.
         13    1    1    2    0    0  0.12255370796E+00  0.10935172278E+02  0.11200091778E+00  0.10936432525E+02  0.00000000000E+00 0.  1.
<mgrwt>
<rscale>  0 0.26593239E+02</rscale>
<asrwt>0</asrwt>
<pdfrwt beam="2">  1        2 0.10614889E-02 0.26593239E+02</pdfrwt>
<pdfrwt beam="1">  1       -2 0.39422151E-02 0.26593239E+02</pdfrwt>
<totfact> 0.19462017E+06</totfact>
</mgrwt>
</event>
<event>
 4    1  0.4118611E+000  0.3607898E+02  0.7546771E-02  0.1539223E+00
          2   -1    0    0  501    0  0.00000000000E+00  0.00000000000E+00  0.48640951792E+01  0.48640951792E+01  0.00000000000E+00 0. -1.
         -2   -1    0    0    0  501 -0.00000000000E+00 -0.00000000000E+00 -0.66903130739E+02  0.66903130739E+02  0.00000000000E+00 0.  1.
        -11    1    1    2    0    0  0.16512629158E+02 -0.38543255416E+00 -0.45447202169E+02  0.48355596004E+02  0.00000000000E+00 0. -1.
         11    1    1    2    0    0 -0.16512629158E+02  0.38543255416E+00 -0.16591833391E+02  0.23411629914E+02  0.00000000000E+00 0.  1.
<mgrwt>
<rscale>  0 0.36078980E+02</rscale>
<asrwt>0</asrwt>
<pdfrwt beam="1">  1        2 0.74832236E-03 0.36078980E+02</pdfrwt>
<pdfrwt beam="2">  1       -2 0.10292789E-01 0.36078980E+02</pdfrwt>
<totfact> 0.84307816E+05</totfact>
</mgrwt>
</event>
<event>
 4    1  0.4118611E+000  0.4385678E+02  0.7546771E-02  0.1481607E+00
          2   -1    0    0  501    0  0.00000000000E+00  0.00000000000E+00  0.93261630308E+02  0.93261630308E+02  0.00000000000E+00 0.  1.
         -2   -1    0    0    0  501 -0.00000000000E+00 -0.00000000000E+00 -0.51559719222E+01  0.51559719222E+01  0.00000000000E+00 0. -1.
        -11    1    1    2    0    0  0.18680366622E+02 -0.86260167380E+01  0.61067850128E+02  0.64441031813E+02  0.00000000000E+00 0.  1.
         11    1    1    2    0    0 -0.18680366622E+02  0.86260167380E+01  0.27037808258E+02  0.33976570417E+02  0.00000000000E+00 0. -1.
<mgrwt>
<rscale>  0 0.43856783E+02</rscale>
<asrwt>0</asrwt>
<pdfrwt beam="1">  1        2 0.14347942E-01 0.43856783E+02</pdfrwt>
<pdfrwt beam="2">  1       -2 0.79322652E-03 0.43856783E+02</pdfrwt>
<totfact> 0.81773630E+05</totfact>
</mgrwt>
</event>
<event>
 4    1  0.4118611E+000  0.2652717E+02  0.7546771E-02  0.1639988E+00
         -2   -1    0    0    0  501 -0.00000000000E+00  0.00000000000E+00  0.18898320755E+02  0.18898320755E+02  0.00000000000E+00 0. -1.
          2   -1    0    0  501    0  0.00000000000E+00 -0.00000000000E+00 -0.93089062466E+01  0.93089062466E+01  0.00000000000E+00 0.  1.
        -13    1    1    2    0    0 -0.13146526561E+02 -0.15362306934E+01  0.38852427375E+01  0.13794429183E+02  0.00000000000E+00 0.  1.
         13    1    1    2    0    0  0.13146526561E+02  0.15362306934E+01  0.57041717709E+01  0.14412797818E+02  0.00000000000E+00 0. -1.
<mgrwt>
<rscale>  0 0.26527171E+02</rscale>
<asrwt>0</asrwt>
<pdfrwt beam="2">  1        2 0.14321394E-02 0.26527171E+02</pdfrwt>
<pdfrwt beam="1">  1       -2 0.29074340E-02 0.26527171E+02</pdfrwt>
<totfact> 0.20165056E+06</totfact>
</mgrwt>
</event>
<event>
 4    1  0.4118611E+000  0.2931485E+02  0.7546771E-02  0.1605788E+00
          1   -1    0    0  501    0  0.00000000000E+00  0.00000000000E+00  0.89172664300E+01  0.89172664300E+01  0.00000000000E+00 0.  1.
         -1   -1    0    0    0  501 -0.00000000000E+00 -0.00000000000E+00 -0.24092596696E+02  0.24092596696E+02  0.00000000000E+00 0. -1.
        -13    1    1    2    0    0  0.51408441945E+01 -0.13627489194E+02 -0.94390991149E+01  0.17356074812E+02  0.00000000000E+00 0.  1.
         13    1    1    2    0    0 -0.51408441945E+01  0.13627489194E+02 -0.57362311509E+01  0.15653788314E+02  0.00000000000E+00 0. -1.
<mgrwt>
<rscale>  0 0.29314850E+02</rscale>
<asrwt>0</asrwt>
<pdfrwt beam="1">  1        1 0.13718871E-02 0.29314850E+02</pdfrwt>
<pdfrwt beam="2">  1       -1 0.37065534E-02 0.29314850E+02</pdfrwt>
<totfact> 0.15593827E+06</totfact>
</mgrwt>
</event>
<event>
 4    1  0.4118611E+000  0.5738246E+02  0.7546771E-02  0.1409157E+00
          2   -1    0    0  501    0  0.00000000000E+00  0.00000000000E+00  0.45211060885E+02  0.45211060885E+02  0.00000000000E+00 0. -1.
         -2   -1    0    0    0  501 -0.00000000000E+00 -0.00000000000E+00 -0.18207636317E+02  0.18207636317E+02  0.00000000000E+00 0.  1.
        -13    1    1    2    0    0 -0.11279554845E+02  0.24439052796E+02  0.25223597411E+01  0.27034384730E+02  0.00000000000E+00 0. -1.
         13    1    1    2    0    0  0.11279554845E+02 -0.24439052796E+02  0.24481064826E+02  0.36384312472E+02  0.00000000000E+00 0.  1.
<mgrwt>
<rscale>  0 0.57382456E+02</rscale>
<asrwt>0</asrwt>
<pdfrwt beam="1">  1        2 0.69555478E-02 0.57382456E+02</pdfrwt>
<pdfrwt beam="2">  1       -2 0.28011748E-02 0.57382456E+02</pdfrwt>
<totfact> 0.35146054E+05</totfact>
</mgrwt>
</event>
<event>
 4    1  0.4118611E+000  0.3297337E+02  0.7546771E-02  0.1567371E+00
          2   -1    0    0  501    0  0.00000000000E+00  0.00000000000E+00  0.21037268971E+02  0.21037268971E+02  0.00000000000E+00 0. -1.
         -2   -1    0    0    0  501 -0.00000000000E+00 -0.00000000000E+00 -0.12920437431E+02  0.12920437431E+02  0.00000000000E+00 0.  1.
        -11    1    1    2    0    0 -0.73330358958E-01  0.16391554246E+02  0.58781654407E+01  0.17413823730E+02  0.00000000000E+00 0. -1.
         11    1    1    2    0    0  0.73330358958E-01 -0.16391554246E+02  0.22386660998E+01  0.16543882672E+02  0.00000000000E+00 0.  1.
<mgrwt>
<rscale>  0 0.32973366E+02</rscale>
<asrwt>0</asrwt>
<pdfrwt beam="1">  1        2 0.32365029E-02 0.32973366E+02</pdfrwt>
<pdfrwt beam="2">  1       -2 0.19877596E-02 0.32973366E+02</pdfrwt>
<totfact> 0.12876947E+06</totfact>
</mgrwt>
</event>
<event>
 4    1  0.4118611E+000  0.3152679E+02  0.7546771E-02  0.1581800E+00
          2   -1    0    0  501    0  0.00000000000E+00  0.00000000000E+00  0.22292107657E+02  0.22292107657E+02  0.00000000000E+00 0. -1.
         -2   -1    0    0    0  501 -0.00000000000E+00 -0.00000000000E+00 -0.11146753493E+02  0.11146753493E+02  0.00000000000E+00 0.  1.
        -11    1    1    2    0    0 -0.20567611208E+01 -0.14521621947E+02  0.11700334083E+02  0.18761811958E+02  0.00000000000E+00 0. -1.
         11    1    1    2    0    0  0.20567611208E+01  0.14521621947E+02 -0.55497991899E+00  0.14677049193E+02  0.00000000000E+00 0.  1.
<mgrwt>
<rscale>  0 0.31526790E+02</rscale>
<asrwt>0</asrwt>
<pdfrwt beam="1">  1        2 0.34295550E-02 0.31526790E+02</pdfrwt>
<pdfrwt beam="2">  1       -2 0.17148852E-02 0.31526790E+02</pdfrwt>
<totfact> 0.14469737E+06</totfact>
</mgrwt>
</event>
<event>
 4    1  0.4118611E+000  0.2827837E+02  0.7546771E-02  0.1617938E+00
         -4   -1    0    0    0  501 -0.00000000000E+00  0.00000000000E+00  0.20964144441E+02  0.20964144441E+02  0.00000000000E+00 0.  1.
          4   -1    0    0  501    0  0.00000000000E+00 -0.00000000000E+00 -0.95361170083E+01  0.95361170083E+01  0.00000000000E+00 0. -1.
        -13    1    1    2    0    0  0.46419734544E+01  0.10733995603E+02 -0.28570699144E+01  0.12038663865E+02  0.00000000000E+00 0. -1.
         13    1    1    2    0    0 -0.46419734544E+01 -0.10733995603E+02  0.14285097347E+02  0.18461597584E+02  0.00000000000E+00 0.  1.
<mgrwt>
<rscale>  0 0.28278369E+02</rscale>
<asrwt>0</asrwt>
<pdfrwt beam="2">  1        4 0.14670949E-02 0.28278369E+02</pdfrwt>
<pdfrwt beam="1">  1       -4 0.32252530E-02 0.28278369E+02</pdfrwt>
<totfact> 0.59299792E+05</totfact>
</mgrwt>
</event>
<event>
 4    1  0.4118611E+000  0.2066591E+02  0.7546771E-02  0.1732401E+00
         -4   -1    0    0    0  501 -0.00000000000E+00  0.00000000000E+00  0.20500437701E+01  0.20500437701E+01  0.00000000000E+00 0. -1.
          4   -1    0    0  501    0  0.00000000000E+00 -0.00000000000E+00 -0.52081774742E+02  0.52081774742E+02  0.00000000000E+00 0.  1.
        -13    1    1    2    0    0 -0.64232011451E+00  0.10247615997E+02 -0.28052208234E+02  0.29872271350E+02  0.00000000000E+00 0.  1.
         13    1    1    2    0    0  0.64232011451E+00 -0.10247615997E+02 -0.21979522737E+02  0.24259547162E+02  0.00000000000E+00 0. -1.
<mgrwt>
<rscale>  0 0.20665906E+02</rscale>
<asrwt>0</asrwt>
<pdfrwt beam="2">  1        4 0.80125798E-02 0.20665906E+02</pdfrwt>
<pdfrwt beam="1">  1       -4 0.31539138E-03 0.20665906E+02</pdfrwt>
<totfact> 0.10619649E+06</totfact>
</mgrwt>
</event>
<event>
 4    1  0.4118611E+000  0.3788529E+02  0.7546771E-02  0.1524376E+00
          4   -1    0    0  501    0  0.00000000000E+00  0.00000000000E+00  0.11153652173E+03  0.11153652173E+03  0.00000000000E+00 0.  1.
         -4   -1    0    0    0  501 -0.00000000000E+00 -0.00000000000E+00 -0.32170962586E+01  0.32170962586E+01  0.00000000000E+00 0. -1.
        -11    1    1    2    0    0 -0.63427876059E+01 -0.15725180038E+02  0.28581184324E+02  0.33232459121E+02  0.00000000000E+00 0. -1.
         11    1    1    2    0    0  0.63427876059E+01  0.15725180038E+02  0.79738241144E+02  0.81521158864E+02  0.00000000000E+00 0.  1.
<mgrwt>
<rscale>  0 0.37885286E+02</rscale>
<asrwt>0</asrwt>
<pdfrwt beam="1">  1        4 0.17159462E-01 0.37885286E+02</pdfrwt>
<pdfrwt beam="2">  1       -4 0.49493797E-03 0.37885286E+02</pdfrwt>
<totfact> 0.23457955E+05</totfact>
</mgrwt>
</event>
<event>
 4    1  0.4118611E+000  0.2490490E+02  0.7546771E-02  0.1662372E+00
          2   -1    0    0  501    0  0.00000000000E+00  0.00000000000E+00  0.93173804592E+02  0.93173804592E+02  0.00000000000E+00 0. -1.
         -2   -1    0    0    0  501 -0.00000000000E+00 -0.00000000000E+00 -0.16642396565E+01  0.16642396565E+01  0.00000000000E+00 0.  1.
        -13    1    1    2    0    0  0.11326779719E+02 -0.74700386507E+00  0.26259576213E+02  0.28608028532E+02  0.00000000000E+00 0.  1.
         13    1    1    2    0    0 -0.11326779719E+02  0.74700386507E+00  0.65249988722E+02  0.66230015717E+02  0.00000000000E+00 0. -1.
<mgrwt>
<rscale>  0 0.24904902E+02</rscale>
<asrwt>0</asrwt>
<pdfrwt beam="1">  1        2 0.14334427E-01 0.24904902E+02</pdfrwt>
<pdfrwt beam="2">  1       -2 0.25603694E-03 0.24904902E+02</pdfrwt>
<totfact> 0.31693246E+06</totfact>
</mgrwt>
</event>
<event>
 4    1  0.4118611E+000  0.2241437E+02  0.7546771E-02  0.1701183E+00
          2   -1    0    0  501    0  0.00000000000E+00  0.00000000000E+00  0.28968245665E+02  0.28968245665E+02  0.00000000000E+00 0.  1.
         -2   -1    0    0    0  501 -0.00000000000E+00 -0.00000000000E+00 -0.43358148781E+01  0.43358148781E+01  0.00000000000E+00 0. -1.
        -11    1    1    2    0    0 -0.46359669828E+01  0.92275566161E+01  0.18786164804E+02  0.21437350093E+02  0.00000000000E+00 0.  1.
         11    1    1    2    0    0  0.46359669828E+01 -0.92275566161E+01  0.58462659838E+01  0.11866710451E+02  0.00000000000E+00 0. -1.
<mgrwt>
<rscale>  0 0.22414366E+02</rscale>
<asrwt>0</asrwt>
<pdfrwt beam="1">  1        2 0.44566531E-02 0.22414366E+02</pdfrwt>
<pdfrwt beam="2">  1       -2 0.66704846E-03 0.22414366E+02</pdfrwt>
<totfact> 0.33366451E+06</totfact>
</mgrwt>
</event>
<event>
 4    1  0.4118611E+000  0.2126884E+02  0.7546771E-02  0.1721213E+00
          2   -1    0    0  501    0  0.00000000000E+00  0.00000000000E+00  0.77474581727E+01  0.77474581727E+01  0.00000000000E+00 0.  1.
         -2   -1    0    0    0  501 -0.00000000000E+00 -0.00000000000E+00 -0.14597164318E+02  0.14597164318E+02  0.00000000000E+00 0. -1.
        -13    1    1    2    0    0  0.85442297240E+01 -0.55326652157E+01 -0.19072563642E+00  0.10180894962E+02  0.00000000000E+00 0.  1.
         13    1    1    2    0    0 -0.85442297240E+01  0.55326652157E+01 -0.66589805091E+01  0.12163727528E+02  0.00000000000E+00 0. -1.
<mgrwt>
<rscale>  0 0.21268843E+02</rscale>
<asrwt>0</asrwt>
<pdfrwt beam="1">  1        2 0.11919166E-02 0.21268843E+02</pdfrwt>
<pdfrwt beam="2">  1       -2 0.22457176E-02 0.21268843E+02</pdfrwt>
<totfact> 0.33582815E+06</totfact>
</mgrwt>
</event>
<event>
 4    1  0.4118611E+000  0.2359808E+02  0.7546771E-02  0.1681995E+00
         -2   -1    0    0    0  501 -0.00000000000E+00  0.00000000000E+00  0.20915217517E+02  0.20915217517E+02  0.00000000000E+00 0. -1.
          2   -1    0    0  501    0  0.00000000000E+00 -0.00000000000E+00 -0.66562682001E+01  0.66562682001E+01  0.00000000000E+00 0.  1.
        -13    1    1    2    0    0  0.98336137722E+01 -0.51907687158E+01  0.11740243056E+02  0.16170261182E+02  0.00000000000E+00 0. -1.
         13    1    1    2    0    0 -0.98336137722E+01  0.51907687158E+01  0.25187062617E+01  0.11401224536E+02  0.00000000000E+00 0.  1.
<mgrwt>
<rscale>  0 0.23598076E+02</rscale>
<asrwt>0</asrwt>
<pdfrwt beam="2">  1        2 0.10240413E-02 0.23598076E+02</pdfrwt>
<pdfrwt beam="1">  1       -2 0.32177257E-02 0.23598076E+02</pdfrwt>
<totfact> 0.25930754E+06</totfact>
</mgrwt>
</event>
<event>
 4    1  0.4118611E+000  0.3754996E+02  0.7546771E-02  0.1527056E+00
          2   -1    0    0  501    0  0.00000000000E+00  0.00000000000E+00  0.73109208514E+02  0.73109208514E+02  0.00000000000E+00 0.  1.
         -2   -1    0    0    0  501 -0.00000000000E+00 -0.00000000000E+00 -0.48215535571E+01  0.48215535571E+01  0.00000000000E+00 0. -1.
        -11    1    1    2    0    0  0.13991945566E+02 -0.23477173071E+01  0.86229922913E+01  0.16602479132E+02  0.00000000000E+00 0. -1.
         11    1    1    2    0    0 -0.13991945566E+02  0.23477173071E+01  0.59664662666E+02  0.61328282939E+02  0.00000000000E+00 0.  1.
<mgrwt>
<rscale>  0 0.37549965E+02</rscale>
<asrwt>0</asrwt>
<pdfrwt beam="1">  1        2 0.11247570E-01 0.37549965E+02</pdfrwt>
<pdfrwt beam="2">  1       -2 0.74177752E-03 0.37549965E+02</pdfrwt>
<totfact> 0.11349292E+06</totfact>
</mgrwt>
</event>
<event>
 4    1  0.4118611E+000  0.5807018E+02  0.7546771E-02  0.1406113E+00
          2   -1    0    0  501    0  0.00000000000E+00  0.00000000000E+00  0.59493716047E+02  0.59493716047E+02  0.00000000000E+00 0. -1.
         -2   -1    0    0    0  501 -0.00000000000E+00 -0.00000000000E+00 -0.14170174492E+02  0.14170174492E+02  0.00000000000E+00 0.  1.
        -13    1    1    2    0    0  0.15782873649E+02  0.19425482631E+02  0.41330663751E+02  0.48318446190E+02  0.00000000000E+00 0. -1.
         13    1    1    2    0    0 -0.15782873649E+02 -0.19425482631E+02  0.39928778033E+01  0.25345444349E+02  0.00000000000E+00 0.  1.
<mgrwt>
<rscale>  0 0.58070176E+02</rscale>
<asrwt>0</asrwt>
<pdfrwt beam="1">  1        2 0.91528792E-02 0.58070176E+02</pdfrwt>
<pdfrwt beam="2">  1       -2 0.21800269E-02 0.58070176E+02</pdfrwt>
<totfact> 0.36029942E+05</totfact>
</mgrwt>
</event>
<event>
 4    1  0.4118611E+000  0.4425783E+02  0.7546771E-02  0.1479029E+00
         -4   -1    0    0    0  501 -0.00000000000E+00  0.00000000000E+00  0.31965075184E+02  0.31965075184E+02  0.00000000000E+00 0.  1.
          4   -1    0    0  501    0  0.00000000000E+00 -0.00000000000E+00 -0.15319494965E+02  0.15319494965E+02  0.00000000000E+00 0. -1.
        -11    1    1    2    0    0  0.14313068753E+02 -0.12961476682E+01 -0.96548925929E+01  0.17313604098E+02  0.00000000000E+00 0. -1.
         11    1    1    2    0    0 -0.14313068753E+02  0.12961476682E+01  0.26300472812E+02  0.29970966051E+02  0.00000000000E+00 0.  1.
<mgrwt>
<rscale>  0 0.44257827E+02</rscale>
<asrwt>0</asrwt>
<pdfrwt beam="2">  1        4 0.23568454E-02 0.44257827E+02</pdfrwt>
<pdfrwt beam="1">  1       -4 0.49177038E-02 0.44257827E+02</pdfrwt>
<totfact> 0.19634005E+05</totfact>
</mgrwt>
</event>
<event>
 4    1  0.4118611E+000  0.2869858E+02  0.7546771E-02  0.1612936E+00
          2   -1    0    0  501    0  0.00000000000E+00  0.00000000000E+00  0.12419330766E+03  0.12419330766E+03  0.00000000000E+00 0.  1.
         -2   -1    0    0    0  501 -0.00000000000E+00 -0.00000000000E+00 -0.16579169795E+01  0.16579169795E+01  0.00000000000E+00 0. -1.
        -13    1    1    2    0    0 -0.12454583909E+02  0.69786685687E+01  0.54937509596E+02  0.56762209576E+02  0.00000000000E+00 0. -1.
         13    1    1    2    0    0  0.12454583909E+02 -0.69786685687E+01  0.67597881081E+02  0.69089015060E+02  0.00000000000E+00 0.  1.
<mgrwt>
<rscale>  0 0.28698585E+02</rscale>
<asrwt>0</asrwt>
<pdfrwt beam="1">  1        2 0.19106655E-01 0.28698585E+02</pdfrwt>
<pdfrwt beam="2">  1       -2 0.25506425E-03 0.28698585E+02</pdfrwt>
<totfact> 0.24490544E+06</totfact>
</mgrwt>
</event>
<event>
 4    1  0.4118611E+000  0.2172320E+02  0.7546771E-02  0.1713084E+00
          3   -1    0    0  501    0  0.00000000000E+00  0.00000000000E+00  0.31076502167E+01  0.31076502167E+01  0.00000000000E+00 0.  1.
         -3   -1    0    0    0  501 -0.00000000000E+00 -0.00000000000E+00 -0.37962562893E+02  0.37962562893E+02  0.00000000000E+00 0. -1.
        -13    1    1    2    0    0  0.87466920499E+01  0.64053961624E+01 -0.16172445287E+02  0.19470020760E+02  0.00000000000E+00 0.  1.
         13    1    1    2    0    0 -0.87466920499E+01 -0.64053961624E+01 -0.18682467389E+02  0.21600192350E+02  0.00000000000E+00 0. -1.
<mgrwt>
<rscale>  0 0.21723201E+02</rscale>
<asrwt>0</asrwt>
<pdfrwt beam="1">  1        3 0.47810005E-03 0.21723201E+02</pdfrwt>
<pdfrwt beam="2">  1       -3 0.58403940E-02 0.21723201E+02</pdfrwt>
<totfact> 0.13919495E+06</totfact>
</mgrwt>
</event>
<event>
 4    1  0.4118611E+000  0.4816111E+02  0.7546771E-02  0.1455520E+00
         -2   -1    0    0    0  501 -0.00000000000E+00  0.00000000000E+00  0.12490904695E+02  0.12490904695E+02  0.00000000000E+00 0. -1.
          2   -1    0    0  501    0  0.00000000000E+00 -0.00000000000E+00 -0.46423623960E+02  0.46423623960E+02  0.00000000000E+00 0.  1.
        -11    1    1    2    0    0  0.15602144465E+02 -0.36266421075E+01 -0.38961387170E+02  0.42125635130E+02  0.00000000000E+00 0.  1.
         11    1    1    2    0    0 -0.15602144465E+02  0.36266421075E+01  0.50286679045E+01  0.16788893525E+02  0.00000000000E+00 0. -1.
<mgrwt>
<rscale>  0 0.48161107E+02</rscale>
<asrwt>0</asrwt>
<pdfrwt beam="2">  1        2 0.71420961E-02 0.48161107E+02</pdfrwt>
<pdfrwt beam="1">  1       -2 0.19216776E-02 0.48161107E+02</pdfrwt>
<totfact> 0.55706012E+05</totfact>
</mgrwt>
</event>
<event>
 4    1  0.4118611E+000  0.8396049E+02  0.7546771E-02  0.1318174E+00
         -2   -1    0    0    0  501 -0.00000000000E+00  0.00000000000E+00  0.93430210867E+02  0.93430210867E+02  0.00000000000E+00 0.  1.
          2   -1    0    0  501    0  0.00000000000E+00 -0.00000000000E+00 -0.18862646305E+02  0.18862646305E+02  0.00000000000E+00 0. -1.
        -13    1    1    2    0    0 -0.17444004240E+01 -0.18596322792E+02  0.87566785283E+02  0.89536629594E+02  0.00000000000E+00 0.  1.
         13    1    1    2    0    0  0.17444004240E+01  0.18596322792E+02 -0.12999220721E+02  0.22756227578E+02  0.00000000000E+00 0. -1.
<mgrwt>
<rscale>  0 0.83960491E+02</rscale>
<asrwt>0</asrwt>
<pdfrwt beam="2">  1        2 0.29019456E-02 0.83960491E+02</pdfrwt>
<pdfrwt beam="1">  1       -2 0.14373878E-01 0.83960491E+02</pdfrwt>
<totfact> 0.99890937E+04</totfact>
</mgrwt>
</event>
<event>
 4    1  0.4118611E+000  0.3687776E+02  0.7546771E-02  0.1532531E+00
         -2   -1    0    0    0  501 -0.00000000000E+00  0.00000000000E+00  0.13310657199E+02  0.13310657199E+02  0.00000000000E+00 0.  1.
          2   -1    0    0  501    0  0.00000000000E+00 -0.00000000000E+00 -0.25542865468E+02  0.25542865468E+02  0.00000000000E+00 0. -1.
        -13    1    1    2    0    0  0.16710583758E+02 -0.26348809338E+01  0.16121550980E+01  0.16993682683E+02  0.00000000000E+00 0.  1.
         13    1    1    2    0    0 -0.16710583758E+02  0.26348809338E+01 -0.13844363367E+02  0.21859839984E+02  0.00000000000E+00 0. -1.
<mgrwt>
<rscale>  0 0.36877762E+02</rscale>
<asrwt>0</asrwt>
<pdfrwt beam="2">  1        2 0.39296716E-02 0.36877762E+02</pdfrwt>
<pdfrwt beam="1">  1       -2 0.20477934E-02 0.36877762E+02</pdfrwt>
<totfact> 0.99900037E+05</totfact>
</mgrwt>
</event>
<event>
 4    1  0.4118611E+000  0.2053206E+02  0.7546771E-02  0.1734950E+00
          1   -1    0    0  501    0  0.00000000000E+00  0.00000000000E+00  0.36212046501E+02  0.36212046501E+02  0.00000000000E+00 0.  1.
         -1   -1    0    0    0  501 -0.00000000000E+00 -0.00000000000E+00 -0.29103963947E+01  0.29103963947E+01  0.00000000000E+00 0. -1.
        -13    1    1    2    0    0 -0.74599247639E+01  0.70523224076E+01  0.16794438966E+02  0.19683467911E+02  0.00000000000E+00 0. -1.
         13    1    1    2    0    0  0.74599247639E+01 -0.70523224076E+01  0.16507211140E+02  0.19438974985E+02  0.00000000000E+00 0.  1.
<mgrwt>
<rscale>  0 0.20532064E+02</rscale>
<asrwt>0</asrwt>
<pdfrwt beam="1">  1        1 0.55710838E-02 0.20532064E+02</pdfrwt>
<pdfrwt beam="2">  1       -1 0.44775332E-03 0.20532064E+02</pdfrwt>
<totfact> 0.38539353E+06</totfact>
</mgrwt>
</event>
<event>
 4    1  0.4118611E+000  0.1714320E+03  0.7546771E-02  0.1176363E+00
         -1   -1    0    0    0  501 -0.00000000000E+00  0.00000000000E+00  0.70201980831E+02  0.70201980831E+02  0.00000000000E+00 0.  1.
          1   -1    0    0  501    0  0.00000000000E+00 -0.00000000000E+00 -0.10465847642E+03  0.10465847642E+03  0.00000000000E+00 0. -1.
        -13    1    1    2    0    0 -0.18505304791E+02  0.83558300525E+02 -0.12358197282E+02  0.86470578419E+02  0.00000000000E+00 0.  1.
         13    1    1    2    0    0  0.18505304791E+02 -0.83558300525E+02 -0.22098298310E+02  0.88389878834E+02  0.00000000000E+00 0. -1.
<mgrwt>
<rscale>  0 0.17143200E+03</rscale>
<asrwt>0</asrwt>
<pdfrwt beam="2">  1        1 0.16101304E-01 0.17143200E+03</pdfrwt>
<pdfrwt beam="1">  1       -1 0.10800305E-01 0.17143200E+03</pdfrwt>
<totfact> 0.17408635E+04</totfact>
</mgrwt>
</event>
<event>
 4    1  0.4118611E+000  0.3503787E+02  0.7546771E-02  0.1548265E+00
          2   -1    0    0  501    0  0.00000000000E+00  0.00000000000E+00  0.91842151996E+01  0.91842151996E+01  0.00000000000E+00 0. -1.
         -2   -1    0    0    0  501 -0.00000000000E+00 -0.00000000000E+00 -0.33417449035E+02  0.33417449035E+02  0.00000000000E+00 0.  1.
        -11    1    1    2    0    0 -0.11942002620E+02  0.10348848761E+02 -0.29206352881E+01  0.16069854005E+02  0.00000000000E+00 0. -1.
         11    1    1    2    0    0  0.11942002620E+02 -0.10348848761E+02 -0.21312598547E+02  0.26531810230E+02  0.00000000000E+00 0.  1.
<mgrwt>
<rscale>  0 0.35037868E+02</rscale>
<asrwt>0</asrwt>
<pdfrwt beam="1">  1        2 0.14129562E-02 0.35037868E+02</pdfrwt>
<pdfrwt beam="2">  1       -2 0.51411460E-02 0.35037868E+02</pdfrwt>
<totfact> 0.10037679E+06</totfact>
</mgrwt>
</event>
<event>
 4    1  0.4118611E+000  0.4450261E+02  0.7546771E-02  0.1477471E+00
          4   -1    0    0  501    0  0.00000000000E+00  0.00000000000E+00  0.53882544093E+01  0.53882544093E+01  0.00000000000E+00 0.  1.
         -4   -1    0    0    0  501 -0.00000000000E+00 -0.00000000000E+00 -0.91888846747E+02  0.91888846747E+02  0.00000000000E+00 0. -1.
        -13    1    1    2    0    0 -0.77356628905E+00  0.15136353839E+02 -0.76391323067E+01  0.16972446929E+02  0.00000000000E+00 0.  1.
         13    1    1    2    0    0  0.77356628905E+00 -0.15136353839E+02 -0.78861460031E+02  0.80304654227E+02  0.00000000000E+00 0. -1.
<mgrwt>
<rscale>  0 0.44502606E+02</rscale>
<asrwt>0</asrwt>
<pdfrwt beam="1">  1        4 0.82896222E-03 0.44502606E+02</pdfrwt>
<pdfrwt beam="2">  1       -4 0.14136746E-01 0.44502606E+02</pdfrwt>
<totfact> 0.16755312E+05</totfact>
</mgrwt>
</event>
<event>
 4    1  0.4118611E+000  0.2077372E+02  0.7546771E-02  0.1730365E+00
          2   -1    0    0  501    0  0.00000000000E+00  0.00000000000E+00  0.53591496052E+02  0.53591496052E+02  0.00000000000E+00 0. -1.
         -2   -1    0    0    0  501 -0.00000000000E+00 -0.00000000000E+00 -0.20131346662E+01  0.20131346662E+01  0.00000000000E+00 0.  1.
        -11    1    1    2    0    0  0.10017595282E+02  0.34229912516E+00  0.33079151946E+02  0.34564427919E+02  0.00000000000E+00 0. -1.
         11    1    1    2    0    0 -0.10017595282E+02 -0.34229912516E+00  0.18499209440E+02  0.21040202799E+02  0.00000000000E+00 0.  1.
<mgrwt>
<rscale>  0 0.20773724E+02</rscale>
<asrwt>0</asrwt>
<pdfrwt beam="1">  1        2 0.82448445E-02 0.20773724E+02</pdfrwt>
<pdfrwt beam="2">  1       -2 0.30971307E-03 0.20773724E+02</pdfrwt>
<totfact> 0.43018756E+06</totfact>
</mgrwt>
</event>
<event>
 4    1  0.4118611E+000  0.2436827E+02  0.7546771E-02  0.1670245E+00
         -1   -1    0    0    0  501 -0.00000000000E+00  0.00000000000E+00  0.14552640172E+02  0.14552640172E+02  0.00000000000E+00 0.  1.
          1   -1    0    0  501    0  0.00000000000E+00 -0.00000000000E+00 -0.10201110264E+02  0.10201110264E+02  0.00000000000E+00 0. -1.
        -13    1    1    2    0    0  0.10138975271E+02 -0.29556213285E+01 -0.39964185805E+01  0.11291850090E+02  0.00000000000E+00 0. -1.
         13    1    1    2    0    0 -0.10138975271E+02  0.29556213285E+01  0.83479484880E+01  0.13461900347E+02  0.00000000000E+00 0.  1.
<mgrwt>
<rscale>  0 0.24368265E+02</rscale>
<asrwt>0</asrwt>
<pdfrwt beam="2">  1        1 0.15694016E-02 0.24368265E+02</pdfrwt>
<pdfrwt beam="1">  1       -1 0.22388677E-02 0.24368265E+02</pdfrwt>
<totfact> 0.24489836E+06</totfact>
</mgrwt>
</event>
<event>
 4    1  0.4118611E+000  0.2530798E+02  0.7546771E-02  0.1656617E+00
          2   -1    0    0  501    0  0.00000000000E+00  0.00000000000E+00  0.69477666604E+01  0.69477666604E+01  0.00000000000E+00 0.  1.
         -2   -1    0    0    0  501 -0.00000000000E+00 -0.00000000000E+00 -0.23046749884E+02  0.23046749884E+02  0.00000000000E+00 0. -1.
        -13    1    1    2    0    0  0.10716810287E+02  0.74089013520E+00 -0.12343519974E+00  0.10743099049E+02  0.00000000000E+00 0.  1.
         13    1    1    2    0    0 -0.10716810287E+02 -0.74089013520E+00 -0.15975548024E+02  0.19251417496E+02  0.00000000000E+00 0. -1.
<mgrwt>
<rscale>  0 0.25307978E+02</rscale>
<asrwt>0</asrwt>
<pdfrwt beam="1">  1        2 0.10688872E-02 0.25307978E+02</pdfrwt>
<pdfrwt beam="2">  1       -2 0.35456538E-02 0.25307978E+02</pdfrwt>
<totfact> 0.21986358E+06</totfact>
</mgrwt>
</event>
<event>
 4    1  0.4118611E+000  0.3230939E+02  0.7546771E-02  0.1573880E+00
         -1   -1    0    0    0  501 -0.00000000000E+00  0.00000000000E+00  0.38912229399E+01  0.38912229399E+01  0.00000000000E+00 0.  1.
          1   -1    0    0  501    0  0.00000000000E+00 -0.00000000000E+00 -0.67067381004E+02  0.67067381004E+02  0.00000000000E+00 0. -1.
        -13    1    1    2    0    0 -0.87394852971E+01  0.49161647364E+01 -0.59405372217E+02  0.60245709616E+02  0.00000000000E+00 0. -1.
         13    1    1    2    0    0  0.87394852971E+01 -0.49161647364E+01 -0.37707858481E+01  0.10712894328E+02  0.00000000000E+00 0.  1.
<mgrwt>
<rscale>  0 0.32309388E+02</rscale>
<asrwt>0</asrwt>
<pdfrwt beam="2">  1        1 0.10318059E-01 0.32309388E+02</pdfrwt>
<pdfrwt beam="1">  1       -1 0.59864969E-03 0.32309388E+02</pdfrwt>
<totfact> 0.14115633E+06</totfact>
</mgrwt>
</event>
<event>
 4    1  0.4118611E+000  0.3960346E+02  0.7546771E-02  0.1511150E+00
          2   -1    0    0  501    0  0.00000000000E+00  0.00000000000E+00  0.33122210782E+01  0.33122210782E+01  0.00000000000E+00 0.  1.
         -2   -1    0    0    0  501 -0.00000000000E+00 -0.00000000000E+00 -0.11838232285E+03  0.11838232285E+03  0.00000000000E+00 0. -1.
        -13    1    1    2    0    0 -0.15089900045E+02 -0.64224581969E+01 -0.23434240041E+02  0.28602738661E+02  0.00000000000E+00 0.  1.
         13    1    1    2    0    0  0.15089900045E+02  0.64224581969E+01 -0.91635861736E+02  0.93091805271E+02  0.00000000000E+00 0. -1.
<mgrwt>
<rscale>  0 0.39603456E+02</rscale>
<asrwt>0</asrwt>
<pdfrwt beam="1">  1        2 0.50957253E-03 0.39603456E+02</pdfrwt>
<pdfrwt beam="2">  1       -2 0.18212663E-01 0.39603456E+02</pdfrwt>
<totfact> 0.59328400E+05</totfact>
</mgrwt>
</event>
<event>
 4    1  0.4118611E+000  0.3732760E+02  0.7546771E-02  0.1528852E+00
         -4   -1    0    0    0  501 -0.00000000000E+00  0.00000000000E+00  0.10559096145E+02  0.10559096145E+02  0.00000000000E+00 0.  1.
          4   -1    0    0  501    0  0.00000000000E+00 -0.00000000000E+00 -0.32989319127E+02  0.32989319127E+02  0.00000000000E+00 0. -1.
        -13    1    1    2    0    0 -0.13042236513E+02  0.13273613428E+02 -0.12884954880E+02  0.22634283929E+02  0.00000000000E+00 0. -1.
         13    1    1    2    0    0  0.13042236513E+02 -0.13273613428E+02 -0.95452681014E+01  0.20914131343E+02  0.00000000000E+00 0.  1.
<mgrwt>
<rscale>  0 0.37327598E+02</rscale>
<asrwt>0</asrwt>
<pdfrwt beam="2">  1        4 0.50752798E-02 0.37327598E+02</pdfrwt>
<pdfrwt beam="1">  1       -4 0.16244763E-02 0.37327598E+02</pdfrwt>
<totfact> 0.29897324E+05</totfact>
</mgrwt>
</event>
<event>
 4    1  0.4118611E+000  0.3478011E+02  0.7546771E-02  0.1550562E+00
         -2   -1    0    0    0  501 -0.00000000000E+00  0.00000000000E+00  0.13803544065E+03  0.13803544065E+03  0.00000000000E+00 0. -1.
          2   -1    0    0  501    0  0.00000000000E+00 -0.00000000000E+00 -0.21908435751E+01  0.21908435751E+01  0.00000000000E+00 0.  1.
        -13    1    1    2    0    0 -0.16447457638E+02  0.42473273069E+01  0.52914808117E+02  0.55574594646E+02  0.00000000000E+00 0.  1.
         13    1    1    2    0    0  0.16447457638E+02 -0.42473273069E+01  0.82929788955E+02  0.84651689576E+02  0.00000000000E+00 0. -1.
<mgrwt>
<rscale>  0 0.34780113E+02</rscale>
<asrwt>0</asrwt>
<pdfrwt beam="2">  1        2 0.33705297E-03 0.34780113E+02</pdfrwt>
<pdfrwt beam="1">  1       -2 0.21236215E-01 0.34780113E+02</pdfrwt>
<totfact> 0.77248295E+05</totfact>
</mgrwt>
</event>
<event>
 4    1  0.4118611E+000  0.4507269E+02  0.7546771E-02  0.1473888E+00
         -4   -1    0    0    0  501 -0.00000000000E+00  0.00000000000E+00  0.19947758378E+02  0.19947758378E+02  0.00000000000E+00 0.  1.
          4   -1    0    0  501    0  0.00000000000E+00 -0.00000000000E+00 -0.25460853511E+02  0.25460853511E+02  0.00000000000E+00 0. -1.
        -13    1    1    2    0    0  0.13514757081E+02 -0.14734808852E+01 -0.20864573230E+02  0.24902815523E+02  0.00000000000E+00 0. -1.
         13    1    1    2    0    0 -0.13514757081E+02  0.14734808852E+01  0.15351478096E+02  0.20505796366E+02  0.00000000000E+00 0.  1.
<mgrwt>
<rscale>  0 0.45072695E+02</rscale>
<asrwt>0</asrwt>
<pdfrwt beam="2">  1        4 0.39170544E-02 0.45072695E+02</pdfrwt>
<pdfrwt beam="1">  1       -4 0.30688859E-02 0.45072695E+02</pdfrwt>
<totfact> 0.18892248E+05</totfact>
</mgrwt>
</event>
<event>
 4    1  0.4118611E+000  0.5863982E+02  0.7546771E-02  0.1403630E+00
         -4   -1    0    0    0  501 -0.00000000000E+00  0.00000000000E+00  0.73687900095E+01  0.73687900095E+01  0.00000000000E+00 0.  1.
          4   -1    0    0  501    0  0.00000000000E+00 -0.00000000000E+00 -0.11666189935E+03  0.11666189935E+03  0.00000000000E+00 0. -1.
        -13    1    1    2    0    0  0.27576619942E+02 -0.89556194940E+01 -0.63862286878E+02  0.70136044751E+02  0.00000000000E+00 0. -1.
         13    1    1    2    0    0 -0.27576619942E+02  0.89556194940E+01 -0.45430822461E+02  0.53894644608E+02  0.00000000000E+00 0.  1.
<mgrwt>
<rscale>  0 0.58639817E+02</rscale>
<asrwt>0</asrwt>
<pdfrwt beam="2">  1        4 0.17947983E-01 0.58639817E+02</pdfrwt>
<pdfrwt beam="1">  1       -4 0.11336601E-02 0.58639817E+02</pdfrwt>
<totfact> 0.79294539E+04</totfact>
</mgrwt>
</event>
<event>
 4    1  0.4118611E+000  0.7424434E+02  0.7546771E-02  0.1346227E+00
         -4   -1    0    0    0  501 -0.00000000000E+00  0.00000000000E+00  0.50778526043E+02  0.50778526043E+02  0.00000000000E+00 0.  1.
          4   -1    0    0  501    0  0.00000000000E+00 -0.00000000000E+00 -0.27138551702E+02  0.27138551702E+02  0.00000000000E+00 0. -1.
        -13    1    1    2    0    0  0.13917688326E+02 -0.32027904531E+02 -0.13952694479E+01  0.34949041386E+02  0.00000000000E+00 0. -1.
         13    1    1    2    0    0 -0.13917688326E+02  0.32027904531E+02  0.25035243789E+02  0.42968036359E+02  0.00000000000E+00 0.  1.
<mgrwt>
<rscale>  0 0.74244344E+02</rscale>
<asrwt>0</asrwt>
<pdfrwt beam="2">  1        4 0.41751618E-02 0.74244344E+02</pdfrwt>
<pdfrwt beam="1">  1       -4 0.78120809E-02 0.74244344E+02</pdfrwt>
<totfact> 0.48379925E+04</totfact>
</mgrwt>
</event>
<event>
 4    1  0.4118611E+000  0.2556432E+02  0.7546771E-02  0.1653026E+00
          2   -1    0    0  501    0  0.00000000000E+00  0.00000000000E+00  0.30948621674E+02  0.30948621674E+02  0.00000000000E+00 0.  1.
         -2   -1    0    0    0  501 -0.00000000000E+00 -0.00000000000E+00 -0.52791905206E+01  0.52791905206E+01  0.00000000000E+00 0. -1.
        -11    1    1    2    0    0  0.99347138099E+01 -0.37138117090E+01  0.22944355336E+02  0.25277151297E+02  0.00000000000E+00 0.  1.
         11    1    1    2    0    0 -0.99347138099E+01  0.37138117090E+01  0.27250758177E+01  0.10950660898E+02  0.00000000000E+00 0. -1.
<mgrwt>
<rscale>  0 0.25564324E+02</rscale>
<asrwt>0</asrwt>
<pdfrwt beam="1">  1        2 0.47613263E-02 0.25564324E+02</pdfrwt>
<pdfrwt beam="2">  1       -2 0.81218317E-03 0.25564324E+02</pdfrwt>
<totfact> 0.24798966E+06</totfact>
</mgrwt>
</event>
<event>
 4    1  0.4118611E+000  0.3245606E+02  0.7546771E-02  0.1572426E+00
         -2   -1    0    0    0  501 -0.00000000000E+00  0.00000000000E+00  0.41225273721E+01  0.41225273721E+01  0.00000000000E+00 0.  1.
          2   -1    0    0  501    0  0.00000000000E+00 -0.00000000000E+00 -0.63880461496E+02  0.63880461496E+02  0.00000000000E+00 0. -1.
        -13    1    1    2    0    0 -0.15738486120E+02 -0.23201867825E+01 -0.36592132014E+02  0.39900718507E+02  0.00000000000E+00 0. -1.
         13    1    1    2    0    0  0.15738486120E+02  0.23201867825E+01 -0.23165802110E+02  0.28102270361E+02  0.00000000000E+00 0.  1.
<mgrwt>
<rscale>  0 0.32456060E+02</rscale>
<asrwt>0</asrwt>
<pdfrwt beam="2">  1        2 0.98277622E-02 0.32456060E+02</pdfrwt>
<pdfrwt beam="1">  1       -2 0.63423505E-03 0.32456060E+02</pdfrwt>
<totfact> 0.15729857E+06</totfact>
</mgrwt>
</event>
<event>
 4    1  0.4118611E+000  0.3478426E+02  0.7546771E-02  0.1550525E+00
         -4   -1    0    0    0  501 -0.00000000000E+00  0.00000000000E+00  0.86345156799E+01  0.86345156799E+01  0.00000000000E+00 0.  1.
          4   -1    0    0  501    0  0.00000000000E+00 -0.00000000000E+00 -0.35032202546E+02  0.35032202546E+02  0.00000000000E+00 0. -1.
        -13    1    1    2    0    0  0.13888619844E+02 -0.17826849757E+01 -0.26148790556E+02  0.29661944887E+02  0.00000000000E+00 0. -1.
         13    1    1    2    0    0 -0.13888619844E+02  0.17826849757E+01 -0.24889630984E+00  0.14004773339E+02  0.00000000000E+00 0.  1.
<mgrwt>
<rscale>  0 0.34784255E+02</rscale>
<asrwt>0</asrwt>
<pdfrwt beam="2">  1        4 0.53895697E-02 0.34784255E+02</pdfrwt>
<pdfrwt beam="1">  1       -4 0.13283870E-02 0.34784255E+02</pdfrwt>
<totfact> 0.35260292E+05</totfact>
</mgrwt>
</event>
<event>
 4    1  0.4118611E+000  0.2707861E+02  0.7546771E-02  0.1632824E+00
         -2   -1    0    0    0  501 -0.00000000000E+00  0.00000000000E+00  0.44831548408E+01  0.44831548408E+01  0.00000000000E+00 0.  1.
          2   -1    0    0  501    0  0.00000000000E+00 -0.00000000000E+00 -0.40889227500E+02  0.40889227500E+02  0.00000000000E+00 0. -1.
        -13    1    1    2    0    0 -0.77528015196E+01  0.76545952344E+01 -0.31671824011E+02  0.33493330616E+02  0.00000000000E+00 0. -1.
         13    1    1    2    0    0  0.77528015196E+01 -0.76545952344E+01 -0.47342486483E+01  0.11879051724E+02  0.00000000000E+00 0.  1.
<mgrwt>
<rscale>  0 0.27078607E+02</rscale>
<asrwt>0</asrwt>
<pdfrwt beam="2">  1        2 0.62906505E-02 0.27078607E+02</pdfrwt>
<pdfrwt beam="1">  1       -2 0.68971611E-03 0.27078607E+02</pdfrwt>
<totfact> 0.22470165E+06</totfact>
</mgrwt>
</event>
<event>
 4    1  0.4118611E+000  0.2324732E+02  0.7546771E-02  0.1687532E+00
          2   -1    0    0  501    0  0.00000000000E+00  0.00000000000E+00  0.14595621015E+01  0.14595621015E+01  0.00000000000E+00 0.  1.
         -2   -1    0    0    0  501 -0.00000000000E+00 -0.00000000000E+00 -0.92568527306E+02  0.92568527306E+02  0.00000000000E+00 0. -1.
        -13    1    1    2    0    0  0.19799738895E+01 -0.11241263712E+02 -0.36671626297E+02  0.38406958766E+02  0.00000000000E+00 0. -1.
         13    1    1    2    0    0 -0.19799738895E+01  0.11241263712E+02 -0.54437338908E+02  0.55621130641E+02  0.00000000000E+00 0.  1.
<mgrwt>
<rscale>  0 0.23247324E+02</rscale>
<asrwt>0</asrwt>
<pdfrwt beam="1">  1        2 0.22454799E-03 0.23247324E+02</pdfrwt>
<pdfrwt beam="2">  1       -2 0.14241314E-01 0.23247324E+02</pdfrwt>
<totfact> 0.21715708E+06</totfact>
</mgrwt>
</event>
<event>
 4    1  0.4118611E+000  0.2260115E+02  0.7546771E-02  0.1698058E+00
          3   -1    0    0  501    0  0.00000000000E+00  0.00000000000E+00  0.63479958467E+02  0.63479958467E+02  0.00000000000E+00 0.  1.
         -3   -1    0    0    0  501 -0.00000000000E+00 -0.00000000000E+00 -0.20117058302E+01  0.20117058302E+01  0.00000000000E+00 0. -1.
        -11    1    1    2    0    0 -0.79065234568E+01  0.76206986074E+01  0.38463389773E+02  0.40000256415E+02  0.00000000000E+00 0.  1.
         11    1    1    2    0    0  0.79065234568E+01 -0.76206986074E+01  0.23004862864E+02  0.25491407882E+02  0.00000000000E+00 0. -1.
<mgrwt>
<rscale>  0 0.22601151E+02</rscale>
<asrwt>0</asrwt>
<pdfrwt beam="1">  1        3 0.97661459E-02 0.22601151E+02</pdfrwt>
<pdfrwt beam="2">  1       -3 0.30949325E-03 0.22601151E+02</pdfrwt>
<totfact> 0.11878516E+06</totfact>
</mgrwt>
</event>
<event>
 4    1  0.4118611E+000  0.2491581E+02  0.7546771E-02  0.1662214E+00
         -2   -1    0    0    0  501 -0.00000000000E+00  0.00000000000E+00  0.19728523679E+01  0.19728523679E+01  0.00000000000E+00 0.  1.
          2   -1    0    0  501    0  0.00000000000E+00 -0.00000000000E+00 -0.78667539864E+02  0.78667539864E+02  0.00000000000E+00 0. -1.
        -11    1    1    2    0    0  0.87929571155E+01 -0.63539127197E+01 -0.58169810256E+02  0.59172756627E+02  0.00000000000E+00 0. -1.
         11    1    1    2    0    0 -0.87929571155E+01  0.63539127197E+01 -0.18524877240E+02  0.21467635605E+02  0.00000000000E+00 0.  1.
<mgrwt>
<rscale>  0 0.24915814E+02</rscale>
<asrwt>0</asrwt>
<pdfrwt beam="2">  1        2 0.12102697E-01 0.24915814E+02</pdfrwt>
<pdfrwt beam="1">  1       -2 0.30351579E-03 0.24915814E+02</pdfrwt>
<totfact> 0.30525467E+06</totfact>
</mgrwt>
</event>
<event>
 4    1  0.4118611E+000  0.2814979E+02  0.7546771E-02  0.1619489E+00
          2   -1    0    0  501    0  0.00000000000E+00  0.00000000000E+00  0.31241915357E+02  0.31241915357E+02  0.00000000000E+00 0. -1.
         -2   -1    0    0    0  501 -0.00000000000E+00 -0.00000000000E+00 -0.63409240977E+01  0.63409240977E+01  0.00000000000E+00 0.  1.
        -13    1    1    2    0    0 -0.98715783996E+01 -0.76418508811E+01  0.37716468823E+01  0.13041137419E+02  0.00000000000E+00 0.  1.
         13    1    1    2    0    0  0.98715783996E+01  0.76418508811E+01  0.21129344377E+02  0.24541702036E+02  0.00000000000E+00 0. -1.
<mgrwt>
<rscale>  0 0.28149786E+02</rscale>
<asrwt>0</asrwt>
<pdfrwt beam="1">  1        2 0.48064484E-02 0.28149786E+02</pdfrwt>
<pdfrwt beam="2">  1       -2 0.97552680E-03 0.28149786E+02</pdfrwt>
<totfact> 0.19781541E+06</totfact>
</mgrwt>
</event>
<event>
 4    1  0.4118611E+000  0.1197740E+03  0.7546771E-02  0.1243470E+00
          2   -1    0    0  501    0  0.00000000000E+00  0.00000000000E+00  0.24848104222E+03  0.24848104222E+03  0.00000000000E+00 0. -1.
         -2   -1    0    0    0  501 -0.00000000000E+00 -0.00000000000E+00 -0.14433499804E+02  0.14433499804E+02  0.00000000000E+00 0.  1.
        -11    1    1    2    0    0 -0.45570249553E+02  0.10123097582E+02  0.34676433537E+02  0.58151352450E+02  0.00000000000E+00 0.  1.
         11    1    1    2    0    0  0.45570249553E+02 -0.10123097582E+02  0.19937110888E+03  0.20476318958E+03  0.00000000000E+00 0. -1.
<mgrwt>
<rscale>  0 0.11977397E+03</rscale>
<asrwt>0</asrwt>
<pdfrwt beam="1">  1        2 0.38227849E-01 0.11977397E+03</pdfrwt>
<pdfrwt beam="2">  1       -2 0.22205386E-02 0.11977397E+03</pdfrwt>
<totfact> 0.79675843E+04</totfact>
</mgrwt>
</event>
<event>
 4    1  0.4118611E+000  0.2424329E+02  0.7546771E-02  0.1672115E+00
         -1   -1    0    0    0  501 -0.00000000000E+00  0.00000000000E+00  0.84979984605E+02  0.84979984605E+02  0.00000000000E+00 0.  1.
          1   -1    0    0  501    0  0.00000000000E+00 -0.00000000000E+00 -0.17290450549E+01  0.17290450549E+01  0.00000000000E+00 0. -1.
        -13    1    1    2    0    0  0.65886882187E+01  0.10117408881E+02  0.37770929444E+02  0.39653699525E+02  0.00000000000E+00 0. -1.
         13    1    1    2    0    0 -0.65886882187E+01 -0.10117408881E+02  0.45480010105E+02  0.47055330135E+02  0.00000000000E+00 0.  1.
<mgrwt>
<rscale>  0 0.24243285E+02</rscale>
<asrwt>0</asrwt>
<pdfrwt beam="2">  1        1 0.26600700E-03 0.24243285E+02</pdfrwt>
<pdfrwt beam="1">  1       -1 0.13073841E-01 0.24243285E+02</pdfrwt>
<totfact> 0.21299762E+06</totfact>
</mgrwt>
</event>
<event>
 4    1  0.4118611E+000  0.5869537E+02  0.7546771E-02  0.1403390E+00
         -1   -1    0    0    0  501 -0.00000000000E+00  0.00000000000E+00  0.21952700157E+02  0.21952700157E+02  0.00000000000E+00 0.  1.
          1   -1    0    0  501    0  0.00000000000E+00 -0.00000000000E+00 -0.39233746172E+02  0.39233746172E+02  0.00000000000E+00 0. -1.
        -11    1    1    2    0    0 -0.27309393579E+02 -0.80712383919E+01 -0.16036623400E+02  0.32682122895E+02  0.00000000000E+00 0. -1.
         11    1    1    2    0    0  0.27309393579E+02  0.80712383919E+01 -0.12444226153E+01  0.28504323435E+02  0.00000000000E+00 0.  1.
<mgrwt>
<rscale>  0 0.58695372E+02</rscale>
<asrwt>0</asrwt>
<pdfrwt beam="2">  1        1 0.60359610E-02 0.58695372E+02</pdfrwt>
<pdfrwt beam="1">  1       -1 0.33773385E-02 0.58695372E+02</pdfrwt>
<totfact> 0.30026322E+05</totfact>
</mgrwt>
</event>
<event>
 4    1  0.4118611E+000  0.3634291E+02  0.7546771E-02  0.1536989E+00
         -2   -1    0    0    0  501 -0.00000000000E+00  0.00000000000E+00  0.16124266925E+02  0.16124266925E+02  0.00000000000E+00 0.  1.
          2   -1    0    0  501    0  0.00000000000E+00 -0.00000000000E+00 -0.20478556234E+02  0.20478556234E+02  0.00000000000E+00 0. -1.
        -11    1    1    2    0    0 -0.11337229517E+02 -0.10078563720E+02 -0.12253268622E+02  0.19500072095E+02  0.00000000000E+00 0.  1.
         11    1    1    2    0    0  0.11337229517E+02  0.10078563720E+02  0.78989793126E+01  0.17102751064E+02  0.00000000000E+00 0. -1.
<mgrwt>
<rscale>  0 0.36342906E+02</rscale>
<asrwt>0</asrwt>
<pdfrwt beam="2">  1        2 0.31505471E-02 0.36342906E+02</pdfrwt>
<pdfrwt beam="1">  1       -2 0.24806565E-02 0.36342906E+02</pdfrwt>
<totfact> 0.10079344E+06</totfact>
</mgrwt>
</event>
<event>
 4    1  0.4118611E+000  0.5872526E+02  0.7546771E-02  0.1403260E+00
         -3   -1    0    0    0  501 -0.00000000000E+00  0.00000000000E+00  0.35068886047E+02  0.35068886047E+02  0.00000000000E+00 0.  1.
          3   -1    0    0  501    0  0.00000000000E+00 -0.00000000000E+00 -0.24584874956E+02  0.24584874956E+02  0.00000000000E+00 0. -1.
        -11    1    1    2    0    0  0.20978167517E+02  0.17416469392E+02 -0.58274088348E+01  0.27881456421E+02  0.00000000000E+00 0. -1.
         11    1    1    2    0    0 -0.20978167517E+02 -0.17416469392E+02  0.16311419926E+02  0.31772304582E+02  0.00000000000E+00 0.  1.
<mgrwt>
<rscale>  0 0.58725265E+02</rscale>
<asrwt>0</asrwt>
<pdfrwt beam="2">  1        3 0.37822884E-02 0.58725265E+02</pdfrwt>
<pdfrwt beam="1">  1       -3 0.53952133E-02 0.58725265E+02</pdfrwt>
<totfact> 0.12223542E+05</totfact>
</mgrwt>
</event>
<event>
 4    1  0.4118611E+000  0.2308016E+02  0.7546771E-02  0.1690214E+00
          3   -1    0    0  501    0  0.00000000000E+00  0.00000000000E+00  0.60335597758E+01  0.60335597758E+01  0.00000000000E+00 0. -1.
         -3   -1    0    0    0  501 -0.00000000000E+00 -0.00000000000E+00 -0.22072110587E+02  0.22072110587E+02  0.00000000000E+00 0.  1.
        -11    1    1    2    0    0 -0.90706135813E+01  0.51200595080E+01 -0.19693706290E+01  0.10600446254E+02  0.00000000000E+00 0. -1.
         11    1    1    2    0    0  0.90706135813E+01 -0.51200595080E+01 -0.14069180182E+02  0.17505224109E+02  0.00000000000E+00 0.  1.
<mgrwt>
<rscale>  0 0.23080156E+02</rscale>
<asrwt>0</asrwt>
<pdfrwt beam="1">  1        3 0.92823998E-03 0.23080156E+02</pdfrwt>
<pdfrwt beam="2">  1       -3 0.33957093E-02 0.23080156E+02</pdfrwt>
<totfact> 0.12700321E+06</totfact>
</mgrwt>
</event>
<event>
 4    1  0.4118611E+000  0.3207839E+02  0.7546771E-02  0.1576189E+00
         -1   -1    0    0    0  501 -0.00000000000E+00  0.00000000000E+00  0.46254682184E+01  0.46254682184E+01  0.00000000000E+00 0. -1.
          1   -1    0    0  501    0  0.00000000000E+00 -0.00000000000E+00 -0.55617230896E+02  0.55617230896E+02  0.00000000000E+00 0.  1.
        -11    1    1    2    0    0  0.13077381533E+02  0.52746971288E+01 -0.39849306796E+02  0.42270646904E+02  0.00000000000E+00 0.  1.
         11    1    1    2    0    0 -0.13077381533E+02 -0.52746971288E+01 -0.11142455881E+02  0.17972052210E+02  0.00000000000E+00 0. -1.
<mgrwt>
<rscale>  0 0.32078387E+02</rscale>
<asrwt>0</asrwt>
<pdfrwt beam="2">  1        1 0.85564972E-02 0.32078387E+02</pdfrwt>
<pdfrwt beam="1">  1       -1 0.71161048E-03 0.32078387E+02</pdfrwt>
<totfact> 0.14115395E+06</totfact>
</mgrwt>
</event>
<event>
 4    1  0.4118611E+000  0.2228139E+02  0.7546771E-02  0.1703430E+00
         -2   -1    0    0    0  501 -0.00000000000E+00  0.00000000000E+00  0.23118685927E+02  0.23118685927E+02  0.00000000000E+00 0. -1.
          2   -1    0    0  501    0  0.00000000000E+00 -0.00000000000E+00 -0.53686042148E+01  0.53686042148E+01  0.00000000000E+00 0.  1.
        -13    1    1    2    0    0  0.10412052708E+01 -0.10526031564E+02  0.44031986252E+01  0.11457294926E+02  0.00000000000E+00 0.  1.
         13    1    1    2    0    0 -0.10412052708E+01  0.10526031564E+02  0.13346883087E+02  0.17029995215E+02  0.00000000000E+00 0. -1.
<mgrwt>
<rscale>  0 0.22281389E+02</rscale>
<asrwt>0</asrwt>
<pdfrwt beam="2">  1        2 0.82593912E-03 0.22281389E+02</pdfrwt>
<pdfrwt beam="1">  1       -2 0.35567209E-02 0.22281389E+02</pdfrwt>
<totfact> 0.29173287E+06</totfact>
</mgrwt>
</event>
<event>
 4    1  0.4118611E+000  0.2285298E+02  0.7546771E-02  0.1693904E+00
         -2   -1    0    0    0  501 -0.00000000000E+00  0.00000000000E+00  0.69906513858E+02  0.69906513858E+02  0.00000000000E+00 0. -1.
          2   -1    0    0  501    0  0.00000000000E+00 -0.00000000000E+00 -0.18677039045E+01  0.18677039045E+01  0.00000000000E+00 0.  1.
        -13    1    1    2    0    0  0.50895002681E+01 -0.97903496105E+01  0.24696932713E+02  0.27049814120E+02  0.00000000000E+00 0.  1.
         13    1    1    2    0    0 -0.50895002681E+01  0.97903496105E+01  0.43341877241E+02  0.44724403643E+02  0.00000000000E+00 0. -1.
<mgrwt>
<rscale>  0 0.22852980E+02</rscale>
<asrwt>0</asrwt>
<pdfrwt beam="2">  1        2 0.28733912E-03 0.22852980E+02</pdfrwt>
<pdfrwt beam="1">  1       -2 0.10754846E-01 0.22852980E+02</pdfrwt>
<totfact> 0.23903214E+06</totfact>
</mgrwt>
</event>
<event>
 4    1  0.4118611E+000  0.2149980E+02  0.7546771E-02  0.1717049E+00
         -2   -1    0    0    0  501 -0.00000000000E+00  0.00000000000E+00  0.17869502660E+01  0.17869502660E+01  0.00000000000E+00 0.  1.
          2   -1    0    0  501    0  0.00000000000E+00 -0.00000000000E+00 -0.64669012723E+02  0.64669012723E+02  0.00000000000E+00 0. -1.
        -11    1    1    2    0    0 -0.22954166822E+01 -0.10496479537E+02 -0.30391504080E+02  0.32234896318E+02  0.00000000000E+00 0.  1.
         11    1    1    2    0    0  0.22954166822E+01  0.10496479537E+02 -0.32490558378E+02  0.34221066671E+02  0.00000000000E+00 0. -1.
<mgrwt>
<rscale>  0 0.21499796E+02</rscale>
<asrwt>0</asrwt>
<pdfrwt beam="2">  1        2 0.99490785E-02 0.21499796E+02</pdfrwt>
<pdfrwt beam="1">  1       -2 0.27491544E-03 0.21499796E+02</pdfrwt>
<totfact> 0.41108555E+06</totfact>
</mgrwt>
</event>
<event>
 4    1  0.4118611E+000  0.2690015E+02  0.7546771E-02  0.1635120E+00
         -1   -1    0    0    0  501 -0.00000000000E+00  0.00000000000E+00  0.20877350310E+02  0.20877350310E+02  0.00000000000E+00 0.  1.
          1   -1    0    0  501    0  0.00000000000E+00 -0.00000000000E+00 -0.86651067397E+01  0.86651067397E+01  0.00000000000E+00 0. -1.
        -13    1    1    2    0    0  0.10778442369E+02  0.80441401393E+01  0.62669975442E+01  0.14837731252E+02  0.00000000000E+00 0.  1.
         13    1    1    2    0    0 -0.10778442369E+02 -0.80441401393E+01  0.59452460265E+01  0.14704725798E+02  0.00000000000E+00 0. -1.
<mgrwt>
<rscale>  0 0.26900146E+02</rscale>
<asrwt>0</asrwt>
<pdfrwt beam="2">  1        1 0.13330934E-02 0.26900146E+02</pdfrwt>
<pdfrwt beam="1">  1       -1 0.32119000E-02 0.26900146E+02</pdfrwt>
<totfact> 0.19178028E+06</totfact>
</mgrwt>
</event>
<event>
 4    1  0.4118611E+000  0.1037657E+03  0.7546771E-02  0.1272571E+00
          2   -1    0    0  501    0  0.00000000000E+00  0.00000000000E+00  0.62266940876E+02  0.62266940876E+02  0.00000000000E+00 0. -1.
         -2   -1    0    0    0  501 -0.00000000000E+00 -0.00000000000E+00 -0.43230445943E+02  0.43230445943E+02  0.00000000000E+00 0.  1.
        -13    1    1    2    0    0 -0.13335140610E+02 -0.29158759348E+01  0.60408572894E+02  0.61931607331E+02  0.00000000000E+00 0. -1.
         13    1    1    2    0    0  0.13335140610E+02  0.29158759348E+01 -0.41372077961E+02  0.43565779487E+02  0.00000000000E+00 0.  1.
<mgrwt>
<rscale>  0 0.10376565E+03</rscale>
<asrwt>0</asrwt>
<pdfrwt beam="1">  1        2 0.95795294E-02 0.10376565E+03</pdfrwt>
<pdfrwt beam="2">  1       -2 0.66508378E-02 0.10376565E+03</pdfrwt>
<totfact> 0.74102194E+04</totfact>
</mgrwt>
</event>
<event>
 4    1  0.4118611E+000  0.3684883E+02  0.7546771E-02  0.1532770E+00
          4   -1    0    0  501    0  0.00000000000E+00  0.00000000000E+00  0.10001788360E+02  0.10001788360E+02  0.00000000000E+00 0. -1.
         -4   -1    0    0    0  501 -0.00000000000E+00 -0.00000000000E+00 -0.33939844885E+02  0.33939844885E+02  0.00000000000E+00 0.  1.
        -11    1    1    2    0    0  0.15417032297E+02 -0.90941670879E+01 -0.67614934699E+01  0.19133911096E+02  0.00000000000E+00 0. -1.
         11    1    1    2    0    0 -0.15417032297E+02  0.90941670879E+01 -0.17176563055E+02  0.24807722150E+02  0.00000000000E+00 0.  1.
<mgrwt>
<rscale>  0 0.36848834E+02</rscale>
<asrwt>0</asrwt>
<pdfrwt beam="1">  1        4 0.15387367E-02 0.36848834E+02</pdfrwt>
<pdfrwt beam="2">  1       -4 0.52215145E-02 0.36848834E+02</pdfrwt>
<totfact> 0.30780878E+05</totfact>
</mgrwt>
</event>
<event>
 4    1  0.4118611E+000  0.2626631E+02  0.7546771E-02  0.1643452E+00
          3   -1    0    0  501    0  0.00000000000E+00  0.00000000000E+00  0.32521888981E+02  0.32521888981E+02  0.00000000000E+00 0.  1.
         -3   -1    0    0    0  501 -0.00000000000E+00 -0.00000000000E+00 -0.53034965714E+01  0.53034965714E+01  0.00000000000E+00 0. -1.
        -11    1    1    2    0    0 -0.10534946745E+01 -0.11356944456E+02  0.22985128266E+02  0.25659426334E+02  0.00000000000E+00 0.  1.
         11    1    1    2    0    0  0.10534946745E+01  0.11356944456E+02  0.42332641441E+01  0.12165959219E+02  0.00000000000E+00 0. -1.
<mgrwt>
<rscale>  0 0.26266307E+02</rscale>
<asrwt>0</asrwt>
<pdfrwt beam="1">  1        3 0.50033674E-02 0.26266307E+02</pdfrwt>
<pdfrwt beam="2">  1       -3 0.81592257E-03 0.26266307E+02</pdfrwt>
<totfact> 0.92005767E+05</totfact>
</mgrwt>
</event>
<event>
 4    1  0.4118611E+000  0.3519224E+02  0.7546771E-02  0.1546900E+00
         -4   -1    0    0    0  501 -0.00000000000E+00  0.00000000000E+00  0.25196036820E+01  0.25196036820E+01  0.00000000000E+00 0.  1.
          4   -1    0    0  501    0  0.00000000000E+00 -0.00000000000E+00 -0.12288579234E+03  0.12288579234E+03  0.00000000000E+00 0. -1.
        -11    1    1    2    0    0  0.16980192903E+02  0.45569239727E+01 -0.57586455669E+02  0.60210400959E+02  0.00000000000E+00 0. -1.
         11    1    1    2    0    0 -0.16980192903E+02 -0.45569239727E+01 -0.62779732989E+02  0.65194995063E+02  0.00000000000E+00 0.  1.
<mgrwt>
<rscale>  0 0.35192243E+02</rscale>
<asrwt>0</asrwt>
<pdfrwt beam="2">  1        4 0.18905508E-01 0.35192243E+02</pdfrwt>
<pdfrwt beam="1">  1       -4 0.38763131E-03 0.35192243E+02</pdfrwt>
<totfact> 0.27087184E+05</totfact>
</mgrwt>
</event>
<event>
 4    1  0.4118611E+000  0.4958442E+02  0.7546771E-02  0.1447596E+00
          2   -1    0    0  501    0  0.00000000000E+00  0.00000000000E+00  0.36306124931E+02  0.36306124931E+02  0.00000000000E+00 0. -1.
         -2   -1    0    0    0  501 -0.00000000000E+00 -0.00000000000E+00 -0.16929752507E+02  0.16929752507E+02  0.00000000000E+00 0.  1.
        -11    1    1    2    0    0  0.20503288233E+02 -0.50249655540E+01 -0.42699174850E+01  0.21537578846E+02  0.00000000000E+00 0.  1.
         11    1    1    2    0    0 -0.20503288233E+02  0.50249655540E+01  0.23646289909E+02  0.31698298593E+02  0.00000000000E+00 0. -1.
<mgrwt>
<rscale>  0 0.49584421E+02</rscale>
<asrwt>0</asrwt>
<pdfrwt beam="1">  1        2 0.55855576E-02 0.49584421E+02</pdfrwt>
<pdfrwt beam="2">  1       -2 0.26045773E-02 0.49584421E+02</pdfrwt>
<totfact> 0.49506074E+05</totfact>
</mgrwt>
</event>
<event>
 4    1  0.4118611E+000  0.4472412E+02  0.7546771E-02  0.1476071E+00
          2   -1    0    0  501    0  0.00000000000E+00  0.00000000000E+00  0.18309911227E+02  0.18309911227E+02  0.00000000000E+00 0.  1.
         -2   -1    0    0    0  501 -0.00000000000E+00 -0.00000000000E+00 -0.27310987130E+02  0.27310987130E+02  0.00000000000E+00 0. -1.
        -11    1    1    2    0    0 -0.10499520154E+01 -0.18912695636E+02 -0.16624537382E+02  0.25202533575E+02  0.00000000000E+00 0. -1.
         11    1    1    2    0    0  0.10499520154E+01  0.18912695636E+02  0.76234614787E+01  0.20418364782E+02  0.00000000000E+00 0.  1.
<mgrwt>
<rscale>  0 0.44724121E+02</rscale>
<asrwt>0</asrwt>
<pdfrwt beam="1">  1        2 0.28169094E-02 0.44724121E+02</pdfrwt>
<pdfrwt beam="2">  1       -2 0.42016903E-02 0.44724121E+02</pdfrwt>
<totfact> 0.58354143E+05</totfact>
</mgrwt>
</event>
<event>
 4    1  0.4118611E+000  0.2688350E+02  0.7546771E-02  0.1635335E+00
         -2   -1    0    0    0  501 -0.00000000000E+00  0.00000000000E+00  0.16083734150E+02  0.16083734150E+02  0.00000000000E+00 0. -1.
          2   -1    0    0  501    0  0.00000000000E+00 -0.00000000000E+00 -0.11233745537E+02  0.11233745537E+02  0.00000000000E+00 0.  1.
        -11    1    1    2    0    0 -0.40903617046E+01 -0.95383125088E+01 -0.62551592171E+01  0.12117651638E+02  0.00000000000E+00 0.  1.
         11    1    1    2    0    0  0.40903617046E+01  0.95383125088E+01  0.11105147830E+02  0.15199828049E+02  0.00000000000E+00 0. -1.
<mgrwt>
<rscale>  0 0.26883495E+02</rscale>
<asrwt>0</asrwt>
<pdfrwt beam="2">  1        2 0.17282685E-02 0.26883495E+02</pdfrwt>
<pdfrwt beam="1">  1       -2 0.24744207E-02 0.26883495E+02</pdfrwt>
<totfact> 0.19870760E+06</totfact>
</mgrwt>
</event>
<event>
 4    1  0.4118611E+000  0.2295007E+02  0.7546771E-02  0.1692321E+00
         -4   -1    0    0    0  501 -0.00000000000E+00  0.00000000000E+00  0.47332017549E+02  0.47332017549E+02  0.00000000000E+00 0. -1.
          4   -1    0    0  501    0  0.00000000000E+00 -0.00000000000E+00 -0.27819746931E+01  0.27819746931E+01  0.00000000000E+00 0.  1.
        -11    1    1    2    0    0  0.12229350607E+01 -0.10114980915E+02  0.33802340766E+02  0.35304484848E+02  0.00000000000E+00 0. -1.
         11    1    1    2    0    0 -0.12229350607E+01  0.10114980915E+02  0.10747702089E+02  0.14809507394E+02  0.00000000000E+00 0.  1.
<mgrwt>
<rscale>  0 0.22950074E+02</rscale>
<asrwt>0</asrwt>
<pdfrwt beam="2">  1        4 0.42799614E-03 0.22950074E+02</pdfrwt>
<pdfrwt beam="1">  1       -4 0.72818483E-02 0.22950074E+02</pdfrwt>
<totfact> 0.86682875E+05</totfact>
</mgrwt>
</event>
<event>
 4    1  0.4118611E+000  0.2115239E+02  0.7546771E-02  0.1723337E+00
         -4   -1    0    0    0  501 -0.00000000000E+00  0.00000000000E+00  0.25971731668E+02  0.25971731668E+02  0.00000000000E+00 0.  1.
          4   -1    0    0  501    0  0.00000000000E+00 -0.00000000000E+00 -0.43068330725E+01  0.43068330725E+01  0.00000000000E+00 0. -1.
        -11    1    1    2    0    0 -0.86017375039E+01 -0.53518672038E+01  0.64850984926E+01  0.12028668801E+02  0.00000000000E+00 0. -1.
         11    1    1    2    0    0  0.86017375039E+01  0.53518672038E+01  0.15179800103E+02  0.18249895940E+02  0.00000000000E+00 0.  1.
<mgrwt>
<rscale>  0 0.21152391E+02</rscale>
<asrwt>0</asrwt>
<pdfrwt beam="2">  1        4 0.66258972E-03 0.21152391E+02</pdfrwt>
<pdfrwt beam="1">  1       -4 0.39956509E-02 0.21152391E+02</pdfrwt>
<totfact> 0.11088009E+06</totfact>
</mgrwt>
</event>
<event>
 4    1  0.4118611E+000  0.4798822E+02  0.7546771E-02  0.1456505E+00
         -1   -1    0    0    0  501 -0.00000000000E+00  0.00000000000E+00  0.61437511630E+02  0.61437511630E+02  0.00000000000E+00 0.  1.
          1   -1    0    0  501    0  0.00000000000E+00 -0.00000000000E+00 -0.93707795068E+01  0.93707795068E+01  0.00000000000E+00 0. -1.
        -11    1    1    2    0    0  0.53391239883E+01  0.23349511685E+02  0.28126043769E+02  0.36942932734E+02  0.00000000000E+00 0. -1.
         11    1    1    2    0    0 -0.53391239883E+01 -0.23349511685E+02  0.23940688354E+02  0.33865358403E+02  0.00000000000E+00 0.  1.
<mgrwt>
<rscale>  0 0.47988223E+02</rscale>
<asrwt>0</asrwt>
<pdfrwt beam="2">  1        1 0.14416584E-02 0.47988223E+02</pdfrwt>
<pdfrwt beam="1">  1       -1 0.94519246E-02 0.47988223E+02</pdfrwt>
<totfact> 0.44137490E+05</totfact>
</mgrwt>
</event>
<event>
 4    1  0.4118611E+000  0.2444333E+02  0.7546771E-02  0.1669129E+00
         -2   -1    0    0    0  501 -0.00000000000E+00  0.00000000000E+00  0.21026438802E+02  0.21026438802E+02  0.00000000000E+00 0.  1.
          2   -1    0    0  501    0  0.00000000000E+00 -0.00000000000E+00 -0.71038713775E+01  0.71038713775E+01  0.00000000000E+00 0. -1.
        -11    1    1    2    0    0  0.87558619075E+01 -0.70075671944E+01  0.13707698737E+01  0.11298235516E+02  0.00000000000E+00 0. -1.
         11    1    1    2    0    0 -0.87558619075E+01  0.70075671944E+01  0.12551797551E+02  0.16832074664E+02  0.00000000000E+00 0.  1.
<mgrwt>
<rscale>  0 0.24443332E+02</rscale>
<asrwt>0</asrwt>
<pdfrwt beam="2">  1        2 0.10929033E-02 0.24443332E+02</pdfrwt>
<pdfrwt beam="1">  1       -2 0.32348367E-02 0.24443332E+02</pdfrwt>
<totfact> 0.23970407E+06</totfact>
</mgrwt>
</event>
<event>
 4    1  0.4118611E+000  0.2874490E+02  0.7546771E-02  0.1612391E+00
         -2   -1    0    0    0  501 -0.00000000000E+00  0.00000000000E+00  0.14451398451E+01  0.14451398451E+01  0.00000000000E+00 0. -1.
          2   -1    0    0  501    0  0.00000000000E+00 -0.00000000000E+00 -0.14293936995E+03  0.14293936995E+03  0.00000000000E+00 0.  1.
        -13    1    1    2    0    0  0.64551853258E+01  0.12785250218E+02 -0.76764902749E+02  0.78089578913E+02  0.00000000000E+00 0.  1.
         13    1    1    2    0    0 -0.64551853258E+01 -0.12785250218E+02 -0.64729327358E+02  0.66294930884E+02  0.00000000000E+00 0. -1.
<mgrwt>
<rscale>  0 0.28744904E+02</rscale>
<asrwt>0</asrwt>
<pdfrwt beam="2">  1        2 0.21990679E-01 0.28744904E+02</pdfrwt>
<pdfrwt beam="1">  1       -2 0.22232914E-03 0.28744904E+02</pdfrwt>
<totfact> 0.25352280E+06</totfact>
</mgrwt>
</event>
<event>
 4    1  0.4118611E+000  0.2589426E+02  0.7546771E-02  0.1648480E+00
         -2   -1    0    0    0  501 -0.00000000000E+00  0.00000000000E+00  0.33936626489E+01  0.33936626489E+01  0.00000000000E+00 0. -1.
          2   -1    0    0  501    0  0.00000000000E+00 -0.00000000000E+00 -0.49394472359E+02  0.49394472359E+02  0.00000000000E+00 0.  1.
        -11    1    1    2    0    0  0.10228066903E+01  0.12740997264E+02 -0.27202615015E+02  0.30055971261E+02  0.00000000000E+00 0.  1.
         11    1    1    2    0    0 -0.10228066903E+01 -0.12740997264E+02 -0.18798194695E+02  0.22732163747E+02  0.00000000000E+00 0. -1.
<mgrwt>
<rscale>  0 0.25894260E+02</rscale>
<asrwt>0</asrwt>
<pdfrwt beam="2">  1        2 0.75991495E-02 0.25894260E+02</pdfrwt>
<pdfrwt beam="1">  1       -2 0.52210195E-03 0.25894260E+02</pdfrwt>
<totfact> 0.25665903E+06</totfact>
</mgrwt>
</event>
<event>
 4    1  0.4118611E+000  0.2178644E+02  0.7546771E-02  0.1711972E+00
         -4   -1    0    0    0  501 -0.00000000000E+00  0.00000000000E+00  0.31506904545E+02  0.31506904545E+02  0.00000000000E+00 0.  1.
          4   -1    0    0  501    0  0.00000000000E+00 -0.00000000000E+00 -0.37662307972E+01  0.37662307972E+01  0.00000000000E+00 0. -1.
        -11    1    1    2    0    0  0.55183324630E+00 -0.10608113027E+02  0.17778129476E+02  0.20709864065E+02  0.00000000000E+00 0. -1.
         11    1    1    2    0    0 -0.55183324630E+00  0.10608113027E+02  0.99625442718E+01  0.14563271277E+02  0.00000000000E+00 0.  1.
<mgrwt>
<rscale>  0 0.21786443E+02</rscale>
<asrwt>0</asrwt>
<pdfrwt beam="2">  1        4 0.57942015E-03 0.21786443E+02</pdfrwt>
<pdfrwt beam="1">  1       -4 0.48472159E-02 0.21786443E+02</pdfrwt>
<totfact> 0.10218946E+06</totfact>
</mgrwt>
</event>
<event>
 4    1  0.4118611E+000  0.7126876E+02  0.7546771E-02  0.1355831E+00
         -2   -1    0    0    0  501 -0.00000000000E+00  0.00000000000E+00  0.80622323284E+01  0.80622323284E+01  0.00000000000E+00 0.  1.
          2   -1    0    0  501    0  0.00000000000E+00 -0.00000000000E+00 -0.15750094308E+03  0.15750094308E+03  0.00000000000E+00 0. -1.
        -11    1    1    2    0    0  0.26218377728E+02  0.61132334655E+01 -0.12895395163E+03  0.13173418916E+03  0.00000000000E+00 0. -1.
         11    1    1    2    0    0 -0.26218377728E+02 -0.61132334655E+01 -0.20484759128E+02  0.33828986249E+02  0.00000000000E+00 0.  1.
<mgrwt>
<rscale>  0 0.71268764E+02</rscale>
<asrwt>0</asrwt>
<pdfrwt beam="2">  1        2 0.24230913E-01 0.71268764E+02</pdfrwt>
<pdfrwt beam="1">  1       -2 0.12403435E-02 0.71268764E+02</pdfrwt>
<totfact> 0.27423990E+05</totfact>
</mgrwt>
</event>
<event>
 4    1  0.4118611E+000  0.2203767E+02  0.7546771E-02  0.1707601E+00
          3   -1    0    0  501    0  0.00000000000E+00  0.00000000000E+00  0.25805800474E+01  0.25805800474E+01  0.00000000000E+00 0. -1.
         -3   -1    0    0    0  501 -0.00000000000E+00 -0.00000000000E+00 -0.47049404611E+02  0.47049404611E+02  0.00000000000E+00 0.  1.
        -13    1    1    2    0    0 -0.99671873374E+01  0.26871640923E+01 -0.13556241499E+02  0.17039288654E+02  0.00000000000E+00 0. -1.
         13    1    1    2    0    0  0.99671873374E+01 -0.26871640923E+01 -0.30912583065E+02  0.32590696004E+02  0.00000000000E+00 0.  1.
<mgrwt>
<rscale>  0 0.22037673E+02</rscale>
<asrwt>0</asrwt>
<pdfrwt beam="1">  1        3 0.39701233E-03 0.22037673E+02</pdfrwt>
<pdfrwt beam="2">  1       -3 0.72383697E-02 0.22037673E+02</pdfrwt>
<totfact> 0.13140867E+06</totfact>
</mgrwt>
</event>
<event>
 4    1  0.4118611E+000  0.2578011E+02  0.7546771E-02  0.1650043E+00
         -4   -1    0    0    0  501 -0.00000000000E+00  0.00000000000E+00  0.20034529199E+01  0.20034529199E+01  0.00000000000E+00 0. -1.
          4   -1    0    0  501    0  0.00000000000E+00 -0.00000000000E+00 -0.82933570984E+02  0.82933570984E+02  0.00000000000E+00 0.  1.
        -11    1    1    2    0    0  0.99869541132E-01 -0.12213955133E+02 -0.54034484460E+02  0.55397799458E+02  0.00000000000E+00 0.  1.
         11    1    1    2    0    0 -0.99869541132E-01  0.12213955133E+02 -0.26895633604E+02  0.29539224446E+02  0.00000000000E+00 0. -1.
<mgrwt>
<rscale>  0 0.25780109E+02</rscale>
<asrwt>0</asrwt>
<pdfrwt beam="2">  1        4 0.12759012E-01 0.25780109E+02</pdfrwt>
<pdfrwt beam="1">  1       -4 0.30822349E-03 0.25780109E+02</pdfrwt>
<totfact> 0.60464684E+05</totfact>
</mgrwt>
</event>
<event>
 4    1  0.4118611E+000  0.3911905E+02  0.7546771E-02  0.1514796E+00
          2   -1    0    0  501    0  0.00000000000E+00  0.00000000000E+00  0.12886334435E+02  0.12886334435E+02  0.00000000000E+00 0.  1.
         -2   -1    0    0    0  501 -0.00000000000E+00 -0.00000000000E+00 -0.29688426180E+02  0.29688426180E+02  0.00000000000E+00 0. -1.
        -11    1    1    2    0    0 -0.11509739369E+02  0.22464710628E+01 -0.25438121721E+02  0.28011047272E+02  0.00000000000E+00 0. -1.
         11    1    1    2    0    0  0.11509739369E+02 -0.22464710628E+01  0.86360299765E+01  0.14563713343E+02  0.00000000000E+00 0.  1.
<mgrwt>
<rscale>  0 0.39119048E+02</rscale>
<asrwt>0</asrwt>
<pdfrwt beam="1">  1        2 0.19825130E-02 0.39119048E+02</pdfrwt>
<pdfrwt beam="2">  1       -2 0.45674502E-02 0.39119048E+02</pdfrwt>
<totfact> 0.78853159E+05</totfact>
</mgrwt>
</event>
<event>
 4    1  0.4118611E+000  0.3233256E+02  0.7546771E-02  0.1573650E+00
          1   -1    0    0  501    0  0.00000000000E+00  0.00000000000E+00  0.40425460466E+01  0.40425460466E+01  0.00000000000E+00 0.  1.
         -1   -1    0    0    0  501 -0.00000000000E+00 -0.00000000000E+00 -0.64649490240E+02  0.64649490240E+02  0.00000000000E+00 0. -1.
        -11    1    1    2    0    0  0.16071942424E+02 -0.10164566257E+01 -0.27292887847E+02  0.31689781388E+02  0.00000000000E+00 0.  1.
         11    1    1    2    0    0 -0.16071942424E+02  0.10164566257E+01 -0.33314056346E+02  0.37002254899E+02  0.00000000000E+00 0. -1.
<mgrwt>
<rscale>  0 0.32332556E+02</rscale>
<asrwt>0</asrwt>
<pdfrwt beam="1">  1        1 0.62193016E-03 0.32332556E+02</pdfrwt>
<pdfrwt beam="2">  1       -1 0.99460755E-02 0.32332556E+02</pdfrwt>
<totfact> 0.11352254E+06</totfact>
</mgrwt>
</event>
<event>
 4    1  0.4118611E+000  0.2104585E+02  0.7546771E-02  0.1725296E+00
         -3   -1    0    0    0  501 -0.00000000000E+00  0.00000000000E+00  0.10547796634E+02  0.10547796634E+02  0.00000000000E+00 0.  1.
          3   -1    0    0  501    0  0.00000000000E+00 -0.00000000000E+00 -0.10498111847E+02  0.10498111847E+02  0.00000000000E+00 0. -1.
        -13    1    1    2    0    0 -0.21841284934E+01  0.10058997590E+02 -0.21610500178E+01  0.10517793826E+02  0.00000000000E+00 0. -1.
         13    1    1    2    0    0  0.21841284934E+01 -0.10058997590E+02  0.22107348044E+01  0.10528114654E+02  0.00000000000E+00 0.  1.
<mgrwt>
<rscale>  0 0.21045850E+02</rscale>
<asrwt>0</asrwt>
<pdfrwt beam="2">  1        3 0.16150941E-02 0.21045850E+02</pdfrwt>
<pdfrwt beam="1">  1       -3 0.16227380E-02 0.21045850E+02</pdfrwt>
<totfact> 0.15949958E+06</totfact>
</mgrwt>
</event>
<event>
 4    1  0.4118611E+000  0.4607338E+02  0.7546771E-02  0.1467750E+00
          1   -1    0    0  501    0  0.00000000000E+00  0.00000000000E+00  0.81816701409E+02  0.81816701409E+02  0.00000000000E+00 0.  1.
         -1   -1    0    0    0  501 -0.00000000000E+00 -0.00000000000E+00 -0.64863186559E+01  0.64863186559E+01  0.00000000000E+00 0. -1.
        -13    1    1    2    0    0 -0.20045822619E+01  0.18572991109E+02  0.11829466825E+02  0.22111323663E+02  0.00000000000E+00 0. -1.
         13    1    1    2    0    0  0.20045822619E+01 -0.18572991109E+02  0.63500915928E+02  0.66191696401E+02  0.00000000000E+00 0.  1.
<mgrwt>
<rscale>  0 0.46073385E+02</rscale>
<asrwt>0</asrwt>
<pdfrwt beam="1">  1        1 0.12587184E-01 0.46073385E+02</pdfrwt>
<pdfrwt beam="2">  1       -1 0.99789524E-03 0.46073385E+02</pdfrwt>
<totfact> 0.60465250E+05</totfact>
</mgrwt>
</event>
<event>
 4    1  0.4118611E+000  0.7872528E+02  0.7546771E-02  0.1332708E+00
         -1   -1    0    0    0  501 -0.00000000000E+00  0.00000000000E+00  0.16013944019E+03  0.16013944019E+03  0.00000000000E+00 0.  1.
          1   -1    0    0  501    0  0.00000000000E+00 -0.00000000000E+00 -0.96754277470E+01  0.96754277470E+01  0.00000000000E+00 0. -1.
        -13    1    1    2    0    0  0.96686489567E+01  0.35517288058E+02  0.45152317828E+02  0.58255406006E+02  0.00000000000E+00 0. -1.
         13    1    1    2    0    0 -0.96686489567E+01 -0.35517288058E+02  0.10531169461E+03  0.11155946193E+03  0.00000000000E+00 0.  1.
<mgrwt>
<rscale>  0 0.78725284E+02</rscale>
<asrwt>0</asrwt>
<pdfrwt beam="2">  1        1 0.14885275E-02 0.78725284E+02</pdfrwt>
<pdfrwt beam="1">  1       -1 0.24636835E-01 0.78725284E+02</pdfrwt>
<totfact> 0.10763586E+05</totfact>
</mgrwt>
</event>
<event>
 4    1  0.4118611E+000  0.2244326E+02  0.7546771E-02  0.1700697E+00
         -2   -1    0    0    0  501 -0.00000000000E+00  0.00000000000E+00  0.14282655099E+01  0.14282655099E+01  0.00000000000E+00 0.  1.
          2   -1    0    0  501    0  0.00000000000E+00 -0.00000000000E+00 -0.88166344793E+02  0.88166344793E+02  0.00000000000E+00 0. -1.
        -11    1    1    2    0    0 -0.10852410033E+02 -0.27727257990E+01 -0.40655216060E+02  0.42170005985E+02  0.00000000000E+00 0.  1.
         11    1    1    2    0    0  0.10852410033E+02  0.27727257990E+01 -0.46082863223E+02  0.47424604318E+02  0.00000000000E+00 0. -1.
<mgrwt>
<rscale>  0 0.22443257E+02</rscale>
<asrwt>0</asrwt>
<pdfrwt beam="2">  1        2 0.13564055E-01 0.22443257E+02</pdfrwt>
<pdfrwt beam="1">  1       -2 0.21973312E-03 0.22443257E+02</pdfrwt>
<totfact> 0.39671733E+06</totfact>
</mgrwt>
</event>
<event>
 4    1  0.4118611E+000  0.3327445E+02  0.7546771E-02  0.1564480E+00
         -4   -1    0    0    0  501 -0.00000000000E+00  0.00000000000E+00  0.29118215665E+01  0.29118215665E+01  0.00000000000E+00 0. -1.
          4   -1    0    0  501    0  0.00000000000E+00 -0.00000000000E+00 -0.95059836440E+02  0.95059836440E+02  0.00000000000E+00 0.  1.
        -13    1    1    2    0    0  0.87984617471E+01 -0.10338008363E+02 -0.74393387463E+02  0.75621845020E+02  0.00000000000E+00 0.  1.
         13    1    1    2    0    0 -0.87984617471E+01  0.10338008363E+02 -0.17754627410E+02  0.22349812986E+02  0.00000000000E+00 0. -1.
<mgrwt>
<rscale>  0 0.33274452E+02</rscale>
<asrwt>0</asrwt>
<pdfrwt beam="2">  1        4 0.14624592E-01 0.33274452E+02</pdfrwt>
<pdfrwt beam="1">  1       -4 0.44797250E-03 0.33274452E+02</pdfrwt>
<totfact> 0.33088069E+05</totfact>
</mgrwt>
</event>
<event>
 4    1  0.4118611E+000  0.4061463E+02  0.7546771E-02  0.1503737E+00
         -2   -1    0    0    0  501 -0.00000000000E+00  0.00000000000E+00  0.53555547492E+01  0.53555547492E+01  0.00000000000E+00 0.  1.
          2   -1    0    0  501    0  0.00000000000E+00 -0.00000000000E+00 -0.77001758197E+02  0.77001758197E+02  0.00000000000E+00 0. -1.
        -13    1    1    2    0    0 -0.14341775381E+02  0.10463931630E+02 -0.15830568700E+02  0.23786283686E+02  0.00000000000E+00 0.  1.
         13    1    1    2    0    0  0.14341775381E+02 -0.10463931630E+02 -0.55815634748E+02  0.58571029260E+02  0.00000000000E+00 0. -1.
<mgrwt>
<rscale>  0 0.40614634E+02</rscale>
<asrwt>0</asrwt>
<pdfrwt beam="2">  1        2 0.11846424E-01 0.40614634E+02</pdfrwt>
<pdfrwt beam="1">  1       -2 0.82393150E-03 0.40614634E+02</pdfrwt>
<totfact> 0.94619339E+05</totfact>
</mgrwt>
</event>
<event>
 4    1  0.4118611E+000  0.3360719E+02  0.7546771E-02  0.1561329E+00
          4   -1    0    0  501    0  0.00000000000E+00  0.00000000000E+00  0.28130560395E+02  0.28130560395E+02  0.00000000000E+00 0. -1.
         -4   -1    0    0    0  501 -0.00000000000E+00 -0.00000000000E+00 -0.10037508825E+02  0.10037508825E+02  0.00000000000E+00 0.  1.
        -13    1    1    2    0    0  0.10292079355E+02 -0.33627313298E+01 -0.55475170827E+01  0.12165928046E+02  0.00000000000E+00 0.  1.
         13    1    1    2    0    0 -0.10292079355E+02  0.33627313298E+01  0.23640568652E+02  0.26002141174E+02  0.00000000000E+00 0. -1.
<mgrwt>
<rscale>  0 0.33607187E+02</rscale>
<asrwt>0</asrwt>
<pdfrwt beam="1">  1        4 0.43277785E-02 0.33607187E+02</pdfrwt>
<pdfrwt beam="2">  1       -4 0.15442321E-02 0.33607187E+02</pdfrwt>
<totfact> 0.38928094E+05</totfact>
</mgrwt>
</event>
<event>
 4    1  0.4118611E+000  0.4385560E+02  0.7546771E-02  0.1481615E+00
          1   -1    0    0  501    0  0.00000000000E+00  0.00000000000E+00  0.13189515924E+02  0.13189515924E+02  0.00000000000E+00 0. -1.
         -1   -1    0    0    0  501 -0.00000000000E+00 -0.00000000000E+00 -0.36455347999E+02  0.36455347999E+02  0.00000000000E+00 0.  1.
        -13    1    1    2    0    0  0.14718060250E+02  0.88185677111E+01  0.38238550751E+01  0.17578688849E+02  0.00000000000E+00 0. -1.
         13    1    1    2    0    0 -0.14718060250E+02 -0.88185677111E+01 -0.27089687150E+02  0.32066175074E+02  0.00000000000E+00 0.  1.
<mgrwt>
<rscale>  0 0.43855599E+02</rscale>
<asrwt>0</asrwt>
<pdfrwt beam="1">  1        1 0.20291563E-02 0.43855599E+02</pdfrwt>
<pdfrwt beam="2">  1       -1 0.56085150E-02 0.43855599E+02</pdfrwt>
<totfact> 0.58098837E+05</totfact>
</mgrwt>
</event>
<event>
 4    1  0.4118611E+000  0.2548818E+02  0.7546771E-02  0.1654087E+00
         -3   -1    0    0    0  501 -0.00000000000E+00  0.00000000000E+00  0.36166671209E+02  0.36166671209E+02  0.00000000000E+00 0. -1.
          3   -1    0    0  501    0  0.00000000000E+00 -0.00000000000E+00 -0.44906476959E+01  0.44906476959E+01  0.00000000000E+00 0.  1.
        -13    1    1    2    0    0  0.77704348564E+01  0.63806354673E+01  0.33469407262E+01  0.10596894783E+02  0.00000000000E+00 0.  1.
         13    1    1    2    0    0 -0.77704348564E+01 -0.63806354673E+01  0.28329082787E+02  0.30060424122E+02  0.00000000000E+00 0. -1.
<mgrwt>
<rscale>  0 0.25488176E+02</rscale>
<asrwt>0</asrwt>
<pdfrwt beam="2">  1        3 0.69086890E-03 0.25488176E+02</pdfrwt>
<pdfrwt beam="1">  1       -3 0.55641031E-02 0.25488176E+02</pdfrwt>
<totfact> 0.97655034E+05</totfact>
</mgrwt>
</event>
<event>
 4    1  0.4118611E+000  0.2846307E+02  0.7546771E-02  0.1615726E+00
         -2   -1    0    0    0  501 -0.00000000000E+00  0.00000000000E+00  0.15927461258E+02  0.15927461258E+02  0.00000000000E+00 0. -1.
          2   -1    0    0  501    0  0.00000000000E+00 -0.00000000000E+00 -0.12716186658E+02  0.12716186658E+02  0.00000000000E+00 0.  1.
        -13    1    1    2    0    0  0.12069594815E+02 -0.44490795276E+01 -0.45212678942E+01  0.13634929080E+02  0.00000000000E+00 0. -1.
         13    1    1    2    0    0 -0.12069594815E+02  0.44490795276E+01  0.77325424939E+01  0.15008718835E+02  0.00000000000E+00 0.  1.
<mgrwt>
<rscale>  0 0.28463069E+02</rscale>
<asrwt>0</asrwt>
<pdfrwt beam="2">  1        2 0.19563364E-02 0.28463069E+02</pdfrwt>
<pdfrwt beam="1">  1       -2 0.24503787E-02 0.28463069E+02</pdfrwt>
<totfact> 0.17507721E+06</totfact>
</mgrwt>
</event>
<event>
 4    1  0.4118611E+000  0.4538198E+02  0.7546771E-02  0.1471971E+00
          2   -1    0    0  501    0  0.00000000000E+00  0.00000000000E+00  0.11736552691E+03  0.11736552691E+03  0.00000000000E+00 0. -1.
         -2   -1    0    0    0  501 -0.00000000000E+00 -0.00000000000E+00 -0.43869871070E+01  0.43869871070E+01  0.00000000000E+00 0.  1.
        -11    1    1    2    0    0 -0.22246816365E+02 -0.13672250260E+01  0.67900296067E+02  0.71464958886E+02  0.00000000000E+00 0. -1.
         11    1    1    2    0    0  0.22246816365E+02  0.13672250260E+01  0.45078243733E+02  0.50287555128E+02  0.00000000000E+00 0.  1.
<mgrwt>
<rscale>  0 0.45381981E+02</rscale>
<asrwt>0</asrwt>
<pdfrwt beam="1">  1        2 0.18056233E-01 0.45381981E+02</pdfrwt>
<pdfrwt beam="2">  1       -2 0.67492118E-03 0.45381981E+02</pdfrwt>
<totfact> 0.79717807E+05</totfact>
</mgrwt>
</event>
<event>
 4    1  0.4118611E+000  0.2485266E+02  0.7546771E-02  0.1663127E+00
         -2   -1    0    0    0  501 -0.00000000000E+00  0.00000000000E+00  0.74025993924E+01  0.74025993924E+01  0.00000000000E+00 0. -1.
          2   -1    0    0  501    0  0.00000000000E+00 -0.00000000000E+00 -0.20859384519E+02  0.20859384519E+02  0.00000000000E+00 0.  1.
        -13    1    1    2    0    0  0.11845344730E+02  0.74538394707E-01 -0.24588978026E+01  0.12098095972E+02  0.00000000000E+00 0.  1.
         13    1    1    2    0    0 -0.11845344730E+02 -0.74538394707E-01 -0.10997887324E+02  0.16163887940E+02  0.00000000000E+00 0. -1.
<mgrwt>
<rscale>  0 0.24852659E+02</rscale>
<asrwt>0</asrwt>
<pdfrwt beam="2">  1        2 0.32091361E-02 0.24852659E+02</pdfrwt>
<pdfrwt beam="1">  1       -2 0.11388615E-02 0.24852659E+02</pdfrwt>
<totfact> 0.25385295E+06</totfact>
</mgrwt>
</event>
<event>
 4    1  0.4118611E+000  0.2594494E+02  0.7546771E-02  0.1647789E+00
          1   -1    0    0  501    0  0.00000000000E+00  0.00000000000E+00  0.64654683015E+01  0.64654683015E+01  0.00000000000E+00 0.  1.
         -1   -1    0    0    0  501 -0.00000000000E+00 -0.00000000000E+00 -0.26028263913E+02  0.26028263913E+02  0.00000000000E+00 0. -1.
        -13    1    1    2    0    0 -0.20629248806E+01  0.10721529380E+02 -0.10075374415E+01  0.10964578560E+02  0.00000000000E+00 0. -1.
         13    1    1    2    0    0  0.20629248806E+01 -0.10721529380E+02 -0.18555258170E+02  0.21529153654E+02  0.00000000000E+00 0.  1.
<mgrwt>
<rscale>  0 0.25944935E+02</rscale>
<asrwt>0</asrwt>
<pdfrwt beam="1">  1        1 0.99468742E-03 0.25944935E+02</pdfrwt>
<pdfrwt beam="2">  1       -1 0.40043483E-02 0.25944935E+02</pdfrwt>
<totfact> 0.20544010E+06</totfact>
</mgrwt>
</event>
<event>
 4    1  0.4118611E+000  0.4430230E+02  0.7546771E-02  0.1478745E+00
          2   -1    0    0  501    0  0.00000000000E+00  0.00000000000E+00  0.10767871827E+02  0.10767871827E+02  0.00000000000E+00 0.  1.
         -2   -1    0    0    0  501 -0.00000000000E+00 -0.00000000000E+00 -0.45568292035E+02  0.45568292035E+02  0.00000000000E+00 0. -1.
        -11    1    1    2    0    0  0.66839028726E+01  0.14224660398E+02  0.24493691186E+01  0.15906443038E+02  0.00000000000E+00 0.  1.
         11    1    1    2    0    0 -0.66839028726E+01 -0.14224660398E+02 -0.37249789327E+02  0.40429720824E+02  0.00000000000E+00 0. -1.
<mgrwt>
<rscale>  0 0.44302304E+02</rscale>
<asrwt>0</asrwt>
<pdfrwt beam="1">  1        2 0.16565956E-02 0.44302304E+02</pdfrwt>
<pdfrwt beam="2">  1       -2 0.70105066E-02 0.44302304E+02</pdfrwt>
<totfact> 0.55289557E+05</totfact>
</mgrwt>
</event>
<event>
 4    1  0.4118611E+000  0.2229411E+02  0.7546771E-02  0.1703215E+00
          2   -1    0    0  501    0  0.00000000000E+00  0.00000000000E+00  0.17143265688E+02  0.17143265688E+02  0.00000000000E+00 0. -1.
         -2   -1    0    0    0  501 -0.00000000000E+00 -0.00000000000E+00 -0.72481431791E+01  0.72481431791E+01  0.00000000000E+00 0.  1.
        -13    1    1    2    0    0 -0.10972944151E+02 -0.10884911887E+01  0.31609922547E+01  0.11470927967E+02  0.00000000000E+00 0. -1.
         13    1    1    2    0    0  0.10972944151E+02  0.10884911887E+01  0.67341302541E+01  0.12920480900E+02  0.00000000000E+00 0.  1.
<mgrwt>
<rscale>  0 0.22294111E+02</rscale>
<asrwt>0</asrwt>
<pdfrwt beam="1">  1        2 0.26374255E-02 0.22294111E+02</pdfrwt>
<pdfrwt beam="2">  1       -2 0.11150990E-02 0.22294111E+02</pdfrwt>
<totfact> 0.32091128E+06</totfact>
</mgrwt>
</event>
<event>
 4    1  0.4118611E+000  0.3818669E+02  0.7546771E-02  0.1521996E+00
         -2   -1    0    0    0  501 -0.00000000000E+00  0.00000000000E+00  0.37655794084E+02  0.37655794084E+02  0.00000000000E+00 0. -1.
          2   -1    0    0  501    0  0.00000000000E+00 -0.00000000000E+00 -0.96812672024E+01  0.96812672024E+01  0.00000000000E+00 0.  1.
        -11    1    1    2    0    0 -0.11222949107E+02  0.13156692052E+02  0.24019985858E+02  0.29597514305E+02  0.00000000000E+00 0. -1.
         11    1    1    2    0    0  0.11222949107E+02 -0.13156692052E+02  0.39545410236E+01  0.17739546982E+02  0.00000000000E+00 0.  1.
<mgrwt>
<rscale>  0 0.38186689E+02</rscale>
<asrwt>0</asrwt>
<pdfrwt beam="2">  1        2 0.14894257E-02 0.38186689E+02</pdfrwt>
<pdfrwt beam="1">  1       -2 0.57931990E-02 0.38186689E+02</pdfrwt>
<totfact> 0.80797677E+05</totfact>
</mgrwt>
</event>
<event>
 4    1  0.4118611E+000  0.2896716E+02  0.7546771E-02  0.1609794E+00
          1   -1    0    0  501    0  0.00000000000E+00  0.00000000000E+00  0.14597241172E+02  0.14597241172E+02  0.00000000000E+00 0. -1.
         -1   -1    0    0    0  501 -0.00000000000E+00 -0.00000000000E+00 -0.14370806265E+02  0.14370806265E+02  0.00000000000E+00 0.  1.
        -11    1    1    2    0    0  0.27419786636E+01 -0.14201405053E+02  0.87203731505E+00  0.14489955195E+02  0.00000000000E+00 0.  1.
         11    1    1    2    0    0 -0.27419786636E+01  0.14201405053E+02 -0.64560240779E+00  0.14478092241E+02  0.00000000000E+00 0. -1.
<mgrwt>
<rscale>  0 0.28967162E+02</rscale>
<asrwt>0</asrwt>
<pdfrwt beam="1">  1        1 0.22457294E-02 0.28967162E+02</pdfrwt>
<pdfrwt beam="2">  1       -1 0.22108933E-02 0.28967162E+02</pdfrwt>
<totfact> 0.16532049E+06</totfact>
</mgrwt>
</event>
<event>
 4    1  0.4118611E+000  0.2576083E+02  0.7546771E-02  0.1650308E+00
         -2   -1    0    0    0  501 -0.00000000000E+00  0.00000000000E+00  0.66356593663E+02  0.66356593663E+02  0.00000000000E+00 0.  1.
          2   -1    0    0  501    0  0.00000000000E+00 -0.00000000000E+00 -0.25002054990E+01  0.25002054990E+01  0.00000000000E+00 0. -1.
        -11    1    1    2    0    0  0.11635332053E+02 -0.39953986058E+01  0.21728622743E+02  0.24969525592E+02  0.00000000000E+00 0. -1.
         11    1    1    2    0    0 -0.11635332053E+02  0.39953986058E+01  0.42127765421E+02  0.43887273570E+02  0.00000000000E+00 0.  1.
<mgrwt>
<rscale>  0 0.25760832E+02</rscale>
<asrwt>0</asrwt>
<pdfrwt beam="2">  1        2 0.38464705E-03 0.25760832E+02</pdfrwt>
<pdfrwt beam="1">  1       -2 0.10208705E-01 0.25760832E+02</pdfrwt>
<totfact> 0.18427117E+06</totfact>
</mgrwt>
</event>
<event>
 4    1  0.4118611E+000  0.4168262E+02  0.7546771E-02  0.1496182E+00
         -2   -1    0    0    0  501 -0.00000000000E+00  0.00000000000E+00  0.30908454753E+02  0.30908454753E+02  0.00000000000E+00 0. -1.
          2   -1    0    0  501    0  0.00000000000E+00 -0.00000000000E+00 -0.14053117470E+02  0.14053117470E+02  0.00000000000E+00 0.  1.
        -11    1    1    2    0    0  0.27073548141E+01  0.16593453142E+02 -0.48573349140E+01  0.17500461700E+02  0.00000000000E+00 0.  1.
         11    1    1    2    0    0 -0.27073548141E+01 -0.16593453142E+02  0.21712672196E+02  0.27461110523E+02  0.00000000000E+00 0. -1.
<mgrwt>
<rscale>  0 0.41682617E+02</rscale>
<asrwt>0</asrwt>
<pdfrwt beam="2">  1        2 0.21620181E-02 0.41682617E+02</pdfrwt>
<pdfrwt beam="1">  1       -2 0.47551469E-02 0.41682617E+02</pdfrwt>
<totfact> 0.67620147E+05</totfact>
</mgrwt>
</event>
<event>
 4    1  0.4118611E+000  0.2081397E+02  0.7546771E-02  0.1729609E+00
         -2   -1    0    0    0  501 -0.00000000000E+00  0.00000000000E+00  0.31176934469E+01  0.31176934469E+01  0.00000000000E+00 0. -1.
          2   -1    0    0  501    0  0.00000000000E+00 -0.00000000000E+00 -0.34738944292E+02  0.34738944292E+02  0.00000000000E+00 0.  1.
        -13    1    1    2    0    0 -0.97712434850E+01 -0.28082817312E+01 -0.11767411794E+02  0.15551065103E+02  0.00000000000E+00 0.  1.
         13    1    1    2    0    0  0.97712434850E+01  0.28082817312E+01 -0.19853839051E+02  0.22305572635E+02  0.00000000000E+00 0. -1.
<mgrwt>
<rscale>  0 0.20813974E+02</rscale>
<asrwt>0</asrwt>
<pdfrwt beam="2">  1        2 0.53444527E-02 0.20813974E+02</pdfrwt>
<pdfrwt beam="1">  1       -2 0.47964517E-03 0.20813974E+02</pdfrwt>
<totfact> 0.40326391E+06</totfact>
</mgrwt>
</event>
<event>
 4    1  0.4118611E+000  0.2522454E+02  0.7546771E-02  0.1657798E+00
          4   -1    0    0  501    0  0.00000000000E+00  0.00000000000E+00  0.12377595158E+02  0.12377595158E+02  0.00000000000E+00 0. -1.
         -4   -1    0    0    0  501 -0.00000000000E+00 -0.00000000000E+00 -0.12851389976E+02  0.12851389976E+02  0.00000000000E+00 0.  1.
        -13    1    1    2    0    0  0.87158942678E+01 -0.84718682663E+01 -0.36034883831E+01  0.12677716409E+02  0.00000000000E+00 0. -1.
         13    1    1    2    0    0 -0.87158942678E+01  0.84718682663E+01  0.31296935655E+01  0.12551268726E+02  0.00000000000E+00 0.  1.
<mgrwt>
<rscale>  0 0.25224536E+02</rscale>
<asrwt>0</asrwt>
<pdfrwt beam="1">  1        4 0.19042454E-02 0.25224536E+02</pdfrwt>
<pdfrwt beam="2">  1       -4 0.19771369E-02 0.25224536E+02</pdfrwt>
<totfact> 0.77915176E+05</totfact>
</mgrwt>
</event>
<event>
 4    1  0.4118611E+000  0.2906689E+02  0.7546771E-02  0.1608638E+00
          2   -1    0    0  501    0  0.00000000000E+00  0.00000000000E+00  0.96194339261E+01  0.96194339261E+01  0.00000000000E+00 0.  1.
         -2   -1    0    0    0  501 -0.00000000000E+00 -0.00000000000E+00 -0.21957741638E+02  0.21957741638E+02  0.00000000000E+00 0. -1.
        -11    1    1    2    0    0 -0.12704339334E+02 -0.57234645798E+01 -0.16817068192E+01  0.14035185162E+02  0.00000000000E+00 0.  1.
         11    1    1    2    0    0  0.12704339334E+02  0.57234645798E+01 -0.10656600893E+02  0.17541990403E+02  0.00000000000E+00 0. -1.
<mgrwt>
<rscale>  0 0.29066891E+02</rscale>
<asrwt>0</asrwt>
<pdfrwt beam="1">  1        2 0.14799129E-02 0.29066891E+02</pdfrwt>
<pdfrwt beam="2">  1       -2 0.33781141E-02 0.29066891E+02</pdfrwt>
<totfact> 0.16173013E+06</totfact>
</mgrwt>
</event>
<event>
 4    1  0.4118611E+000  0.2304480E+02  0.7546771E-02  0.1690785E+00
          2   -1    0    0  501    0  0.00000000000E+00  0.00000000000E+00  0.35206941068E+02  0.35206941068E+02  0.00000000000E+00 0.  1.
         -2   -1    0    0    0  501 -0.00000000000E+00 -0.00000000000E+00 -0.37710092141E+01  0.37710092141E+01  0.00000000000E+00 0. -1.
        -13    1    1    2    0    0 -0.75913559306E+01 -0.72230423914E+01  0.23823398368E+02  0.26026051104E+02  0.00000000000E+00 0.  1.
         13    1    1    2    0    0  0.75913559306E+01  0.72230423914E+01  0.76125334857E+01  0.12951899178E+02  0.00000000000E+00 0. -1.
<mgrwt>
<rscale>  0 0.23044800E+02</rscale>
<asrwt>0</asrwt>
<pdfrwt beam="1">  1        2 0.54164522E-02 0.23044800E+02</pdfrwt>
<pdfrwt beam="2">  1       -2 0.58015529E-03 0.23044800E+02</pdfrwt>
<totfact> 0.32040295E+06</totfact>
</mgrwt>
</event>
<event>
 4    1  0.4118611E+000  0.2914107E+02  0.7546771E-02  0.1607782E+00
          2   -1    0    0  501    0  0.00000000000E+00  0.00000000000E+00  0.27108738789E+02  0.27108738789E+02  0.00000000000E+00 0. -1.
         -2   -1    0    0    0  501 -0.00000000000E+00 -0.00000000000E+00 -0.78314416967E+01  0.78314416967E+01  0.00000000000E+00 0.  1.
        -11    1    1    2    0    0  0.25047450583E+01  0.10864436419E+02  0.20885687987E+02  0.23675339263E+02  0.00000000000E+00 0. -1.
         11    1    1    2    0    0 -0.25047450583E+01 -0.10864436419E+02 -0.16083908944E+01  0.11264841223E+02  0.00000000000E+00 0.  1.
<mgrwt>
<rscale>  0 0.29141071E+02</rscale>
<asrwt>0</asrwt>
<pdfrwt beam="1">  1        2 0.41705752E-02 0.29141071E+02</pdfrwt>
<pdfrwt beam="2">  1       -2 0.12048372E-02 0.29141071E+02</pdfrwt>
<totfact> 0.17904634E+06</totfact>
</mgrwt>
</event>
<event>
 4    1  0.4118611E+000  0.2436444E+02  0.7546771E-02  0.1670302E+00
         -2   -1    0    0    0  501 -0.00000000000E+00  0.00000000000E+00  0.38659763603E+01  0.38659763603E+01  0.00000000000E+00 0.  1.
          2   -1    0    0  501    0  0.00000000000E+00 -0.00000000000E+00 -0.38387850000E+02  0.38387850000E+02  0.00000000000E+00 0. -1.
        -11    1    1    2    0    0 -0.99390614175E+01 -0.35110914320E+01 -0.66701563413E+01  0.12474120832E+02  0.00000000000E+00 0.  1.
         11    1    1    2    0    0  0.99390614175E+01  0.35110914320E+01 -0.27851717299E+02  0.29779705529E+02  0.00000000000E+00 0. -1.
<mgrwt>
<rscale>  0 0.24364443E+02</rscale>
<asrwt>0</asrwt>
<pdfrwt beam="2">  1        2 0.59058234E-02 0.24364443E+02</pdfrwt>
<pdfrwt beam="1">  1       -2 0.59476556E-03 0.24364443E+02</pdfrwt>
<totfact> 0.28501995E+06</totfact>
</mgrwt>
</event>
<event>
 4    1  0.4118611E+000  0.2490319E+02  0.7546771E-02  0.1662396E+00
          1   -1    0    0  501    0  0.00000000000E+00  0.00000000000E+00  0.36563676884E+02  0.36563676884E+02  0.00000000000E+00 0.  1.
         -1   -1    0    0    0  501 -0.00000000000E+00 -0.00000000000E+00 -0.42403352540E+01  0.42403352540E+01  0.00000000000E+00 0. -1.
        -13    1    1    2    0    0 -0.11366117336E+02  0.43769412319E+01  0.20401573604E+02  0.23760691138E+02  0.00000000000E+00 0.  1.
         13    1    1    2    0    0  0.11366117336E+02 -0.43769412319E+01  0.11921768026E+02  0.17043321000E+02  0.00000000000E+00 0. -1.
<mgrwt>
<rscale>  0 0.24903192E+02</rscale>
<asrwt>0</asrwt>
<pdfrwt beam="1">  1        1 0.56251809E-02 0.24903192E+02</pdfrwt>
<pdfrwt beam="2">  1       -1 0.65235929E-03 0.24903192E+02</pdfrwt>
<totfact> 0.24842671E+06</totfact>
</mgrwt>
</event>
<event>
 4    1  0.4118611E+000  0.2364556E+02  0.7546771E-02  0.1681255E+00
          4   -1    0    0  501    0  0.00000000000E+00  0.00000000000E+00  0.15003608332E+01  0.15003608332E+01  0.00000000000E+00 0.  1.
         -4   -1    0    0    0  501 -0.00000000000E+00 -0.00000000000E+00 -0.93162998752E+02  0.93162998752E+02  0.00000000000E+00 0. -1.
        -11    1    1    2    0    0  0.56793360167E+01  0.10332640328E+02 -0.42341666513E+02  0.43952645390E+02  0.00000000000E+00 0. -1.
         11    1    1    2    0    0 -0.56793360167E+01 -0.10332640328E+02 -0.49320971406E+02  0.50710714195E+02  0.00000000000E+00 0.  1.
<mgrwt>
<rscale>  0 0.23645559E+02</rscale>
<asrwt>0</asrwt>
<pdfrwt beam="1">  1        4 0.23082471E-03 0.23645559E+02</pdfrwt>
<pdfrwt beam="2">  1       -4 0.14332771E-01 0.23645559E+02</pdfrwt>
<totfact> 0.70619126E+05</totfact>
</mgrwt>
</event>
<event>
 4    1  0.4118611E+000  0.2913505E+02  0.7546771E-02  0.1607851E+00
         -4   -1    0    0    0  501 -0.00000000000E+00  0.00000000000E+00  0.51687368283E+01  0.51687368283E+01  0.00000000000E+00 0. -1.
          4   -1    0    0  501    0  0.00000000000E+00 -0.00000000000E+00 -0.41056983560E+02  0.41056983560E+02  0.00000000000E+00 0.  1.
        -13    1    1    2    0    0 -0.81632052783E+01 -0.79028384683E+01 -0.32409196814E+02  0.34343104321E+02  0.00000000000E+00 0.  1.
         13    1    1    2    0    0  0.81632052783E+01  0.79028384683E+01 -0.34790499176E+01  0.11882616067E+02  0.00000000000E+00 0. -1.
<mgrwt>
<rscale>  0 0.29135047E+02</rscale>
<asrwt>0</asrwt>
<pdfrwt beam="2">  1        4 0.63164587E-02 0.29135047E+02</pdfrwt>
<pdfrwt beam="1">  1       -4 0.79519033E-03 0.29135047E+02</pdfrwt>
<totfact> 0.52361406E+05</totfact>
</mgrwt>
</event>
<event>
 4    1  0.4118611E+000  0.2477073E+02  0.7546771E-02  0.1664317E+00
         -2   -1    0    0    0  501 -0.00000000000E+00  0.00000000000E+00  0.73649940904E+01  0.73649940904E+01  0.00000000000E+00 0.  1.
          2   -1    0    0  501    0  0.00000000000E+00 -0.00000000000E+00 -0.20827879824E+02  0.20827879824E+02  0.00000000000E+00 0. -1.
        -13    1    1    2    0    0  0.12328249175E+02 -0.99373693322E+00 -0.59903567124E+01  0.13742547593E+02  0.00000000000E+00 0.  1.
         13    1    1    2    0    0 -0.12328249175E+02  0.99373693322E+00 -0.74725290211E+01  0.14450326321E+02  0.00000000000E+00 0. -1.
<mgrwt>
<rscale>  0 0.24770726E+02</rscale>
<asrwt>0</asrwt>
<pdfrwt beam="2">  1        2 0.32042892E-02 0.24770726E+02</pdfrwt>
<pdfrwt beam="1">  1       -2 0.11330760E-02 0.24770726E+02</pdfrwt>
<totfact> 0.25578944E+06</totfact>
</mgrwt>
</event>
<event>
 4    1  0.4118611E+000  0.2049615E+02  0.7546771E-02  0.1735638E+00
         -2   -1    0    0    0  501 -0.00000000000E+00  0.00000000000E+00  0.50466445375E+01  0.50466445375E+01  0.00000000000E+00 0.  1.
          2   -1    0    0  501    0  0.00000000000E+00 -0.00000000000E+00 -0.20810460738E+02  0.20810460738E+02  0.00000000000E+00 0. -1.
        -13    1    1    2    0    0 -0.93624377101E+01  0.38309816149E+01 -0.99515338725E+01  0.14190302549E+02  0.00000000000E+00 0.  1.
         13    1    1    2    0    0  0.93624377101E+01 -0.38309816149E+01 -0.58122823282E+01  0.11666802727E+02  0.00000000000E+00 0. -1.
<mgrwt>
<rscale>  0 0.20496146E+02</rscale>
<asrwt>0</asrwt>
<pdfrwt beam="2">  1        2 0.32016093E-02 0.20496146E+02</pdfrwt>
<pdfrwt beam="1">  1       -2 0.77640687E-03 0.20496146E+02</pdfrwt>
<totfact> 0.39572714E+06</totfact>
</mgrwt>
</event>
<event>
 4    1  0.4118611E+000  0.2472131E+02  0.7546771E-02  0.1665037E+00
         -2   -1    0    0    0  501 -0.00000000000E+00  0.00000000000E+00  0.10643436763E+03  0.10643436763E+03  0.00000000000E+00 0. -1.
          2   -1    0    0  501    0  0.00000000000E+00 -0.00000000000E+00 -0.14354934099E+01  0.14354934099E+01  0.00000000000E+00 0.  1.
        -13    1    1    2    0    0  0.11450577259E+02  0.44969991702E+01  0.57748474757E+02  0.59044263547E+02  0.00000000000E+00 0. -1.
         13    1    1    2    0    0 -0.11450577259E+02 -0.44969991702E+01  0.47250399466E+02  0.48825597496E+02  0.00000000000E+00 0.  1.
<mgrwt>
<rscale>  0 0.24721313E+02</rscale>
<asrwt>0</asrwt>
<pdfrwt beam="2">  1        2 0.22084522E-03 0.24721313E+02</pdfrwt>
<pdfrwt beam="1">  1       -2 0.16374512E-01 0.24721313E+02</pdfrwt>
<totfact> 0.18288402E+06</totfact>
</mgrwt>
</event>
<event>
 4    1  0.4118611E+000  0.2383646E+02  0.7546771E-02  0.1678299E+00
         -4   -1    0    0    0  501 -0.00000000000E+00  0.00000000000E+00  0.39092033768E+02  0.39092033768E+02  0.00000000000E+00 0.  1.
          4   -1    0    0  501    0  0.00000000000E+00 -0.00000000000E+00 -0.36335839602E+01  0.36335839602E+01  0.00000000000E+00 0. -1.
        -11    1    1    2    0    0  0.93828362837E+01  0.57181039482E+01  0.94548176219E+01  0.14495789242E+02  0.00000000000E+00 0. -1.
         11    1    1    2    0    0 -0.93828362837E+01 -0.57181039482E+01  0.26003632186E+02  0.28229828486E+02  0.00000000000E+00 0.  1.
<mgrwt>
<rscale>  0 0.23836458E+02</rscale>
<asrwt>0</asrwt>
<pdfrwt beam="2">  1        4 0.55901294E-03 0.23836458E+02</pdfrwt>
<pdfrwt beam="1">  1       -4 0.60141588E-02 0.23836458E+02</pdfrwt>
<totfact> 0.82186165E+05</totfact>
</mgrwt>
</event>
<event>
 4    1  0.4118611E+000  0.3116464E+02  0.7546771E-02  0.1585561E+00
         -2   -1    0    0    0  501 -0.00000000000E+00  0.00000000000E+00  0.15335488956E+01  0.15335488956E+01  0.00000000000E+00 0.  1.
          2   -1    0    0  501    0  0.00000000000E+00 -0.00000000000E+00 -0.15833128133E+03  0.15833128133E+03  0.00000000000E+00 0. -1.
        -13    1    1    2    0    0 -0.12806349019E+02 -0.88071416587E+01 -0.72685671450E+02  0.74328831240E+02  0.00000000000E+00 0.  1.
         13    1    1    2    0    0  0.12806349019E+02  0.88071416587E+01 -0.84112060984E+02  0.85535998985E+02  0.00000000000E+00 0. -1.
<mgrwt>
<rscale>  0 0.31164644E+02</rscale>
<asrwt>0</asrwt>
<pdfrwt beam="2">  1        2 0.24358651E-01 0.31164644E+02</pdfrwt>
<pdfrwt beam="1">  1       -2 0.23593068E-03 0.31164644E+02</pdfrwt>
<totfact> 0.21600651E+06</totfact>
</mgrwt>
</event>
<event>
 4    1  0.4118611E+000  0.2250824E+02  0.7546771E-02  0.1699608E+00
          2   -1    0    0  501    0  0.00000000000E+00  0.00000000000E+00  0.29259928031E+02  0.29259928031E+02  0.00000000000E+00 0.  1.
         -2   -1    0    0    0  501 -0.00000000000E+00 -0.00000000000E+00 -0.43286230660E+01  0.43286230660E+01  0.00000000000E+00 0. -1.
        -13    1    1    2    0    0 -0.10094433587E+02 -0.45839957949E+00  0.19859205958E+02  0.22282185281E+02  0.00000000000E+00 0. -1.
         13    1    1    2    0    0  0.10094433587E+02  0.45839957949E+00  0.50720990068E+01  0.11306365816E+02  0.00000000000E+00 0.  1.
<mgrwt>
<rscale>  0 0.22508238E+02</rscale>
<asrwt>0</asrwt>
<pdfrwt beam="1">  1        2 0.45015273E-02 0.22508238E+02</pdfrwt>
<pdfrwt beam="2">  1       -2 0.66594203E-03 0.22508238E+02</pdfrwt>
<totfact> 0.33085506E+06</totfact>
</mgrwt>
</event>
<event>
 4    1  0.4118611E+000  0.2780079E+02  0.7546771E-02  0.1623753E+00
          4   -1    0    0  501    0  0.00000000000E+00  0.00000000000E+00  0.33390585897E+02  0.33390585897E+02  0.00000000000E+00 0. -1.
         -4   -1    0    0    0  501 -0.00000000000E+00 -0.00000000000E+00 -0.57866885602E+01  0.57866885602E+01  0.00000000000E+00 0.  1.
        -13    1    1    2    0    0  0.11387702741E+02 -0.79461295887E+01  0.12910491158E+02  0.18960525601E+02  0.00000000000E+00 0. -1.
         13    1    1    2    0    0 -0.11387702741E+02  0.79461295887E+01  0.14693406180E+02  0.20216748856E+02  0.00000000000E+00 0.  1.
<mgrwt>
<rscale>  0 0.27800786E+02</rscale>
<asrwt>0</asrwt>
<pdfrwt beam="1">  1        4 0.51370131E-02 0.27800786E+02</pdfrwt>
<pdfrwt beam="2">  1       -4 0.89025980E-03 0.27800786E+02</pdfrwt>
<totfact> 0.59596137E+05</totfact>
</mgrwt>
</event>
<event>
 4    1  0.4118611E+000  0.3523227E+02  0.7546771E-02  0.1546548E+00
          1   -1    0    0  501    0  0.00000000000E+00  0.00000000000E+00  0.12771774208E+02  0.12771774208E+02  0.00000000000E+00 0.  1.
         -1   -1    0    0    0  501 -0.00000000000E+00 -0.00000000000E+00 -0.24297976708E+02  0.24297976708E+02  0.00000000000E+00 0. -1.
        -11    1    1    2    0    0  0.22253158583E+01  0.13199914172E+02 -0.17811910213E+02  0.22281245707E+02  0.00000000000E+00 0. -1.
         11    1    1    2    0    0 -0.22253158583E+01 -0.13199914172E+02  0.62857077132E+01  0.14788505208E+02  0.00000000000E+00 0.  1.
<mgrwt>
<rscale>  0 0.35232273E+02</rscale>
<asrwt>0</asrwt>
<pdfrwt beam="1">  1        1 0.19648883E-02 0.35232273E+02</pdfrwt>
<pdfrwt beam="2">  1       -1 0.37381503E-02 0.35232273E+02</pdfrwt>
<totfact> 0.10136574E+06</totfact>
</mgrwt>
</event>
<event>
 4    1  0.4118611E+000  0.3654059E+02  0.7546771E-02  0.1535330E+00
          1   -1    0    0  501    0  0.00000000000E+00  0.00000000000E+00  0.49065524255E+01  0.49065524255E+01  0.00000000000E+00 0.  1.
         -1   -1    0    0    0  501 -0.00000000000E+00 -0.00000000000E+00 -0.68032228399E+02  0.68032228399E+02  0.00000000000E+00 0. -1.
        -13    1    1    2    0    0 -0.14190590469E+02 -0.18056836685E+01 -0.88765029268E+01  0.16835250386E+02  0.00000000000E+00 0.  1.
         13    1    1    2    0    0  0.14190590469E+02  0.18056836685E+01 -0.54249173047E+02  0.56103530438E+02  0.00000000000E+00 0. -1.
<mgrwt>
<rscale>  0 0.36540591E+02</rscale>
<asrwt>0</asrwt>
<pdfrwt beam="1">  1        1 0.75485425E-03 0.36540591E+02</pdfrwt>
<pdfrwt beam="2">  1       -1 0.10466496E-01 0.36540591E+02</pdfrwt>
<totfact> 0.84387903E+05</totfact>
</mgrwt>
</event>
<event>
 4    1  0.4118611E+000  0.5841889E+02  0.7546771E-02  0.1404589E+00
         -1   -1    0    0    0  501 -0.00000000000E+00  0.00000000000E+00  0.16208071000E+02  0.16208071000E+02  0.00000000000E+00 0. -1.
          1   -1    0    0  501    0  0.00000000000E+00 -0.00000000000E+00 -0.52639925315E+02  0.52639925315E+02  0.00000000000E+00 0.  1.
        -11    1    1    2    0    0  0.13529164388E+02  0.19762657823E+02  0.14901139186E+01  0.23996278311E+02  0.00000000000E+00 0. -1.
         11    1    1    2    0    0 -0.13529164388E+02 -0.19762657823E+02 -0.37921968233E+02  0.44851718005E+02  0.00000000000E+00 0.  1.
<mgrwt>
<rscale>  0 0.58418889E+02</rscale>
<asrwt>0</asrwt>
<pdfrwt beam="2">  1        1 0.80984501E-02 0.58418889E+02</pdfrwt>
<pdfrwt beam="1">  1       -1 0.24935494E-02 0.58418889E+02</pdfrwt>
<totfact> 0.31368363E+05</totfact>
</mgrwt>
</event>
<event>
 4    1  0.4118611E+000  0.2229021E+02  0.7546771E-02  0.1703281E+00
          2   -1    0    0  501    0  0.00000000000E+00  0.00000000000E+00  0.68757792487E+01  0.68757792487E+01  0.00000000000E+00 0. -1.
         -2   -1    0    0    0  501 -0.00000000000E+00 -0.00000000000E+00 -0.18065354158E+02  0.18065354158E+02  0.00000000000E+00 0.  1.
        -13    1    1    2    0    0 -0.36415150069E+01  0.10479489060E+02 -0.67858356859E+01  0.13004917857E+02  0.00000000000E+00 0.  1.
         13    1    1    2    0    0  0.36415150069E+01 -0.10479489060E+02 -0.44037392235E+01  0.11936215550E+02  0.00000000000E+00 0. -1.
<mgrwt>
<rscale>  0 0.22290212E+02</rscale>
<asrwt>0</asrwt>
<pdfrwt beam="1">  1        2 0.10578122E-02 0.22290212E+02</pdfrwt>
<pdfrwt beam="2">  1       -2 0.27792853E-02 0.22290212E+02</pdfrwt>
<totfact> 0.29787373E+06</totfact>
</mgrwt>
</event>
<event>
 4    1  0.4118611E+000  0.7879989E+02  0.7546771E-02  0.1332492E+00
          4   -1    0    0  501    0  0.00000000000E+00  0.00000000000E+00  0.44853590937E+01  0.44853590937E+01  0.00000000000E+00 0.  1.
         -4   -1    0    0    0  501 -0.00000000000E+00 -0.00000000000E+00 -0.34609391911E+03  0.34609391911E+03  0.00000000000E+00 0. -1.
        -11    1    1    2    0    0 -0.21664002943E+02 -0.30686428287E+02 -0.11790635064E+03  0.12374527638E+03  0.00000000000E+00 0.  1.
         11    1    1    2    0    0  0.21664002943E+02  0.30686428287E+02 -0.22370220938E+03  0.22683400183E+03  0.00000000000E+00 0. -1.
<mgrwt>
<rscale>  0 0.78799886E+02</rscale>
<asrwt>0</asrwt>
<pdfrwt beam="1">  1        4 0.69005533E-03 0.78799886E+02</pdfrwt>
<pdfrwt beam="2">  1       -4 0.53245212E-01 0.78799886E+02</pdfrwt>
<totfact> 0.24016970E+04</totfact>
</mgrwt>
</event>
<event>
 4    1  0.4118611E+000  0.1011728E+03  0.7546771E-02  0.1277849E+00
          1   -1    0    0  501    0  0.00000000000E+00  0.00000000000E+00  0.39588591068E+02  0.39588591068E+02  0.00000000000E+00 0. -1.
         -1   -1    0    0    0  501 -0.00000000000E+00 -0.00000000000E+00 -0.64639482204E+02  0.64639482204E+02  0.00000000000E+00 0.  1.
        -11    1    1    2    0    0 -0.22163855301E+02  0.47996734375E+01 -0.59109458948E+02  0.63310358426E+02  0.00000000000E+00 0.  1.
         11    1    1    2    0    0  0.22163855301E+02 -0.47996734375E+01  0.34058567811E+02  0.40917714846E+02  0.00000000000E+00 0. -1.
<mgrwt>
<rscale>  0 0.10117284E+03</rscale>
<asrwt>0</asrwt>
<pdfrwt beam="1">  1        1 0.60905525E-02 0.10117284E+03</pdfrwt>
<pdfrwt beam="2">  1       -1 0.99445356E-02 0.10117284E+03</pdfrwt>
<totfact> 0.67265007E+04</totfact>
</mgrwt>
</event>
<event>
 4    1  0.4118611E+000  0.3214707E+02  0.7546771E-02  0.1575500E+00
          3   -1    0    0  501    0  0.00000000000E+00  0.00000000000E+00  0.85493885664E+01  0.85493885664E+01  0.00000000000E+00 0. -1.
         -3   -1    0    0    0  501 -0.00000000000E+00 -0.00000000000E+00 -0.30219534075E+02  0.30219534075E+02  0.00000000000E+00 0.  1.
        -13    1    1    2    0    0  0.93549432453E+01  0.39826751841E+01  0.41784560392E+01  0.10992550187E+02  0.00000000000E+00 0. -1.
         13    1    1    2    0    0 -0.93549432453E+01 -0.39826751841E+01 -0.25848601548E+02  0.27776372454E+02  0.00000000000E+00 0.  1.
<mgrwt>
<rscale>  0 0.32147071E+02</rscale>
<asrwt>0</asrwt>
<pdfrwt beam="1">  1        3 0.13152906E-02 0.32147071E+02</pdfrwt>
<pdfrwt beam="2">  1       -3 0.46491591E-02 0.32147071E+02</pdfrwt>
<totfact> 0.57446585E+05</totfact>
</mgrwt>
</event>
<event>
 4    1  0.4118611E+000  0.2888763E+02  0.7546771E-02  0.1610720E+00
         -2   -1    0    0    0  501 -0.00000000000E+00  0.00000000000E+00  0.36130804886E+01  0.36130804886E+01  0.00000000000E+00 0. -1.
          2   -1    0    0  501    0  0.00000000000E+00 -0.00000000000E+00 -0.57741251464E+02  0.57741251464E+02  0.00000000000E+00 0.  1.
        -13    1    1    2    0    0  0.84947389525E+01 -0.69718594940E+01 -0.71564371654E+01  0.13114191076E+02  0.00000000000E+00 0. -1.
         13    1    1    2    0    0 -0.84947389525E+01  0.69718594940E+01 -0.46971733810E+02  0.48240140876E+02  0.00000000000E+00 0.  1.
<mgrwt>
<rscale>  0 0.28887630E+02</rscale>
<asrwt>0</asrwt>
<pdfrwt beam="2">  1        2 0.88832700E-02 0.28887630E+02</pdfrwt>
<pdfrwt beam="1">  1       -2 0.55585850E-03 0.28887630E+02</pdfrwt>
<totfact> 0.20381255E+06</totfact>
</mgrwt>
</event>
<event>
 4    1  0.4118611E+000  0.2977025E+02  0.7546771E-02  0.1600642E+00
          2   -1    0    0  501    0  0.00000000000E+00  0.00000000000E+00  0.14208372628E+01  0.14208372628E+01  0.00000000000E+00 0.  1.
         -2   -1    0    0    0  501 -0.00000000000E+00 -0.00000000000E+00 -0.15594113313E+03  0.15594113313E+03  0.00000000000E+00 0. -1.
        -11    1    1    2    0    0 -0.14086218828E+02  0.47676779061E+01 -0.73856356276E+02  0.75338659902E+02  0.00000000000E+00 0. -1.
         11    1    1    2    0    0  0.14086218828E+02 -0.47676779061E+01 -0.80663939594E+02  0.82023310494E+02  0.00000000000E+00 0.  1.
<mgrwt>
<rscale>  0 0.29770252E+02</rscale>
<asrwt>0</asrwt>
<pdfrwt beam="1">  1        2 0.21859032E-03 0.29770252E+02</pdfrwt>
<pdfrwt beam="2">  1       -2 0.23990947E-01 0.29770252E+02</pdfrwt>
<totfact> 0.10682295E+06</totfact>
</mgrwt>
</event>
<event>
 4    1  0.4118611E+000  0.4414219E+02  0.7546771E-02  0.1479769E+00
          1   -1    0    0  501    0  0.00000000000E+00  0.00000000000E+00  0.14436225230E+03  0.14436225230E+03  0.00000000000E+00 0. -1.
         -1   -1    0    0    0  501 -0.00000000000E+00 -0.00000000000E+00 -0.33743812194E+01  0.33743812194E+01  0.00000000000E+00 0.  1.
        -11    1    1    2    0    0  0.18020618513E+02  0.84201587330E+01  0.10250681204E+03  0.10441881191E+03  0.00000000000E+00 0. -1.
         11    1    1    2    0    0 -0.18020618513E+02 -0.84201587330E+01  0.38481059039E+02  0.43317821615E+02  0.00000000000E+00 0.  1.
<mgrwt>
<rscale>  0 0.44142192E+02</rscale>
<asrwt>0</asrwt>
<pdfrwt beam="1">  1        1 0.22209572E-01 0.44142192E+02</pdfrwt>
<pdfrwt beam="2">  1       -1 0.51913568E-03 0.44142192E+02</pdfrwt>
<totfact> 0.72668462E+05</totfact>
</mgrwt>
</event>
<event>
 4    1  0.4118611E+000  0.6121673E+02  0.7546771E-02  0.1392795E+00
          2   -1    0    0  501    0  0.00000000000E+00  0.00000000000E+00  0.80446994802E+01  0.80446994802E+01  0.00000000000E+00 0.  1.
         -2   -1    0    0    0  501 -0.00000000000E+00 -0.00000000000E+00 -0.11645830478E+03  0.11645830478E+03  0.00000000000E+00 0. -1.
        -11    1    1    2    0    0 -0.24020629493E+02  0.10158710976E+02 -0.21622576600E+02  0.33878103087E+02  0.00000000000E+00 0.  1.
         11    1    1    2    0    0  0.24020629493E+02 -0.10158710976E+02 -0.86791028698E+02  0.90624901172E+02  0.00000000000E+00 0. -1.
<mgrwt>
<rscale>  0 0.61216732E+02</rscale>
<asrwt>0</asrwt>
<pdfrwt beam="1">  1        2 0.12376461E-02 0.61216732E+02</pdfrwt>
<pdfrwt beam="2">  1       -2 0.17916661E-01 0.61216732E+02</pdfrwt>
<totfact> 0.20592612E+05</totfact>
</mgrwt>
</event>
<event>
 4    1  0.4118611E+000  0.2938838E+02  0.7546771E-02  0.1604949E+00
         -3   -1    0    0    0  501 -0.00000000000E+00  0.00000000000E+00  0.98561019182E+01  0.98561019182E+01  0.00000000000E+00 0. -1.
          3   -1    0    0  501    0  0.00000000000E+00 -0.00000000000E+00 -0.21907159736E+02  0.21907159736E+02  0.00000000000E+00 0.  1.
        -13    1    1    2    0    0  0.91561990008E+00  0.12786061105E+02  0.17380811640E+01  0.12936098505E+02  0.00000000000E+00 0. -1.
         13    1    1    2    0    0 -0.91561990008E+00 -0.12786061105E+02 -0.13789138982E+02  0.18827163149E+02  0.00000000000E+00 0.  1.
<mgrwt>
<rscale>  0 0.29388379E+02</rscale>
<asrwt>0</asrwt>
<pdfrwt beam="2">  1        3 0.33703322E-02 0.29388379E+02</pdfrwt>
<pdfrwt beam="1">  1       -3 0.15163234E-02 0.29388379E+02</pdfrwt>
<totfact> 0.72451502E+05</totfact>
</mgrwt>
</event>
<event>
 4    1  0.4118611E+000  0.2267355E+02  0.7546771E-02  0.1696857E+00
         -4   -1    0    0    0  501 -0.00000000000E+00  0.00000000000E+00  0.89363841982E+01  0.89363841982E+01  0.00000000000E+00 0.  1.
          4   -1    0    0  501    0  0.00000000000E+00 -0.00000000000E+00 -0.14381937129E+02  0.14381937129E+02  0.00000000000E+00 0. -1.
        -13    1    1    2    0    0 -0.89425537960E+01  0.69532947766E+01 -0.31883518823E+01  0.11767886997E+02  0.00000000000E+00 0. -1.
         13    1    1    2    0    0  0.89425537960E+01 -0.69532947766E+01 -0.22572010481E+01  0.11550434330E+02  0.00000000000E+00 0.  1.
<mgrwt>
<rscale>  0 0.22673554E+02</rscale>
<asrwt>0</asrwt>
<pdfrwt beam="2">  1        4 0.22126057E-02 0.22673554E+02</pdfrwt>
<pdfrwt beam="1">  1       -4 0.13748283E-02 0.22673554E+02</pdfrwt>
<totfact> 0.98733564E+05</totfact>
</mgrwt>
</event>
<event>
 4    1  0.4118611E+000  0.6700904E+02  0.7546771E-02  0.1370570E+00
          4   -1    0    0  501    0  0.00000000000E+00  0.00000000000E+00  0.20060197304E+02  0.20060197304E+02  0.00000000000E+00 0.  1.
         -4   -1    0    0    0  501 -0.00000000000E+00 -0.00000000000E+00 -0.55959219389E+02  0.55959219389E+02  0.00000000000E+00 0. -1.
        -11    1    1    2    0    0 -0.48964469868E+01 -0.15046295433E+02  0.15554427531E+02  0.22187979069E+02  0.00000000000E+00 0.  1.
         11    1    1    2    0    0  0.48964469868E+01  0.15046295433E+02 -0.51453449616E+02  0.53831437624E+02  0.00000000000E+00 0. -1.
<mgrwt>
<rscale>  0 0.67009044E+02</rscale>
<asrwt>0</asrwt>
<pdfrwt beam="1">  1        4 0.30861843E-02 0.67009044E+02</pdfrwt>
<pdfrwt beam="2">  1       -4 0.86091103E-02 0.67009044E+02</pdfrwt>
<totfact> 0.63575372E+04</totfact>
</mgrwt>
</event>
<event>
 4    1  0.4118611E+000  0.2020425E+02  0.7546771E-02  0.1741296E+00
         -4   -1    0    0    0  501 -0.00000000000E+00  0.00000000000E+00  0.25340510189E+02  0.25340510189E+02  0.00000000000E+00 0.  1.
          4   -1    0    0  501    0  0.00000000000E+00 -0.00000000000E+00 -0.40272655281E+01  0.40272655281E+01  0.00000000000E+00 0. -1.
        -11    1    1    2    0    0  0.67953642317E+01  0.74666329265E+01  0.10141934558E+02  0.14310360543E+02  0.00000000000E+00 0. -1.
         11    1    1    2    0    0 -0.67953642317E+01 -0.74666329265E+01  0.11171310102E+02  0.15057415173E+02  0.00000000000E+00 0.  1.
<mgrwt>
<rscale>  0 0.20204253E+02</rscale>
<asrwt>0</asrwt>
<pdfrwt beam="2">  1        4 0.61957933E-03 0.20204253E+02</pdfrwt>
<pdfrwt beam="1">  1       -4 0.38985399E-02 0.20204253E+02</pdfrwt>
<totfact> 0.12233275E+06</totfact>
</mgrwt>
</event>
<event>
 4    1  0.4118611E+000  0.3601185E+02  0.7546771E-02  0.1539794E+00
         -2   -1    0    0    0  501 -0.00000000000E+00  0.00000000000E+00  0.18898547704E+02  0.18898547704E+02  0.00000000000E+00 0. -1.
          2   -1    0    0  501    0  0.00000000000E+00 -0.00000000000E+00 -0.17155460852E+02  0.17155460852E+02  0.00000000000E+00 0.  1.
        -13    1    1    2    0    0  0.57502934652E+01  0.11855459340E+02 -0.11414559662E+02  0.17433013606E+02  0.00000000000E+00 0.  1.
         13    1    1    2    0    0 -0.57502934652E+01 -0.11855459340E+02  0.13157646514E+02  0.18620994949E+02  0.00000000000E+00 0. -1.
<mgrwt>
<rscale>  0 0.36011848E+02</rscale>
<asrwt>0</asrwt>
<pdfrwt beam="2">  1        2 0.26393017E-02 0.36011848E+02</pdfrwt>
<pdfrwt beam="1">  1       -2 0.29074689E-02 0.36011848E+02</pdfrwt>
<totfact> 0.10096781E+06</totfact>
</mgrwt>
</event>
<event>
 4    1  0.4118611E+000  0.2232663E+02  0.7546771E-02  0.1702664E+00
          1   -1    0    0  501    0  0.00000000000E+00  0.00000000000E+00  0.86203927171E+02  0.86203927171E+02  0.00000000000E+00 0. -1.
         -1   -1    0    0    0  501 -0.00000000000E+00 -0.00000000000E+00 -0.14456365975E+01  0.14456365975E+01  0.00000000000E+00 0.  1.
        -13    1    1    2    0    0  0.67044646660E+01  0.85943495301E+01  0.32919008619E+02  0.34676704266E+02  0.00000000000E+00 0.  1.
         13    1    1    2    0    0 -0.67044646660E+01 -0.85943495301E+01  0.51839281954E+02  0.52972859502E+02  0.00000000000E+00 0. -1.
<mgrwt>
<rscale>  0 0.22326626E+02</rscale>
<asrwt>0</asrwt>
<pdfrwt beam="1">  1        1 0.13262139E-01 0.22326626E+02</pdfrwt>
<pdfrwt beam="2">  1       -1 0.22240570E-03 0.22326626E+02</pdfrwt>
<totfact> 0.34166058E+06</totfact>
</mgrwt>
</event>
<event>
 4    1  0.4118611E+000  0.2302028E+02  0.7546771E-02  0.1691182E+00
          2   -1    0    0  501    0  0.00000000000E+00  0.00000000000E+00  0.68595261117E+02  0.68595261117E+02  0.00000000000E+00 0.  1.
         -2   -1    0    0    0  501 -0.00000000000E+00 -0.00000000000E+00 -0.19313779478E+01  0.19313779478E+01  0.00000000000E+00 0. -1.
        -11    1    1    2    0    0 -0.11772474220E+01  0.11247673357E+02  0.26770165379E+02  0.29060932914E+02  0.00000000000E+00 0.  1.
         11    1    1    2    0    0  0.11772474220E+01 -0.11247673357E+02  0.39893717790E+02  0.41465706150E+02  0.00000000000E+00 0. -1.
<mgrwt>
<rscale>  0 0.23020285E+02</rscale>
<asrwt>0</asrwt>
<pdfrwt beam="1">  1        2 0.10553115E-01 0.23020285E+02</pdfrwt>
<pdfrwt beam="2">  1       -2 0.29713512E-03 0.23020285E+02</pdfrwt>
<totfact> 0.35605630E+06</totfact>
</mgrwt>
</event>
<event>
 4    1  0.4118611E+000  0.3563006E+02  0.7546771E-02  0.1543076E+00
          1   -1    0    0  501    0  0.00000000000E+00  0.00000000000E+00  0.72653285641E+01  0.72653285641E+01  0.00000000000E+00 0.  1.
         -1   -1    0    0    0  501 -0.00000000000E+00 -0.00000000000E+00 -0.43683532480E+02  0.43683532480E+02  0.00000000000E+00 0. -1.
        -13    1    1    2    0    0 -0.13808439554E+02  0.90398462656E+01 -0.86185393733E+01  0.18619104285E+02  0.00000000000E+00 0. -1.
         13    1    1    2    0    0  0.13808439554E+02 -0.90398462656E+01 -0.27799664543E+02  0.32329756759E+02  0.00000000000E+00 0.  1.
<mgrwt>
<rscale>  0 0.35630056E+02</rscale>
<asrwt>0</asrwt>
<pdfrwt beam="1">  1        1 0.11177429E-02 0.35630056E+02</pdfrwt>
<pdfrwt beam="2">  1       -1 0.67205434E-02 0.35630056E+02</pdfrwt>
<totfact> 0.94074550E+05</totfact>
</mgrwt>
</event>
<event>
 4    1  0.4118611E+000  0.2117092E+02  0.7546771E-02  0.1722998E+00
          1   -1    0    0  501    0  0.00000000000E+00  0.00000000000E+00  0.26714647803E+01  0.26714647803E+01  0.00000000000E+00 0.  1.
         -1   -1    0    0    0  501 -0.00000000000E+00 -0.00000000000E+00 -0.41944026608E+02  0.41944026608E+02  0.00000000000E+00 0. -1.
        -13    1    1    2    0    0 -0.10539930560E+02  0.47776235571E+00 -0.17831291758E+02  0.20718913071E+02  0.00000000000E+00 0.  1.
         13    1    1    2    0    0  0.10539930560E+02 -0.47776235571E+00 -0.21441270069E+02  0.23896578317E+02  0.00000000000E+00 0. -1.
<mgrwt>
<rscale>  0 0.21170922E+02</rscale>
<asrwt>0</asrwt>
<pdfrwt beam="1">  1        1 0.41099461E-03 0.21170922E+02</pdfrwt>
<pdfrwt beam="2">  1       -1 0.64529267E-02 0.21170922E+02</pdfrwt>
<totfact> 0.31321820E+06</totfact>
</mgrwt>
</event>
<event>
 4    1  0.4118611E+000  0.2301257E+02  0.7546771E-02  0.1691306E+00
         -1   -1    0    0    0  501 -0.00000000000E+00  0.00000000000E+00  0.22002153283E+01  0.22002153283E+01  0.00000000000E+00 0. -1.
          1   -1    0    0  501    0  0.00000000000E+00 -0.00000000000E+00 -0.60173462409E+02  0.60173462409E+02  0.00000000000E+00 0.  1.
        -11    1    1    2    0    0 -0.18511837650E+01  0.10864518166E+02 -0.20025858032E+02  0.22858250726E+02  0.00000000000E+00 0. -1.
         11    1    1    2    0    0  0.18511837650E+01 -0.10864518166E+02 -0.37947389048E+02  0.39515427012E+02  0.00000000000E+00 0.  1.
<mgrwt>
<rscale>  0 0.23012568E+02</rscale>
<asrwt>0</asrwt>
<pdfrwt beam="2">  1        1 0.92574552E-02 0.23012568E+02</pdfrwt>
<pdfrwt beam="1">  1       -1 0.33849469E-03 0.23012568E+02</pdfrwt>
<totfact> 0.30860316E+06</totfact>
</mgrwt>
</event>
<event>
 4    1  0.4118611E+000  0.5848737E+02  0.7546771E-02  0.1404291E+00
          3   -1    0    0  501    0  0.00000000000E+00  0.00000000000E+00  0.53433199597E+02  0.53433199597E+02  0.00000000000E+00 0.  1.
         -3   -1    0    0    0  501 -0.00000000000E+00 -0.00000000000E+00 -0.16004904032E+02  0.16004904032E+02  0.00000000000E+00 0. -1.
        -11    1    1    2    0    0  0.24541249770E+02  0.12829877242E+02  0.29871260929E+02  0.40732921817E+02  0.00000000000E+00 0.  1.
         11    1    1    2    0    0 -0.24541249770E+02 -0.12829877242E+02  0.75570346369E+01  0.28705181811E+02  0.00000000000E+00 0. -1.
<mgrwt>
<rscale>  0 0.58487374E+02</rscale>
<asrwt>0</asrwt>
<pdfrwt beam="1">  1        3 0.82204922E-02 0.58487374E+02</pdfrwt>
<pdfrwt beam="2">  1       -3 0.24622930E-02 0.58487374E+02</pdfrwt>
<totfact> 0.12053393E+05</totfact>
</mgrwt>
</event>
<event>
 4    1  0.4118611E+000  0.6025509E+02  0.7546771E-02  0.1396764E+00
         -2   -1    0    0    0  501 -0.00000000000E+00  0.00000000000E+00  0.10085753762E+03  0.10085753762E+03  0.00000000000E+00 0.  1.
          2   -1    0    0  501    0  0.00000000000E+00 -0.00000000000E+00 -0.89995168266E+01  0.89995168266E+01  0.00000000000E+00 0. -1.
        -11    1    1    2    0    0 -0.15408502036E+02  0.22660908426E+02  0.68754011133E+02  0.74013868651E+02  0.00000000000E+00 0. -1.
         11    1    1    2    0    0  0.15408502036E+02 -0.22660908426E+02  0.23104009663E+02  0.35843185799E+02  0.00000000000E+00 0.  1.
<mgrwt>
<rscale>  0 0.60255095E+02</rscale>
<asrwt>0</asrwt>
<pdfrwt beam="2">  1        2 0.13845411E-02 0.60255095E+02</pdfrwt>
<pdfrwt beam="1">  1       -2 0.15516543E-01 0.60255095E+02</pdfrwt>
<totfact> 0.22278253E+05</totfact>
</mgrwt>
</event>
<event>
 4    1  0.4118611E+000  0.2105131E+02  0.7546771E-02  0.1725195E+00
         -2   -1    0    0    0  501 -0.00000000000E+00  0.00000000000E+00  0.22858982064E+02  0.22858982064E+02  0.00000000000E+00 0. -1.
          2   -1    0    0  501    0  0.00000000000E+00 -0.00000000000E+00 -0.48466486982E+01  0.48466486982E+01  0.00000000000E+00 0.  1.
        -11    1    1    2    0    0  0.73490539796E+01 -0.75352119716E+01  0.89561928029E+01  0.13820325733E+02  0.00000000000E+00 0. -1.
         11    1    1    2    0    0 -0.73490539796E+01  0.75352119716E+01  0.90561405630E+01  0.13885305029E+02  0.00000000000E+00 0.  1.
<mgrwt>
<rscale>  0 0.21051314E+02</rscale>
<asrwt>0</asrwt>
<pdfrwt beam="2">  1        2 0.74563828E-03 0.21051314E+02</pdfrwt>
<pdfrwt beam="1">  1       -2 0.35167664E-02 0.21051314E+02</pdfrwt>
<totfact> 0.33088944E+06</totfact>
</mgrwt>
</event>
<event>
 4    1  0.4118611E+000  0.3574985E+02  0.7546771E-02  0.1542041E+00
          2   -1    0    0  501    0  0.00000000000E+00  0.00000000000E+00  0.59330019168E+02  0.59330019168E+02  0.00000000000E+00 0. -1.
         -2   -1    0    0    0  501 -0.00000000000E+00 -0.00000000000E+00 -0.53853505566E+01  0.53853505566E+01  0.00000000000E+00 0.  1.
        -13    1    1    2    0    0 -0.64714987341E+01 -0.11344657874E+02  0.49063891724E+02  0.50772502689E+02  0.00000000000E+00 0. -1.
         13    1    1    2    0    0  0.64714987341E+01  0.11344657874E+02  0.48807768867E+01  0.13942867035E+02  0.00000000000E+00 0.  1.
<mgrwt>
<rscale>  0 0.35749850E+02</rscale>
<asrwt>0</asrwt>
<pdfrwt beam="1">  1        2 0.91276948E-02 0.35749850E+02</pdfrwt>
<pdfrwt beam="2">  1       -2 0.82851551E-03 0.35749850E+02</pdfrwt>
<totfact> 0.12276312E+06</totfact>
</mgrwt>
</event>
<event>
 4    1  0.4118611E+000  0.2971269E+02  0.7546771E-02  0.1601286E+00
         -4   -1    0    0    0  501 -0.00000000000E+00  0.00000000000E+00  0.76347481660E+02  0.76347481660E+02  0.00000000000E+00 0. -1.
          4   -1    0    0  501    0  0.00000000000E+00 -0.00000000000E+00 -0.28908742917E+01  0.28908742917E+01  0.00000000000E+00 0.  1.
        -13    1    1    2    0    0  0.14537292848E+02  0.30356253543E+01  0.35651399698E+02  0.38620851946E+02  0.00000000000E+00 0.  1.
         13    1    1    2    0    0 -0.14537292848E+02 -0.30356253543E+01  0.37805207670E+02  0.40617504005E+02  0.00000000000E+00 0. -1.
<mgrwt>
<rscale>  0 0.29712689E+02</rscale>
<asrwt>0</asrwt>
<pdfrwt beam="2">  1        4 0.44474995E-03 0.29712689E+02</pdfrwt>
<pdfrwt beam="1">  1       -4 0.11745765E-01 0.29712689E+02</pdfrwt>
<totfact> 0.45067266E+05</totfact>
</mgrwt>
</event>
<event>
 4    1  0.4118611E+000  0.2212831E+02  0.7546771E-02  0.1706042E+00
          1   -1    0    0  501    0  0.00000000000E+00  0.00000000000E+00  0.11224917843E+02  0.11224917843E+02  0.00000000000E+00 0.  1.
         -1   -1    0    0    0  501 -0.00000000000E+00 -0.00000000000E+00 -0.10905691684E+02  0.10905691684E+02  0.00000000000E+00 0. -1.
        -13    1    1    2    0    0 -0.74700699867E+01 -0.81358097534E+01  0.80940926171E+00  0.11074677842E+02  0.00000000000E+00 0.  1.
         13    1    1    2    0    0  0.74700699867E+01  0.81358097534E+01 -0.49018310219E+00  0.11055931685E+02  0.00000000000E+00 0. -1.
<mgrwt>
<rscale>  0 0.22128307E+02</rscale>
<asrwt>0</asrwt>
<pdfrwt beam="1">  1        1 0.17269104E-02 0.22128307E+02</pdfrwt>
<pdfrwt beam="2">  1       -1 0.16777987E-02 0.22128307E+02</pdfrwt>
<totfact> 0.30792496E+06</totfact>
</mgrwt>
</event>
<event>
 4    1  0.4118611E+000  0.3767230E+02  0.7546771E-02  0.1526075E+00
         -2   -1    0    0    0  501 -0.00000000000E+00  0.00000000000E+00  0.23433607668E+02  0.23433607668E+02  0.00000000000E+00 0.  1.
          2   -1    0    0  501    0  0.00000000000E+00 -0.00000000000E+00 -0.15140669594E+02  0.15140669594E+02  0.00000000000E+00 0. -1.
        -13    1    1    2    0    0 -0.11493064383E+02  0.13186977854E+02  0.11300422168E+02  0.20825139976E+02  0.00000000000E+00 0. -1.
         13    1    1    2    0    0  0.11493064383E+02 -0.13186977854E+02 -0.30074840935E+01  0.17749137286E+02  0.00000000000E+00 0.  1.
<mgrwt>
<rscale>  0 0.37672298E+02</rscale>
<asrwt>0</asrwt>
<pdfrwt beam="2">  1        2 0.23293338E-02 0.37672298E+02</pdfrwt>
<pdfrwt beam="1">  1       -2 0.36051704E-02 0.37672298E+02</pdfrwt>
<totfact> 0.88692005E+05</totfact>
</mgrwt>
</event>
<event>
 4    1  0.4118611E+000  0.2380070E+02  0.7546771E-02  0.1678850E+00
         -2   -1    0    0    0  501 -0.00000000000E+00  0.00000000000E+00  0.16852835576E+01  0.16852835576E+01  0.00000000000E+00 0.  1.
          2   -1    0    0  501    0  0.00000000000E+00 -0.00000000000E+00 -0.84032370116E+02  0.84032370116E+02  0.00000000000E+00 0. -1.
        -13    1    1    2    0    0  0.98007661434E+00 -0.10693446846E+02 -0.22701091998E+02  0.25112744445E+02  0.00000000000E+00 0.  1.
         13    1    1    2    0    0 -0.98007661434E+00  0.10693446846E+02 -0.59645994560E+02  0.60604909229E+02  0.00000000000E+00 0. -1.
<mgrwt>
<rscale>  0 0.23800703E+02</rscale>
<asrwt>0</asrwt>
<pdfrwt beam="2">  1        2 0.12928056E-01 0.23800703E+02</pdfrwt>
<pdfrwt beam="1">  1       -2 0.25927440E-03 0.23800703E+02</pdfrwt>
<totfact> 0.34369852E+06</totfact>
</mgrwt>
</event>
<event>
 4    1  0.4118611E+000  0.6022330E+02  0.7546771E-02  0.1396897E+00
          3   -1    0    0  501    0  0.00000000000E+00  0.00000000000E+00  0.19106259457E+03  0.19106259457E+03  0.00000000000E+00 0. -1.
         -3   -1    0    0    0  501 -0.00000000000E+00 -0.00000000000E+00 -0.47456249352E+01  0.47456249352E+01  0.00000000000E+00 0.  1.
        -13    1    1    2    0    0 -0.19389494711E+02  0.18055277532E+02  0.46632544683E+02  0.53633383033E+02  0.00000000000E+00 0. -1.
         13    1    1    2    0    0  0.19389494711E+02 -0.18055277532E+02  0.13968442495E+03  0.14217483647E+03  0.00000000000E+00 0.  1.
<mgrwt>
<rscale>  0 0.60223298E+02</rscale>
<asrwt>0</asrwt>
<pdfrwt beam="1">  1        3 0.29394239E-01 0.60223298E+02</pdfrwt>
<pdfrwt beam="2">  1       -3 0.73009629E-03 0.60223298E+02</pdfrwt>
<totfact> 0.85419310E+04</totfact>
</mgrwt>
</event>
<event>
 4    1  0.4118611E+000  0.2889287E+02  0.7546771E-02  0.1610659E+00
         -3   -1    0    0    0  501 -0.00000000000E+00  0.00000000000E+00  0.53903399658E+01  0.53903399658E+01  0.00000000000E+00 0.  1.
          3   -1    0    0  501    0  0.00000000000E+00 -0.00000000000E+00 -0.38717301145E+02  0.38717301145E+02  0.00000000000E+00 0. -1.
        -13    1    1    2    0    0 -0.43078208322E+01 -0.10906398072E+02 -0.29544213508E+02  0.31786276772E+02  0.00000000000E+00 0. -1.
         13    1    1    2    0    0  0.43078208322E+01  0.10906398072E+02 -0.37827476711E+01  0.12321364339E+02  0.00000000000E+00 0.  1.
<mgrwt>
<rscale>  0 0.28892865E+02</rscale>
<asrwt>0</asrwt>
<pdfrwt beam="2">  1        3 0.59565079E-02 0.28892865E+02</pdfrwt>
<pdfrwt beam="1">  1       -3 0.82928307E-03 0.28892865E+02</pdfrwt>
<totfact> 0.72544790E+05</totfact>
</mgrwt>
</event>
<event>
 4    1  0.4118611E+000  0.2483131E+02  0.7546771E-02  0.1663437E+00
          2   -1    0    0  501    0  0.00000000000E+00  0.00000000000E+00  0.72567966896E+01  0.72567966896E+01  0.00000000000E+00 0.  1.
         -2   -1    0    0    0  501 -0.00000000000E+00 -0.00000000000E+00 -0.21241946431E+02  0.21241946431E+02  0.00000000000E+00 0. -1.
        -11    1    1    2    0    0 -0.12015868437E+02 -0.23213261162E+01 -0.93942014588E+01  0.15427918534E+02  0.00000000000E+00 0. -1.
         11    1    1    2    0    0  0.12015868437E+02  0.23213261162E+01 -0.45909482825E+01  0.13070824587E+02  0.00000000000E+00 0.  1.
<mgrwt>
<rscale>  0 0.24831310E+02</rscale>
<asrwt>0</asrwt>
<pdfrwt beam="1">  1        2 0.11164303E-02 0.24831310E+02</pdfrwt>
<pdfrwt beam="2">  1       -2 0.32679918E-02 0.24831310E+02</pdfrwt>
<totfact> 0.23120706E+06</totfact>
</mgrwt>
</event>
<event>
 4    1  0.4118611E+000  0.3115499E+02  0.7546771E-02  0.1585662E+00
          4   -1    0    0  501    0  0.00000000000E+00  0.00000000000E+00  0.44869555994E+02  0.44869555994E+02  0.00000000000E+00 0. -1.
         -4   -1    0    0    0  501 -0.00000000000E+00 -0.00000000000E+00 -0.54080850461E+01  0.54080850461E+01  0.00000000000E+00 0.  1.
        -13    1    1    2    0    0  0.12454088028E+02  0.77683755455E+01  0.11313240710E+02  0.18532171556E+02  0.00000000000E+00 0.  1.
         13    1    1    2    0    0 -0.12454088028E+02 -0.77683755455E+01  0.28148230238E+02  0.31745469484E+02  0.00000000000E+00 0. -1.
<mgrwt>
<rscale>  0 0.31154992E+02</rscale>
<asrwt>0</asrwt>
<pdfrwt beam="1">  1        4 0.69030083E-02 0.31154992E+02</pdfrwt>
<pdfrwt beam="2">  1       -4 0.83201312E-03 0.31154992E+02</pdfrwt>
<totfact> 0.44395585E+05</totfact>
</mgrwt>
</event>
<event>
 4    1  0.4118611E+000  0.2636824E+02  0.7546771E-02  0.1642093E+00
         -2   -1    0    0    0  501 -0.00000000000E+00  0.00000000000E+00  0.52952898049E+01  0.52952898049E+01  0.00000000000E+00 0. -1.
          2   -1    0    0  501    0  0.00000000000E+00 -0.00000000000E+00 -0.32825580781E+02  0.32825580781E+02  0.00000000000E+00 0.  1.
        -13    1    1    2    0    0 -0.74828254945E+01 -0.76485167021E+01 -0.24900738314E+02  0.27102384650E+02  0.00000000000E+00 0.  1.
         13    1    1    2    0    0  0.74828254945E+01  0.76485167021E+01 -0.26295526621E+01  0.11018485936E+02  0.00000000000E+00 0. -1.
<mgrwt>
<rscale>  0 0.26368236E+02</rscale>
<asrwt>0</asrwt>
<pdfrwt beam="2">  1        2 0.50500894E-02 0.26368236E+02</pdfrwt>
<pdfrwt beam="1">  1       -2 0.81465996E-03 0.26368236E+02</pdfrwt>
<totfact> 0.23228549E+06</totfact>
</mgrwt>
</event>
<event>
 4    1  0.4118611E+000  0.4485108E+02  0.7546771E-02  0.1475273E+00
          4   -1    0    0  501    0  0.00000000000E+00  0.00000000000E+00  0.52591188849E+02  0.52591188849E+02  0.00000000000E+00 0.  1.
         -4   -1    0    0    0  501 -0.00000000000E+00 -0.00000000000E+00 -0.95625305390E+01  0.95625305390E+01  0.00000000000E+00 0. -1.
        -11    1    1    2    0    0  0.40243165689E+01  0.10796574839E+02 -0.51468525460E+01  0.12619478722E+02  0.00000000000E+00 0. -1.
         11    1    1    2    0    0 -0.40243165689E+01 -0.10796574839E+02  0.48175510856E+02  0.49534240666E+02  0.00000000000E+00 0.  1.
<mgrwt>
<rscale>  0 0.44851080E+02</rscale>
<asrwt>0</asrwt>
<pdfrwt beam="1">  1        4 0.80909520E-02 0.44851080E+02</pdfrwt>
<pdfrwt beam="2">  1       -4 0.14711586E-02 0.44851080E+02</pdfrwt>
<totfact> 0.18149715E+05</totfact>
</mgrwt>
</event>
<event>
 4    1  0.4118611E+000  0.2134294E+02  0.7546771E-02  0.1719870E+00
          2   -1    0    0  501    0  0.00000000000E+00  0.00000000000E+00  0.55288247821E+02  0.55288247821E+02  0.00000000000E+00 0. -1.
         -2   -1    0    0    0  501 -0.00000000000E+00 -0.00000000000E+00 -0.20597557568E+01  0.20597557568E+01  0.00000000000E+00 0.  1.
        -11    1    1    2    0    0 -0.86886948700E+01 -0.59240199024E+01  0.31490097045E+02  0.33199603044E+02  0.00000000000E+00 0. -1.
         11    1    1    2    0    0  0.86886948700E+01  0.59240199024E+01  0.21738395019E+02  0.24148400534E+02  0.00000000000E+00 0.  1.
<mgrwt>
<rscale>  0 0.21342941E+02</rscale>
<asrwt>0</asrwt>
<pdfrwt beam="1">  1        2 0.85058831E-02 0.21342941E+02</pdfrwt>
<pdfrwt beam="2">  1       -2 0.31688554E-03 0.21342941E+02</pdfrwt>
<totfact> 0.40686634E+06</totfact>
</mgrwt>
</event>
<event>
 4    1  0.4118611E+000  0.2635445E+02  0.7546771E-02  0.1642276E+00
         -2   -1    0    0    0  501 -0.00000000000E+00  0.00000000000E+00  0.76751801968E+02  0.76751801968E+02  0.00000000000E+00 0. -1.
          2   -1    0    0  501    0  0.00000000000E+00 -0.00000000000E+00 -0.22623480455E+01  0.22623480455E+01  0.00000000000E+00 0.  1.
        -11    1    1    2    0    0  0.50050510554E+01  0.96787535705E+01  0.15028080353E+02  0.18562650830E+02  0.00000000000E+00 0.  1.
         11    1    1    2    0    0 -0.50050510554E+01 -0.96787535705E+01  0.59461373569E+02  0.60451499183E+02  0.00000000000E+00 0. -1.
<mgrwt>
<rscale>  0 0.26354452E+02</rscale>
<asrwt>0</asrwt>
<pdfrwt beam="2">  1        2 0.34805360E-03 0.26354452E+02</pdfrwt>
<pdfrwt beam="1">  1       -2 0.11807968E-01 0.26354452E+02</pdfrwt>
<totfact> 0.17024923E+06</totfact>
</mgrwt>
</event>
<event>
 4    1  0.4118611E+000  0.2809191E+02  0.7546771E-02  0.1620191E+00
          2   -1    0    0  501    0  0.00000000000E+00  0.00000000000E+00  0.41466888513E+01  0.41466888513E+01  0.00000000000E+00 0. -1.
         -2   -1    0    0    0  501 -0.00000000000E+00 -0.00000000000E+00 -0.47577437467E+02  0.47577437467E+02  0.00000000000E+00 0.  1.
        -13    1    1    2    0    0  0.12437736219E+02  0.51066652851E+01 -0.14233133041E+02  0.19579514517E+02  0.00000000000E+00 0. -1.
         13    1    1    2    0    0 -0.12437736219E+02 -0.51066652851E+01 -0.29197615575E+02  0.32144611801E+02  0.00000000000E+00 0.  1.
<mgrwt>
<rscale>  0 0.28091908E+02</rscale>
<asrwt>0</asrwt>
<pdfrwt beam="1">  1        2 0.63795214E-03 0.28091908E+02</pdfrwt>
<pdfrwt beam="2">  1       -2 0.73196056E-02 0.28091908E+02</pdfrwt>
<totfact> 0.15947161E+06</totfact>
</mgrwt>
</event>
<event>
 4    1  0.4118611E+000  0.2666034E+02  0.7546771E-02  0.1638239E+00
          2   -1    0    0  501    0  0.00000000000E+00  0.00000000000E+00  0.19241380288E+02  0.19241380288E+02  0.00000000000E+00 0.  1.
         -2   -1    0    0    0  501 -0.00000000000E+00 -0.00000000000E+00 -0.92349602348E+01  0.92349602348E+01  0.00000000000E+00 0. -1.
        -13    1    1    2    0    0 -0.10266168545E+01  0.10778422044E+02 -0.33023857759E+01  0.11319632315E+02  0.00000000000E+00 0. -1.
         13    1    1    2    0    0  0.10266168545E+01 -0.10778422044E+02  0.13308805830E+02  0.17156708208E+02  0.00000000000E+00 0.  1.
<mgrwt>
<rscale>  0 0.26660336E+02</rscale>
<asrwt>0</asrwt>
<pdfrwt beam="1">  1        2 0.29602123E-02 0.26660336E+02</pdfrwt>
<pdfrwt beam="2">  1       -2 0.14207631E-02 0.26660336E+02</pdfrwt>
<totfact> 0.21334037E+06</totfact>
</mgrwt>
</event>
<event>
 4    1  0.4118611E+000  0.7212531E+02  0.7546771E-02  0.1353011E+00
          2   -1    0    0  501    0  0.00000000000E+00  0.00000000000E+00  0.26130761644E+02  0.26130761644E+02  0.00000000000E+00 0.  1.
         -2   -1    0    0    0  501 -0.00000000000E+00 -0.00000000000E+00 -0.49769506387E+02  0.49769506387E+02  0.00000000000E+00 0. -1.
        -11    1    1    2    0    0 -0.13566636189E+02  0.31776866361E+02 -0.94955967243E+00  0.34564787238E+02  0.00000000000E+00 0.  1.
         11    1    1    2    0    0  0.13566636189E+02 -0.31776866361E+02 -0.22689185071E+02  0.41335480793E+02  0.00000000000E+00 0. -1.
<mgrwt>
<rscale>  0 0.72125311E+02</rscale>
<asrwt>0</asrwt>
<pdfrwt beam="1">  1        2 0.40201172E-02 0.72125311E+02</pdfrwt>
<pdfrwt beam="2">  1       -2 0.76568470E-02 0.72125311E+02</pdfrwt>
<totfact> 0.16889059E+05</totfact>
</mgrwt>
</event>
<event>
 4    1  0.4118611E+000  0.7406747E+02  0.7546771E-02  0.1346783E+00
          2   -1    0    0  501    0  0.00000000000E+00  0.00000000000E+00  0.11417688984E+03  0.11417688984E+03  0.00000000000E+00 0. -1.
         -2   -1    0    0    0  501 -0.00000000000E+00 -0.00000000000E+00 -0.12012039799E+02  0.12012039799E+02  0.00000000000E+00 0.  1.
        -13    1    1    2    0    0 -0.36967236680E+02 -0.15390045588E+01  0.53804204977E+02  0.65298067322E+02  0.00000000000E+00 0. -1.
         13    1    1    2    0    0  0.36967236680E+02  0.15390045588E+01  0.48360645068E+02  0.60890862321E+02  0.00000000000E+00 0.  1.
<mgrwt>
<rscale>  0 0.74067465E+02</rscale>
<asrwt>0</asrwt>
<pdfrwt beam="1">  1        2 0.17565675E-01 0.74067465E+02</pdfrwt>
<pdfrwt beam="2">  1       -2 0.18480062E-02 0.74067465E+02</pdfrwt>
<totfact> 0.22398284E+05</totfact>
</mgrwt>
</event>
<event>
 4    1  0.4118611E+000  0.2903377E+02  0.7546771E-02  0.1609021E+00
         -3   -1    0    0    0  501 -0.00000000000E+00  0.00000000000E+00  0.73318168388E+01  0.73318168388E+01  0.00000000000E+00 0.  1.
          3   -1    0    0  501    0  0.00000000000E+00 -0.00000000000E+00 -0.28743207318E+02  0.28743207318E+02  0.00000000000E+00 0. -1.
        -11    1    1    2    0    0 -0.12320831429E+02  0.69562027881E+00 -0.20205336448E+02  0.23675776558E+02  0.00000000000E+00 0. -1.
         11    1    1    2    0    0  0.12320831429E+02 -0.69562027881E+00 -0.12060540315E+01  0.12399247598E+02  0.00000000000E+00 0.  1.
<mgrwt>
<rscale>  0 0.29033769E+02</rscale>
<asrwt>0</asrwt>
<pdfrwt beam="2">  1        3 0.44220321E-02 0.29033769E+02</pdfrwt>
<pdfrwt beam="1">  1       -3 0.11279718E-02 0.29033769E+02</pdfrwt>
<totfact> 0.73511328E+05</totfact>
</mgrwt>
</event>
<event>
 4    1  0.4118611E+000  0.2452687E+02  0.7546771E-02  0.1667892E+00
         -1   -1    0    0    0  501 -0.00000000000E+00  0.00000000000E+00  0.72317314012E+02  0.72317314012E+02  0.00000000000E+00 0. -1.
          1   -1    0    0  501    0  0.00000000000E+00 -0.00000000000E+00 -0.20796112234E+01  0.20796112234E+01  0.00000000000E+00 0.  1.
        -11    1    1    2    0    0 -0.79880380603E+01  0.63716132653E+01  0.55688369906E+02  0.56618024961E+02  0.00000000000E+00 0.  1.
         11    1    1    2    0    0  0.79880380603E+01 -0.63716132653E+01  0.14549332883E+02  0.17778900275E+02  0.00000000000E+00 0. -1.
<mgrwt>
<rscale>  0 0.24526875E+02</rscale>
<asrwt>0</asrwt>
<pdfrwt beam="2">  1        1 0.31994024E-03 0.24526875E+02</pdfrwt>
<pdfrwt beam="1">  1       -1 0.11125739E-01 0.24526875E+02</pdfrwt>
<totfact> 0.21215849E+06</totfact>
</mgrwt>
</event>
<event>
 4    1  0.4118611E+000  0.9464419E+02  0.7546771E-02  0.1291979E+00
         -2   -1    0    0    0  501 -0.00000000000E+00  0.00000000000E+00  0.11947492244E+03  0.11947492244E+03  0.00000000000E+00 0.  1.
          2   -1    0    0  501    0  0.00000000000E+00 -0.00000000000E+00 -0.18743521114E+02  0.18743521114E+02  0.00000000000E+00 0. -1.
        -11    1    1    2    0    0  0.41817621727E+02  0.16982936265E+02  0.71134586887E+02  0.84245255431E+02  0.00000000000E+00 0. -1.
         11    1    1    2    0    0 -0.41817621727E+02 -0.16982936265E+02  0.29596814436E+02  0.53973188120E+02  0.00000000000E+00 0.  1.
<mgrwt>
<rscale>  0 0.94644191E+02</rscale>
<asrwt>0</asrwt>
<pdfrwt beam="2">  1        2 0.28836187E-02 0.94644191E+02</pdfrwt>
<pdfrwt beam="1">  1       -2 0.18380757E-01 0.94644191E+02</pdfrwt>
<totfact> 0.68767365E+04</totfact>
</mgrwt>
</event>
<event>
 4    1  0.4118611E+000  0.2537658E+02  0.7546771E-02  0.1655651E+00
         -2   -1    0    0    0  501 -0.00000000000E+00  0.00000000000E+00  0.31721992485E+01  0.31721992485E+01  0.00000000000E+00 0.  1.
          2   -1    0    0  501    0  0.00000000000E+00 -0.00000000000E+00 -0.50751133849E+02  0.50751133849E+02  0.00000000000E+00 0. -1.
        -13    1    1    2    0    0  0.83140088806E+01 -0.93897067639E+01 -0.19700230207E+02  0.23353552342E+02  0.00000000000E+00 0.  1.
         13    1    1    2    0    0 -0.83140088806E+01  0.93897067639E+01 -0.27878704393E+02  0.30569780755E+02  0.00000000000E+00 0. -1.
<mgrwt>
<rscale>  0 0.25376580E+02</rscale>
<asrwt>0</asrwt>
<pdfrwt beam="2">  1        2 0.78078665E-02 0.25376580E+02</pdfrwt>
<pdfrwt beam="1">  1       -2 0.48803067E-03 0.25376580E+02</pdfrwt>
<totfact> 0.27015779E+06</totfact>
</mgrwt>
</event>
<event>
 4    1  0.4118611E+000  0.2322459E+02  0.7546771E-02  0.1687895E+00
         -2   -1    0    0    0  501 -0.00000000000E+00  0.00000000000E+00  0.33235367342E+02  0.33235367342E+02  0.00000000000E+00 0.  1.
          2   -1    0    0  501    0  0.00000000000E+00 -0.00000000000E+00 -0.40572857332E+01  0.40572857332E+01  0.00000000000E+00 0. -1.
        -13    1    1    2    0    0  0.20481585683E+01 -0.11233621733E+02  0.11199380558E+02  0.15994228198E+02  0.00000000000E+00 0. -1.
         13    1    1    2    0    0 -0.20481585683E+01  0.11233621733E+02  0.17978701051E+02  0.21298424878E+02  0.00000000000E+00 0.  1.
<mgrwt>
<rscale>  0 0.23224589E+02</rscale>
<asrwt>0</asrwt>
<pdfrwt beam="2">  1        2 0.62419783E-03 0.23224589E+02</pdfrwt>
<pdfrwt beam="1">  1       -2 0.51131333E-02 0.23224589E+02</pdfrwt>
<totfact> 0.25651725E+06</totfact>
</mgrwt>
</event>
<event>
 4    1  0.4118611E+000  0.3139533E+02  0.7546771E-02  0.1583158E+00
          2   -1    0    0  501    0  0.00000000000E+00  0.00000000000E+00  0.10010840828E+03  0.10010840828E+03  0.00000000000E+00 0.  1.
         -2   -1    0    0    0  501 -0.00000000000E+00 -0.00000000000E+00 -0.24614989679E+01  0.24614989679E+01  0.00000000000E+00 0. -1.
        -13    1    1    2    0    0  0.41276248053E+00  0.15534235444E+02  0.56080336134E+02  0.58193530092E+02  0.00000000000E+00 0. -1.
         13    1    1    2    0    0 -0.41276248053E+00 -0.15534235444E+02  0.41566573177E+02  0.44376377154E+02  0.00000000000E+00 0.  1.
<mgrwt>
<rscale>  0 0.31395334E+02</rscale>
<asrwt>0</asrwt>
<pdfrwt beam="1">  1        2 0.15401290E-01 0.31395334E+02</pdfrwt>
<pdfrwt beam="2">  1       -2 0.37869223E-03 0.31395334E+02</pdfrwt>
<totfact> 0.18767130E+06</totfact>
</mgrwt>
</event>
<event>
 4    1  0.4118611E+000  0.3830153E+02  0.7546771E-02  0.1521096E+00
         -2   -1    0    0    0  501 -0.00000000000E+00  0.00000000000E+00  0.43595272027E+02  0.43595272027E+02  0.00000000000E+00 0.  1.
          2   -1    0    0  501    0  0.00000000000E+00 -0.00000000000E+00 -0.84126486604E+01  0.84126486604E+01  0.00000000000E+00 0. -1.
        -11    1    1    2    0    0  0.11961545167E+02 -0.88808016488E+01  0.12515972726E+01  0.14950374458E+02  0.00000000000E+00 0. -1.
         11    1    1    2    0    0 -0.11961545167E+02  0.88808016488E+01  0.33931026094E+02  0.37057546229E+02  0.00000000000E+00 0.  1.
<mgrwt>
<rscale>  0 0.38301525E+02</rscale>
<asrwt>0</asrwt>
<pdfrwt beam="2">  1        2 0.12942537E-02 0.38301525E+02</pdfrwt>
<pdfrwt beam="1">  1       -2 0.67069648E-02 0.38301525E+02</pdfrwt>
<totfact> 0.78560843E+05</totfact>
</mgrwt>
</event>
<event>
 4    1  0.4118611E+000  0.2044317E+02  0.7546771E-02  0.1736656E+00
          2   -1    0    0  501    0  0.00000000000E+00  0.00000000000E+00  0.15686369661E+02  0.15686369661E+02  0.00000000000E+00 0.  1.
         -2   -1    0    0    0  501 -0.00000000000E+00 -0.00000000000E+00 -0.66606080971E+01  0.66606080971E+01  0.00000000000E+00 0. -1.
        -13    1    1    2    0    0  0.79954321781E+01  0.62345306615E+01  0.59316116620E+01  0.11746502679E+02  0.00000000000E+00 0.  1.
         13    1    1    2    0    0 -0.79954321781E+01 -0.62345306615E+01  0.30941499020E+01  0.10600475079E+02  0.00000000000E+00 0. -1.
<mgrwt>
<rscale>  0 0.20443166E+02</rscale>
<asrwt>0</asrwt>
<pdfrwt beam="1">  1        2 0.24132876E-02 0.20443166E+02</pdfrwt>
<pdfrwt beam="2">  1       -2 0.10247089E-02 0.20443166E+02</pdfrwt>
<totfact> 0.38853296E+06</totfact>
</mgrwt>
</event>
<event>
 4    1  0.4118611E+000  0.4289802E+02  0.7546771E-02  0.1487907E+00
          2   -1    0    0  501    0  0.00000000000E+00  0.00000000000E+00  0.11627275230E+02  0.11627275230E+02  0.00000000000E+00 0.  1.
         -2   -1    0    0    0  501 -0.00000000000E+00 -0.00000000000E+00 -0.39567316866E+02  0.39567316866E+02  0.00000000000E+00 0. -1.
        -11    1    1    2    0    0  0.15667095084E+02 -0.14454856326E+02 -0.11130991719E+02  0.24047863032E+02  0.00000000000E+00 0. -1.
         11    1    1    2    0    0 -0.15667095084E+02  0.14454856326E+02 -0.16809049916E+02  0.27146729064E+02  0.00000000000E+00 0.  1.
<mgrwt>
<rscale>  0 0.42898022E+02</rscale>
<asrwt>0</asrwt>
<pdfrwt beam="1">  1        2 0.17888116E-02 0.42898022E+02</pdfrwt>
<pdfrwt beam="2">  1       -2 0.60872796E-02 0.42898022E+02</pdfrwt>
<totfact> 0.61003280E+05</totfact>
</mgrwt>
</event>
<event>
 4    1  0.4118611E+000  0.2981155E+02  0.7546771E-02  0.1600181E+00
         -4   -1    0    0    0  501 -0.00000000000E+00  0.00000000000E+00  0.14087015219E+03  0.14087015219E+03  0.00000000000E+00 0.  1.
          4   -1    0    0  501    0  0.00000000000E+00 -0.00000000000E+00 -0.15772121263E+01  0.15772121263E+01  0.00000000000E+00 0. -1.
        -11    1    1    2    0    0  0.79110017636E+01  0.12433803246E+02  0.58963342282E+02  0.60777126826E+02  0.00000000000E+00 0. -1.
         11    1    1    2    0    0 -0.79110017636E+01 -0.12433803246E+02  0.80329597782E+02  0.81670237491E+02  0.00000000000E+00 0.  1.
<mgrwt>
<rscale>  0 0.29811549E+02</rscale>
<asrwt>0</asrwt>
<pdfrwt beam="2">  1        4 0.24264813E-03 0.29811549E+02</pdfrwt>
<pdfrwt beam="1">  1       -4 0.21672321E-01 0.29811549E+02</pdfrwt>
<totfact> 0.37740390E+05</totfact>
</mgrwt>
</event>
<event>
 4    1  0.4118611E+000  0.2742859E+02  0.7546771E-02  0.1628385E+00
         -2   -1    0    0    0  501 -0.00000000000E+00  0.00000000000E+00  0.48600786690E+02  0.48600786690E+02  0.00000000000E+00 0.  1.
          2   -1    0    0  501    0  0.00000000000E+00 -0.00000000000E+00 -0.38699355309E+01  0.38699355309E+01  0.00000000000E+00 0. -1.
        -11    1    1    2    0    0 -0.18167384118E+01 -0.10498571774E+02  0.58469314895E+01  0.12153483270E+02  0.00000000000E+00 0. -1.
         11    1    1    2    0    0  0.18167384118E+01  0.10498571774E+02  0.38883919670E+02  0.40317238951E+02  0.00000000000E+00 0.  1.
<mgrwt>
<rscale>  0 0.27428592E+02</rscale>
<asrwt>0</asrwt>
<pdfrwt beam="2">  1        2 0.59537473E-03 0.27428592E+02</pdfrwt>
<pdfrwt beam="1">  1       -2 0.74770437E-02 0.27428592E+02</pdfrwt>
<totfact> 0.16790849E+06</totfact>
</mgrwt>
</event>
<event>
 4    1  0.4118611E+000  0.3185492E+02  0.7546771E-02  0.1578446E+00
         -2   -1    0    0    0  501 -0.00000000000E+00  0.00000000000E+00  0.13208130291E+02  0.13208130291E+02  0.00000000000E+00 0.  1.
          2   -1    0    0  501    0  0.00000000000E+00 -0.00000000000E+00 -0.19206648058E+02  0.19206648058E+02  0.00000000000E+00 0. -1.
        -13    1    1    2    0    0 -0.17115765657E+01 -0.15652353420E+02 -0.54410684153E+01  0.16659258309E+02  0.00000000000E+00 0. -1.
         13    1    1    2    0    0  0.17115765657E+01  0.15652353420E+02 -0.55744935140E+00  0.15755520039E+02  0.00000000000E+00 0.  1.
<mgrwt>
<rscale>  0 0.31854915E+02</rscale>
<asrwt>0</asrwt>
<pdfrwt beam="2">  1        2 0.29548689E-02 0.31854915E+02</pdfrwt>
<pdfrwt beam="1">  1       -2 0.20320201E-02 0.31854915E+02</pdfrwt>
<totfact> 0.13874174E+06</totfact>
</mgrwt>
</event>
<event>
 4    1  0.4118611E+000  0.2466158E+02  0.7546771E-02  0.1665911E+00
          2   -1    0    0  501    0  0.00000000000E+00  0.00000000000E+00  0.13082009778E+03  0.13082009778E+03  0.00000000000E+00 0. -1.
         -2   -1    0    0    0  501 -0.00000000000E+00 -0.00000000000E+00 -0.11622711055E+01  0.11622711055E+01  0.00000000000E+00 0.  1.
        -11    1    1    2    0    0 -0.51567611527E+01  0.11200096524E+02  0.64194062043E+02  0.65367514480E+02  0.00000000000E+00 0. -1.
         11    1    1    2    0    0  0.51567611527E+01 -0.11200096524E+02  0.65463764629E+02  0.66614854403E+02  0.00000000000E+00 0.  1.
<mgrwt>
<rscale>  0 0.24661583E+02</rscale>
<asrwt>0</asrwt>
<pdfrwt beam="1">  1        2 0.20126157E-01 0.24661583E+02</pdfrwt>
<pdfrwt beam="2">  1       -2 0.17881104E-03 0.24661583E+02</pdfrwt>
<totfact> 0.35229869E+06</totfact>
</mgrwt>
</event>
<event>
 4    1  0.4118611E+000  0.6905506E+02  0.7546771E-02  0.1363336E+00
         -2   -1    0    0    0  501 -0.00000000000E+00  0.00000000000E+00  0.23222496972E+03  0.23222496972E+03  0.00000000000E+00 0. -1.
          2   -1    0    0  501    0  0.00000000000E+00 -0.00000000000E+00 -0.51336012707E+01  0.51336012707E+01  0.00000000000E+00 0.  1.
        -13    1    1    2    0    0  0.19891460840E+02  0.24312157856E+02  0.16280730950E+03  0.16581004572E+03  0.00000000000E+00 0.  1.
         13    1    1    2    0    0 -0.19891460840E+02 -0.24312157856E+02  0.64284058954E+02  0.71548525278E+02  0.00000000000E+00 0. -1.
<mgrwt>
<rscale>  0 0.69055062E+02</rscale>
<asrwt>0</asrwt>
<pdfrwt beam="2">  1        2 0.78978499E-03 0.69055062E+02</pdfrwt>
<pdfrwt beam="1">  1       -2 0.35726910E-01 0.69055062E+02</pdfrwt>
<totfact> 0.11811778E+05</totfact>
</mgrwt>
</event>
<event>
 4    1  0.4118611E+000  0.3262881E+02  0.7546771E-02  0.1570725E+00
         -2   -1    0    0    0  501 -0.00000000000E+00  0.00000000000E+00  0.50826269644E+02  0.50826269644E+02  0.00000000000E+00 0. -1.
          2   -1    0    0  501    0  0.00000000000E+00 -0.00000000000E+00 -0.52366580373E+01  0.52366580373E+01  0.00000000000E+00 0.  1.
        -11    1    1    2    0    0 -0.94326019265E+01  0.12899016944E+02  0.17147906048E+02  0.23439481629E+02  0.00000000000E+00 0.  1.
         11    1    1    2    0    0  0.94326019265E+01 -0.12899016944E+02  0.28441705558E+02  0.32623446052E+02  0.00000000000E+00 0. -1.
<mgrwt>
<rscale>  0 0.32628809E+02</rscale>
<asrwt>0</asrwt>
<pdfrwt beam="2">  1        2 0.80563973E-03 0.32628809E+02</pdfrwt>
<pdfrwt beam="1">  1       -2 0.78194258E-02 0.32628809E+02</pdfrwt>
<totfact> 0.11175576E+06</totfact>
</mgrwt>
</event>
<event>
 4    1  0.4118611E+000  0.2269833E+02  0.7546771E-02  0.1696447E+00
         -1   -1    0    0    0  501 -0.00000000000E+00  0.00000000000E+00  0.72734801044E+01  0.72734801044E+01  0.00000000000E+00 0. -1.
          1   -1    0    0  501    0  0.00000000000E+00 -0.00000000000E+00 -0.17708659674E+02  0.17708659674E+02  0.00000000000E+00 0.  1.
        -13    1    1    2    0    0  0.81461688330E+01  0.70900886209E+01 -0.13773779962E+01  0.10886991938E+02  0.00000000000E+00 0.  1.
         13    1    1    2    0    0 -0.81461688330E+01 -0.70900886209E+01 -0.90578015731E+01  0.14095147840E+02  0.00000000000E+00 0. -1.
<mgrwt>
<rscale>  0 0.22698333E+02</rscale>
<asrwt>0</asrwt>
<pdfrwt beam="2">  1        1 0.27244092E-02 0.22698333E+02</pdfrwt>
<pdfrwt beam="1">  1       -1 0.11189969E-02 0.22698333E+02</pdfrwt>
<totfact> 0.29624099E+06</totfact>
</mgrwt>
</event>
<event>
 4    1  0.4118611E+000  0.2218865E+02  0.7546771E-02  0.1705010E+00
         -4   -1    0    0    0  501 -0.00000000000E+00  0.00000000000E+00  0.12732062848E+02  0.12732062848E+02  0.00000000000E+00 0.  1.
          4   -1    0    0  501    0  0.00000000000E+00 -0.00000000000E+00 -0.96672477769E+01  0.96672477769E+01  0.00000000000E+00 0. -1.
        -13    1    1    2    0    0  0.44009251543E+01 -0.92071442842E+01 -0.28614279611E+01  0.10598463005E+02  0.00000000000E+00 0. -1.
         13    1    1    2    0    0 -0.44009251543E+01  0.92071442842E+01  0.59262430325E+01  0.11800847621E+02  0.00000000000E+00 0.  1.
<mgrwt>
<rscale>  0 0.22188646E+02</rscale>
<asrwt>0</asrwt>
<pdfrwt beam="2">  1        4 0.14872689E-02 0.22188646E+02</pdfrwt>
<pdfrwt beam="1">  1       -4 0.19587789E-02 0.22188646E+02</pdfrwt>
<totfact> 0.10375746E+06</totfact>
</mgrwt>
</event>
<event>
 4    1  0.4118611E+000  0.6203375E+02  0.7546771E-02  0.1389490E+00
          4   -1    0    0  501    0  0.00000000000E+00  0.00000000000E+00  0.11798188597E+03  0.11798188597E+03  0.00000000000E+00 0.  1.
         -4   -1    0    0    0  501 -0.00000000000E+00 -0.00000000000E+00 -0.81541896186E+01  0.81541896186E+01  0.00000000000E+00 0. -1.
        -11    1    1    2    0    0 -0.30013996528E+02 -0.76243309594E+01  0.51347508213E+02  0.59962796882E+02  0.00000000000E+00 0. -1.
         11    1    1    2    0    0  0.30013996528E+02  0.76243309594E+01  0.58480188139E+02  0.66173278708E+02  0.00000000000E+00 0.  1.
<mgrwt>
<rscale>  0 0.62033754E+02</rscale>
<asrwt>0</asrwt>
<pdfrwt beam="1">  1        4 0.18151058E-01 0.62033754E+02</pdfrwt>
<pdfrwt beam="2">  1       -4 0.12544908E-02 0.62033754E+02</pdfrwt>
<totfact> 0.68433903E+04</totfact>
</mgrwt>
</event>
<event>
 4    1  0.4118611E+000  0.2481821E+02  0.7546771E-02  0.1663627E+00
         -1   -1    0    0    0  501 -0.00000000000E+00  0.00000000000E+00  0.18979778560E+01  0.18979778560E+01  0.00000000000E+00 0. -1.
          1   -1    0    0  501    0  0.00000000000E+00 -0.00000000000E+00 -0.81131580996E+02  0.81131580996E+02  0.00000000000E+00 0.  1.
        -11    1    1    2    0    0 -0.22838678106E+01  0.10233524316E+02 -0.61819710163E+02  0.62702612679E+02  0.00000000000E+00 0. -1.
         11    1    1    2    0    0  0.22838678106E+01 -0.10233524316E+02 -0.17413892977E+02  0.20326946173E+02  0.00000000000E+00 0.  1.
<mgrwt>
<rscale>  0 0.24818215E+02</rscale>
<asrwt>0</asrwt>
<pdfrwt beam="2">  1        1 0.12481783E-01 0.24818215E+02</pdfrwt>
<pdfrwt beam="1">  1       -1 0.29199656E-03 0.24818215E+02</pdfrwt>
<totfact> 0.26695838E+06</totfact>
</mgrwt>
</event>
<event>
 4    1  0.4118611E+000  0.8087712E+02  0.7546771E-02  0.1326581E+00
          2   -1    0    0  501    0  0.00000000000E+00  0.00000000000E+00  0.86935940587E+02  0.86935940587E+02  0.00000000000E+00 0. -1.
         -2   -1    0    0    0  501 -0.00000000000E+00 -0.00000000000E+00 -0.18810137765E+02  0.18810137765E+02  0.00000000000E+00 0.  1.
        -13    1    1    2    0    0  0.28280587029E+02  0.24901639240E+02  0.53252027055E+02  0.65235432282E+02  0.00000000000E+00 0. -1.
         13    1    1    2    0    0 -0.28280587029E+02 -0.24901639240E+02  0.14873775767E+02  0.40510646071E+02  0.00000000000E+00 0.  1.
<mgrwt>
<rscale>  0 0.80877117E+02</rscale>
<asrwt>0</asrwt>
<pdfrwt beam="1">  1        2 0.13374760E-01 0.80877117E+02</pdfrwt>
<pdfrwt beam="2">  1       -2 0.28938674E-02 0.80877117E+02</pdfrwt>
<totfact> 0.16344188E+05</totfact>
</mgrwt>
</event>
<event>
 4    1  0.4118611E+000  0.3185898E+02  0.7546771E-02  0.1578405E+00
          2   -1    0    0  501    0  0.00000000000E+00  0.00000000000E+00  0.55220925717E+02  0.55220925717E+02  0.00000000000E+00 0. -1.
         -2   -1    0    0    0  501 -0.00000000000E+00 -0.00000000000E+00 -0.45951531933E+01  0.45951531933E+01  0.00000000000E+00 0.  1.
        -11    1    1    2    0    0 -0.13851945139E+02  0.39513948403E+01  0.38082649786E+02  0.40715821495E+02  0.00000000000E+00 0. -1.
         11    1    1    2    0    0  0.13851945139E+02 -0.39513948403E+01  0.12543122737E+02  0.19100257415E+02  0.00000000000E+00 0.  1.
<mgrwt>
<rscale>  0 0.31858978E+02</rscale>
<asrwt>0</asrwt>
<pdfrwt beam="1">  1        2 0.84955266E-02 0.31858978E+02</pdfrwt>
<pdfrwt beam="2">  1       -2 0.70694669E-03 0.31858978E+02</pdfrwt>
<totfact> 0.16013497E+06</totfact>
</mgrwt>
</event>
<event>
 4    1  0.4118611E+000  0.2817614E+02  0.7546771E-02  0.1619171E+00
          1   -1    0    0  501    0  0.00000000000E+00  0.00000000000E+00  0.62511018828E+02  0.62511018828E+02  0.00000000000E+00 0. -1.
         -1   -1    0    0    0  501 -0.00000000000E+00 -0.00000000000E+00 -0.31750187402E+01  0.31750187402E+01  0.00000000000E+00 0.  1.
        -13    1    1    2    0    0  0.13671064572E+02 -0.30718757257E+01  0.33077732437E+02  0.35923123615E+02  0.00000000000E+00 0.  1.
         13    1    1    2    0    0 -0.13671064572E+02  0.30718757257E+01  0.26258267651E+02  0.29762913954E+02  0.00000000000E+00 0. -1.
<mgrwt>
<rscale>  0 0.28176136E+02</rscale>
<asrwt>0</asrwt>
<pdfrwt beam="1">  1        1 0.96170789E-02 0.28176136E+02</pdfrwt>
<pdfrwt beam="2">  1       -1 0.48846447E-03 0.28176136E+02</pdfrwt>
<totfact> 0.19396554E+06</totfact>
</mgrwt>
</event>
<event>
 4    1  0.4118611E+000  0.5970580E+02  0.7546771E-02  0.1399071E+00
         -2   -1    0    0    0  501 -0.00000000000E+00  0.00000000000E+00  0.68130722402E+01  0.68130722402E+01  0.00000000000E+00 0. -1.
          2   -1    0    0  501    0  0.00000000000E+00 -0.00000000000E+00 -0.13080672891E+03  0.13080672891E+03  0.00000000000E+00 0.  1.
        -11    1    1    2    0    0  0.24958644983E+02 -0.32507545381E+01 -0.24995542083E+02  0.35472221364E+02  0.00000000000E+00 0. -1.
         11    1    1    2    0    0 -0.24958644983E+02  0.32507545381E+01 -0.98998114585E+02  0.10214757978E+03  0.00000000000E+00 0.  1.
<mgrwt>
<rscale>  0 0.59705802E+02</rscale>
<asrwt>0</asrwt>
<pdfrwt beam="2">  1        2 0.20124111E-01 0.59705802E+02</pdfrwt>
<pdfrwt beam="1">  1       -2 0.10481650E-02 0.59705802E+02</pdfrwt>
<totfact> 0.41014381E+05</totfact>
</mgrwt>
</event>
<event>
 4    1  0.4118611E+000  0.3341600E+02  0.7546771E-02  0.1563134E+00
         -2   -1    0    0    0  501 -0.00000000000E+00  0.00000000000E+00  0.32328745209E+02  0.32328745209E+02  0.00000000000E+00 0.  1.
          2   -1    0    0  501    0  0.00000000000E+00 -0.00000000000E+00 -0.86349566141E+01  0.86349566141E+01  0.00000000000E+00 0. -1.
        -13    1    1    2    0    0  0.45001286781E+01  0.14547657034E+02  0.20275309063E+02  0.25356924910E+02  0.00000000000E+00 0.  1.
         13    1    1    2    0    0 -0.45001286781E+01 -0.14547657034E+02  0.34184795320E+01  0.15606776913E+02  0.00000000000E+00 0. -1.
<mgrwt>
<rscale>  0 0.33416003E+02</rscale>
<asrwt>0</asrwt>
<pdfrwt beam="2">  1        2 0.13284549E-02 0.33416003E+02</pdfrwt>
<pdfrwt beam="1">  1       -2 0.49736531E-02 0.33416003E+02</pdfrwt>
<totfact> 0.11249557E+06</totfact>
</mgrwt>
</event>
<event>
 4    1  0.4118611E+000  0.3112166E+02  0.7546771E-02  0.1586011E+00
         -2   -1    0    0    0  501 -0.00000000000E+00  0.00000000000E+00  0.53966256851E+01  0.53966256851E+01  0.00000000000E+00 0. -1.
          2   -1    0    0  501    0  0.00000000000E+00 -0.00000000000E+00 -0.44868665120E+02  0.44868665120E+02  0.00000000000E+00 0.  1.
        -11    1    1    2    0    0  0.43663342903E+01  0.14893038215E+02 -0.21557551628E+02  0.26563047540E+02  0.00000000000E+00 0.  1.
         11    1    1    2    0    0 -0.43663342903E+01 -0.14893038215E+02 -0.17914487807E+02  0.23702243265E+02  0.00000000000E+00 0. -1.
<mgrwt>
<rscale>  0 0.31121657E+02</rscale>
<asrwt>0</asrwt>
<pdfrwt beam="2">  1        2 0.69028714E-02 0.31121657E+02</pdfrwt>
<pdfrwt beam="1">  1       -2 0.83025012E-03 0.31121657E+02</pdfrwt>
<totfact> 0.16368472E+06</totfact>
</mgrwt>
</event>
<event>
 4    1  0.4118611E+000  0.4585214E+02  0.7546771E-02  0.1469091E+00
         -2   -1    0    0    0  501 -0.00000000000E+00  0.00000000000E+00  0.28296282776E+02  0.28296282776E+02  0.00000000000E+00 0.  1.
          2   -1    0    0  501    0  0.00000000000E+00 -0.00000000000E+00 -0.18575042492E+02  0.18575042492E+02  0.00000000000E+00 0. -1.
        -11    1    1    2    0    0  0.20672432872E+02  0.97639111746E+01  0.31134740392E+01  0.23073299782E+02  0.00000000000E+00 0. -1.
         11    1    1    2    0    0 -0.20672432872E+02 -0.97639111746E+01  0.66077662446E+01  0.23798025485E+02  0.00000000000E+00 0.  1.
<mgrwt>
<rscale>  0 0.45852139E+02</rscale>
<asrwt>0</asrwt>
<pdfrwt beam="2">  1        2 0.28576988E-02 0.45852139E+02</pdfrwt>
<pdfrwt beam="1">  1       -2 0.43532743E-02 0.45852139E+02</pdfrwt>
<totfact> 0.54771118E+05</totfact>
</mgrwt>
</event>
<event>
 4    1  0.4118611E+000  0.9505561E+02  0.7546771E-02  0.1291051E+00
         -2   -1    0    0    0  501 -0.00000000000E+00  0.00000000000E+00  0.41066831110E+02  0.41066831110E+02  0.00000000000E+00 0.  1.
          2   -1    0    0  501    0  0.00000000000E+00 -0.00000000000E+00 -0.55005274202E+02  0.55005274202E+02  0.00000000000E+00 0. -1.
        -11    1    1    2    0    0  0.46427680248E+02 -0.93893915073E+01 -0.30285348377E+01  0.47464325438E+02  0.00000000000E+00 0.  1.
         11    1    1    2    0    0 -0.46427680248E+02  0.93893915073E+01 -0.10909908255E+02  0.48607779873E+02  0.00000000000E+00 0. -1.
<mgrwt>
<rscale>  0 0.95055611E+02</rscale>
<asrwt>0</asrwt>
<pdfrwt beam="2">  1        2 0.84623499E-02 0.95055611E+02</pdfrwt>
<pdfrwt beam="1">  1       -2 0.63179740E-02 0.95055611E+02</pdfrwt>
<totfact> 0.92044594E+04</totfact>
</mgrwt>
</event>
<event>
 4    1  0.4118611E+000  0.9126947E+02  0.7546771E-02  0.1299806E+00
          1   -1    0    0  501    0  0.00000000000E+00  0.00000000000E+00  0.86014266178E+02  0.86014266178E+02  0.00000000000E+00 0. -1.
         -1   -1    0    0    0  501 -0.00000000000E+00 -0.00000000000E+00 -0.24211437451E+02  0.24211437451E+02  0.00000000000E+00 0.  1.
        -13    1    1    2    0    0  0.42377352015E+02 -0.15504680986E+02  0.39118529536E+02  0.59720134371E+02  0.00000000000E+00 0.  1.
         13    1    1    2    0    0 -0.42377352015E+02  0.15504680986E+02  0.22684299191E+02  0.50505569258E+02  0.00000000000E+00 0. -1.
<mgrwt>
<rscale>  0 0.91269470E+02</rscale>
<asrwt>0</asrwt>
<pdfrwt beam="1">  1        1 0.13232964E-01 0.91269470E+02</pdfrwt>
<pdfrwt beam="2">  1       -1 0.37248366E-02 0.91269470E+02</pdfrwt>
<totfact> 0.10162959E+05</totfact>
</mgrwt>
</event>
<event>
 4    1  0.4118611E+000  0.2334539E+02  0.7546771E-02  0.1685972E+00
          2   -1    0    0  501    0  0.00000000000E+00  0.00000000000E+00  0.87943596468E+02  0.87943596468E+02  0.00000000000E+00 0. -1.
         -2   -1    0    0    0  501 -0.00000000000E+00 -0.00000000000E+00 -0.15493085288E+01  0.15493085288E+01  0.00000000000E+00 0.  1.
        -13    1    1    2    0    0  0.10957518476E+02  0.32571797333E+01  0.52248693922E+02  0.53484600097E+02  0.00000000000E+00 0. -1.
         13    1    1    2    0    0 -0.10957518476E+02 -0.32571797333E+01  0.34145594016E+02  0.36008304899E+02  0.00000000000E+00 0.  1.
<mgrwt>
<rscale>  0 0.23345386E+02</rscale>
<asrwt>0</asrwt>
<pdfrwt beam="1">  1        2 0.13529780E-01 0.23345386E+02</pdfrwt>
<pdfrwt beam="2">  1       -2 0.23835523E-03 0.23345386E+02</pdfrwt>
<totfact> 0.36266431E+06</totfact>
</mgrwt>
</event>
<event>
 4    1  0.4118611E+000  0.2823396E+02  0.7546771E-02  0.1618472E+00
          4   -1    0    0  501    0  0.00000000000E+00  0.00000000000E+00  0.19927704165E+02  0.19927704165E+02  0.00000000000E+00 0. -1.
         -4   -1    0    0    0  501 -0.00000000000E+00 -0.00000000000E+00 -0.10000602999E+02  0.10000602999E+02  0.00000000000E+00 0.  1.
        -13    1    1    2    0    0  0.17142639168E+01 -0.10763794903E+02  0.14473633371E+02  0.18118610445E+02  0.00000000000E+00 0. -1.
         13    1    1    2    0    0 -0.17142639168E+01  0.10763794903E+02 -0.45465322056E+01  0.11809696719E+02  0.00000000000E+00 0.  1.
<mgrwt>
<rscale>  0 0.28233955E+02</rscale>
<asrwt>0</asrwt>
<pdfrwt beam="1">  1        4 0.30658006E-02 0.28233955E+02</pdfrwt>
<pdfrwt beam="2">  1       -4 0.15385543E-02 0.28233955E+02</pdfrwt>
<totfact> 0.59640863E+05</totfact>
</mgrwt>
</event>
<event>
 4    1  0.4118611E+000  0.1172734E+03  0.7546771E-02  0.1247664E+00
         -4   -1    0    0    0  501 -0.00000000000E+00  0.00000000000E+00  0.15317408953E+03  0.15317408953E+03  0.00000000000E+00 0.  1.
          4   -1    0    0  501    0  0.00000000000E+00 -0.00000000000E+00 -0.22446748313E+02  0.22446748313E+02  0.00000000000E+00 0. -1.
        -11    1    1    2    0    0 -0.22357135387E+02 -0.52569717239E+02  0.85165326091E+02  0.10255022887E+03  0.00000000000E+00 0.  1.
         11    1    1    2    0    0  0.22357135387E+02  0.52569717239E+02  0.45562015126E+02  0.73070608973E+02  0.00000000000E+00 0. -1.
<mgrwt>
<rscale>  0 0.11727336E+03</rscale>
<asrwt>0</asrwt>
<pdfrwt beam="2">  1        4 0.34533460E-02 0.11727336E+03</pdfrwt>
<pdfrwt beam="1">  1       -4 0.23565244E-01 0.11727336E+03</pdfrwt>
<totfact> 0.11283199E+04</totfact>
</mgrwt>
</event>
<event>
 4    1  0.4118611E+000  0.3143935E+02  0.7546771E-02  0.1582703E+00
          2   -1    0    0  501    0  0.00000000000E+00  0.00000000000E+00  0.61845907510E+02  0.61845907510E+02  0.00000000000E+00 0. -1.
         -2   -1    0    0    0  501 -0.00000000000E+00 -0.00000000000E+00 -0.39955454982E+01  0.39955454982E+01  0.00000000000E+00 0.  1.
        -13    1    1    2    0    0 -0.28763808977E+01 -0.15332703406E+02  0.32976746243E+02  0.36480558570E+02  0.00000000000E+00 0. -1.
         13    1    1    2    0    0  0.28763808977E+01  0.15332703406E+02  0.24873615768E+02  0.29360894438E+02  0.00000000000E+00 0.  1.
<mgrwt>
<rscale>  0 0.31439347E+02</rscale>
<asrwt>0</asrwt>
<pdfrwt beam="1">  1        2 0.95147543E-02 0.31439347E+02</pdfrwt>
<pdfrwt beam="2">  1       -2 0.61469935E-03 0.31439347E+02</pdfrwt>
<totfact> 0.16873520E+06</totfact>
</mgrwt>
</event>
