<event>
 5    1  0.1239369E+001  0.1164249E+03  0.7546771E-02  0.1249114E+00
         -1   -1    0    0    0  501 -0.00000000000E+00  0.00000000000E+00  0.66927678709E+02  0.66927678709E+02  0.00000000000E+00 0.  1.
          1   -1    0    0  501    0  0.00000000000E+00 -0.00000000000E+00 -0.50632068198E+02  0.50632068198E+02  0.00000000000E+00 0. -1.
         23    2    1    2    0    0  0.00000000000E+00  0.00000000000E+00  0.16295610511E+02  0.11755974691E+03  0.11642485633E+03 0.  0.
        -13    1    3    3    0    0  0.77769115158E+01  0.57032126258E+02 -0.62846700197E+00  0.57563345533E+02  0.00000000000E+00 0. -1.
         13    1    3    3    0    0 -0.77769115158E+01 -0.57032126258E+02  0.16924077513E+02  0.59996401374E+02  0.00000000000E+00 0.  1.
<mgrwt>
<rscale>  0 0.11642486E+03</rscale>
<asrwt>0</asrwt>
<pdfrwt beam="2">  1        1 0.77895490E-02 0.11642486E+03</pdfrwt>
<pdfrwt beam="1">  1       -1 0.10296566E-01 0.11642486E+03</pdfrwt>
<totfact> 0.46771727E+04</totfact>
</mgrwt>
</event>
<event>
 5    1  0.1239369E+001  0.9229254E+02  0.7546771E-02  0.1297393E+00
          2   -1    0    0  501    0  0.00000000000E+00  0.00000000000E+00  0.34326985398E+03  0.34326985398E+03  0.00000000000E+00 0. -1.
         -2   -1    0    0    0  501 -0.00000000000E+00 -0.00000000000E+00 -0.62035106770E+01  0.62035106770E+01  0.00000000000E+00 0.  1.
         23    2    1    2    0    0  0.00000000000E+00  0.00000000000E+00  0.33706634331E+03  0.34947336466E+03  0.92292539336E+02 0.  0.
        -11    1    3    3    0    0  0.10677963164E+01  0.46102899364E+02  0.16212871118E+03  0.16855959334E+03  0.00000000000E+00 0.  1.
         11    1    3    3    0    0 -0.10677963164E+01 -0.46102899364E+02  0.17493763213E+03  0.18091377132E+03  0.00000000000E+00 0. -1.
<mgrwt>
<rscale>  0 0.92292539E+02</rscale>
<asrwt>0</asrwt>
<pdfrwt beam="1">  1        2 0.52810732E-01 0.92292539E+02</pdfrwt>
<pdfrwt beam="2">  1       -2 0.95438653E-03 0.92292539E+02</pdfrwt>
<totfact> 0.18282555E+05</totfact>
</mgrwt>
</event>
<event>
 5    1  0.1239369E+001  0.8758070E+02  0.7546771E-02  0.1308818E+00
          3   -1    0    0  501    0  0.00000000000E+00  0.00000000000E+00  0.15987288211E+03  0.15987288211E+03  0.00000000000E+00 0. -1.
         -3   -1    0    0    0  501 -0.00000000000E+00 -0.00000000000E+00 -0.11994497739E+02  0.11994497739E+02  0.00000000000E+00 0.  1.
         23    2    1    2    0    0  0.00000000000E+00  0.00000000000E+00  0.14787838437E+03  0.17186737985E+03  0.87580703879E+02 0.  0.
        -13    1    3    3    0    0 -0.22717032824E+02  0.18180835512E+02  0.13816024802E+03  0.14119086547E+03  0.00000000000E+00 0. -1.
         13    1    3    3    0    0  0.22717032824E+02 -0.18180835512E+02  0.97181363559E+01  0.30676514380E+02  0.00000000000E+00 0.  1.
<mgrwt>
<rscale>  0 0.87580704E+02</rscale>
<asrwt>0</asrwt>
<pdfrwt beam="1">  1        3 0.24595827E-01 0.87580704E+02</pdfrwt>
<pdfrwt beam="2">  1       -3 0.18453075E-02 0.87580704E+02</pdfrwt>
<totfact> 0.33456366E+04</totfact>
</mgrwt>
</event>
<event>
 5    1  0.1239369E+001  0.8824248E+02  0.7546771E-02  0.1307164E+00
         -2   -1    0    0    0  501 -0.00000000000E+00  0.00000000000E+00  0.10018371503E+02  0.10018371503E+02  0.00000000000E+00 0.  1.
          2   -1    0    0  501    0  0.00000000000E+00 -0.00000000000E+00 -0.19431141593E+03  0.19431141593E+03  0.00000000000E+00 0. -1.
         23    2    1    2    0    0  0.00000000000E+00  0.00000000000E+00 -0.18429304443E+03  0.20432978743E+03  0.88242483014E+02 0.  0.
        -11    1    3    3    0    0 -0.29549545433E+02 -0.27415260562E+02 -0.50601172899E+02  0.64693514712E+02  0.00000000000E+00 0.  1.
         11    1    3    3    0    0  0.29549545433E+02  0.27415260562E+02 -0.13369187153E+03  0.13963627272E+03  0.00000000000E+00 0. -1.
<mgrwt>
<rscale>  0 0.88242483E+02</rscale>
<asrwt>0</asrwt>
<pdfrwt beam="2">  1        2 0.29894064E-01 0.88242483E+02</pdfrwt>
<pdfrwt beam="1">  1       -2 0.15412879E-02 0.88242483E+02</pdfrwt>
<totfact> 0.16714318E+05</totfact>
</mgrwt>
</event>
<event>
 5    1  0.1239369E+001  0.9108334E+02  0.7546771E-02  0.1300249E+00
         -3   -1    0    0    0  501 -0.00000000000E+00  0.00000000000E+00  0.12429629182E+03  0.12429629182E+03  0.00000000000E+00 0.  1.
          3   -1    0    0  501    0  0.00000000000E+00 -0.00000000000E+00 -0.16686286911E+02  0.16686286911E+02  0.00000000000E+00 0. -1.
         23    2    1    2    0    0  0.00000000000E+00  0.00000000000E+00  0.10761000490E+03  0.14098257873E+03  0.91083337384E+02 0.  0.
        -13    1    3    3    0    0 -0.42290282542E+02 -0.24962110776E+01  0.27934992676E+02  0.50745077427E+02  0.00000000000E+00 0. -1.
         13    1    3    3    0    0  0.42290282542E+02  0.24962110776E+01  0.79675012228E+02  0.90237501299E+02  0.00000000000E+00 0.  1.
<mgrwt>
<rscale>  0 0.91083337E+02</rscale>
<asrwt>0</asrwt>
<pdfrwt beam="2">  1        3 0.25671211E-02 0.91083337E+02</pdfrwt>
<pdfrwt beam="1">  1       -3 0.19122506E-01 0.91083337E+02</pdfrwt>
<totfact> 0.31958182E+04</totfact>
</mgrwt>
</event>
<event>
 5    1  0.1239369E+001  0.9087057E+02  0.7546771E-02  0.1300757E+00
          2   -1    0    0  501    0  0.00000000000E+00  0.00000000000E+00  0.48440500140E+02  0.48440500140E+02  0.00000000000E+00 0. -1.
         -2   -1    0    0    0  501 -0.00000000000E+00 -0.00000000000E+00 -0.42616509699E+02  0.42616509699E+02  0.00000000000E+00 0.  1.
         23    2    1    2    0    0  0.00000000000E+00  0.00000000000E+00  0.58239904408E+01  0.91057009840E+02  0.90870568262E+02 0.  0.
        -13    1    3    3    0    0  0.24868384049E+02  0.40818909323E+01 -0.34971215194E+02  0.43105501400E+02  0.00000000000E+00 0.  1.
         13    1    3    3    0    0 -0.24868384049E+02 -0.40818909323E+01  0.40795205635E+02  0.47951508439E+02  0.00000000000E+00 0. -1.
<mgrwt>
<rscale>  0 0.90870568E+02</rscale>
<asrwt>0</asrwt>
<pdfrwt beam="1">  1        2 0.74523847E-02 0.90870568E+02</pdfrwt>
<pdfrwt beam="2">  1       -2 0.65563861E-02 0.90870568E+02</pdfrwt>
<totfact> 0.10121269E+05</totfact>
</mgrwt>
</event>
<event>
 5    1  0.1239369E+001  0.8895397E+02  0.7546771E-02  0.1305405E+00
          2   -1    0    0  501    0  0.00000000000E+00  0.00000000000E+00  0.16650040073E+02  0.16650040073E+02  0.00000000000E+00 0.  1.
         -2   -1    0    0    0  501 -0.00000000000E+00 -0.00000000000E+00 -0.11881065844E+03  0.11881065844E+03  0.00000000000E+00 0. -1.
         23    2    1    2    0    0  0.00000000000E+00  0.00000000000E+00 -0.10216061836E+03  0.13546069851E+03  0.88953970661E+02 0.  0.
        -11    1    3    3    0    0 -0.22045141447E+01 -0.44349921061E+02 -0.47219780083E+02  0.64818847658E+02  0.00000000000E+00 0.  1.
         11    1    3    3    0    0  0.22045141447E+01  0.44349921061E+02 -0.54940838279E+02  0.70641850850E+02  0.00000000000E+00 0. -1.
<mgrwt>
<rscale>  0 0.88953971E+02</rscale>
<asrwt>0</asrwt>
<pdfrwt beam="1">  1        2 0.25615447E-02 0.88953971E+02</pdfrwt>
<pdfrwt beam="2">  1       -2 0.18278562E-01 0.88953971E+02</pdfrwt>
<totfact> 0.80487786E+04</totfact>
</mgrwt>
</event>
<event>
 5    1  0.1239369E+001  0.9412450E+02  0.7546771E-02  0.1293160E+00
         -3   -1    0    0    0  501 -0.00000000000E+00  0.00000000000E+00  0.97570862161E+01  0.97570862161E+01  0.00000000000E+00 0.  1.
          3   -1    0    0  501    0  0.00000000000E+00 -0.00000000000E+00 -0.22699965551E+03  0.22699965551E+03  0.00000000000E+00 0. -1.
         23    2    1    2    0    0  0.00000000000E+00  0.00000000000E+00 -0.21724256929E+03  0.23675674172E+03  0.94124496489E+02 0.  0.
        -13    1    3    3    0    0  0.45458811092E+02  0.74579122529E+01 -0.84399131666E+02  0.96152677482E+02  0.00000000000E+00 0.  1.
         13    1    3    3    0    0 -0.45458811092E+02 -0.74579122529E+01 -0.13284343763E+03  0.14060406424E+03  0.00000000000E+00 0. -1.
<mgrwt>
<rscale>  0 0.94124496E+02</rscale>
<asrwt>0</asrwt>
<pdfrwt beam="2">  1        3 0.34923021E-01 0.94124496E+02</pdfrwt>
<pdfrwt beam="1">  1       -3 0.15010903E-02 0.94124496E+02</pdfrwt>
<totfact> 0.24504616E+04</totfact>
</mgrwt>
</event>
<event>
 5    1  0.1239369E+001  0.9194696E+02  0.7546771E-02  0.1298204E+00
         -2   -1    0    0    0  501 -0.00000000000E+00  0.00000000000E+00  0.15336598720E+03  0.15336598720E+03  0.00000000000E+00 0. -1.
          2   -1    0    0  501    0  0.00000000000E+00 -0.00000000000E+00 -0.13781158988E+02  0.13781158988E+02  0.00000000000E+00 0.  1.
         23    2    1    2    0    0  0.00000000000E+00  0.00000000000E+00  0.13958482821E+03  0.16714714619E+03  0.91946964127E+02 0.  0.
        -13    1    3    3    0    0 -0.84806750851E+01  0.45169408536E+02  0.71915300059E+02  0.85346398284E+02  0.00000000000E+00 0.  1.
         13    1    3    3    0    0  0.84806750851E+01 -0.45169408536E+02  0.67669528154E+02  0.81800747906E+02  0.00000000000E+00 0. -1.
<mgrwt>
<rscale>  0 0.91946964E+02</rscale>
<asrwt>0</asrwt>
<pdfrwt beam="2">  1        2 0.21201784E-02 0.91946964E+02</pdfrwt>
<pdfrwt beam="1">  1       -2 0.23594766E-01 0.91946964E+02</pdfrwt>
<totfact> 0.67828560E+04</totfact>
</mgrwt>
</event>
<event>
 5    1  0.1239369E+001  0.9258922E+02  0.7546771E-02  0.1296700E+00
          4   -1    0    0  501    0  0.00000000000E+00  0.00000000000E+00  0.88982700949E+01  0.88982700949E+01  0.00000000000E+00 0. -1.
         -4   -1    0    0    0  501 -0.00000000000E+00 -0.00000000000E+00 -0.24085476078E+03  0.24085476078E+03  0.00000000000E+00 0.  1.
         23    2    1    2    0    0  0.00000000000E+00  0.00000000000E+00 -0.23195649069E+03  0.24975303088E+03  0.92589215680E+02 0.  0.
        -13    1    3    3    0    0 -0.13064659030E+02  0.39707478246E+02 -0.62312138486E+02  0.75034470392E+02  0.00000000000E+00 0. -1.
         13    1    3    3    0    0  0.13064659030E+02 -0.39707478246E+02 -0.16964435220E+03  0.17471856048E+03  0.00000000000E+00 0.  1.
<mgrwt>
<rscale>  0 0.92589216E+02</rscale>
<asrwt>0</asrwt>
<pdfrwt beam="1">  1        4 0.13689647E-02 0.92589216E+02</pdfrwt>
<pdfrwt beam="2">  1       -4 0.37054578E-01 0.92589216E+02</pdfrwt>
<totfact> 0.18688366E+04</totfact>
</mgrwt>
</event>
<event>
 5    1  0.1239369E+001  0.9021419E+02  0.7546771E-02  0.1302334E+00
         -1   -1    0    0    0  501 -0.00000000000E+00  0.00000000000E+00  0.13575181361E+02  0.13575181361E+02  0.00000000000E+00 0.  1.
          1   -1    0    0  501    0  0.00000000000E+00 -0.00000000000E+00 -0.14988015175E+03  0.14988015175E+03  0.00000000000E+00 0. -1.
         23    2    1    2    0    0  0.00000000000E+00  0.00000000000E+00 -0.13630497039E+03  0.16345533311E+03  0.90214194944E+02 0.  0.
        -13    1    3    3    0    0  0.26039563284E+01  0.30622322290E+02 -0.83297923187E+01  0.31841681033E+02  0.00000000000E+00 0.  1.
         13    1    3    3    0    0 -0.26039563284E+01 -0.30622322290E+02 -0.12797517807E+03  0.13161365208E+03  0.00000000000E+00 0. -1.
<mgrwt>
<rscale>  0 0.90214195E+02</rscale>
<asrwt>0</asrwt>
<pdfrwt beam="2">  1        1 0.23058486E-01 0.90214195E+02</pdfrwt>
<pdfrwt beam="1">  1       -1 0.20884893E-02 0.90214195E+02</pdfrwt>
<totfact> 0.11536902E+05</totfact>
</mgrwt>
</event>
<event>
 5    1  0.1239369E+001  0.9056660E+02  0.7546771E-02  0.1301485E+00
         -1   -1    0    0    0  501 -0.00000000000E+00  0.00000000000E+00  0.88326250789E+02  0.88326250789E+02  0.00000000000E+00 0.  1.
          1   -1    0    0  501    0  0.00000000000E+00 -0.00000000000E+00 -0.23215944821E+02  0.23215944821E+02  0.00000000000E+00 0. -1.
         23    2    1    2    0    0  0.00000000000E+00  0.00000000000E+00  0.65110305968E+02  0.11154219561E+03  0.90566602334E+02 0.  0.
        -13    1    3    3    0    0  0.36479786957E+02  0.23538337241E+02  0.48411269140E+02  0.65026757233E+02  0.00000000000E+00 0. -1.
         13    1    3    3    0    0 -0.36479786957E+02 -0.23538337241E+02  0.16699036828E+02  0.46515438378E+02  0.00000000000E+00 0.  1.
<mgrwt>
<rscale>  0 0.90566602E+02</rscale>
<asrwt>0</asrwt>
<pdfrwt beam="2">  1        1 0.35716839E-02 0.90566602E+02</pdfrwt>
<pdfrwt beam="1">  1       -1 0.13588654E-01 0.90566602E+02</pdfrwt>
<totfact> 0.84663649E+04</totfact>
</mgrwt>
</event>
<event>
 5    1  0.1239369E+001  0.9517306E+02  0.7546771E-02  0.1290787E+00
         -4   -1    0    0    0  501 -0.00000000000E+00  0.00000000000E+00  0.11117495152E+03  0.11117495152E+03  0.00000000000E+00 0.  1.
          4   -1    0    0  501    0  0.00000000000E+00 -0.00000000000E+00 -0.20368599606E+02  0.20368599606E+02  0.00000000000E+00 0. -1.
         23    2    1    2    0    0  0.00000000000E+00  0.00000000000E+00  0.90806351918E+02  0.13154355113E+03  0.95173064967E+02 0.  0.
        -11    1    3    3    0    0  0.19337079650E+02 -0.37776404970E+02  0.75159531821E+02  0.86313003919E+02  0.00000000000E+00 0.  1.
         11    1    3    3    0    0 -0.19337079650E+02  0.37776404970E+02  0.15646820096E+02  0.45230547211E+02  0.00000000000E+00 0. -1.
<mgrwt>
<rscale>  0 0.95173065E+02</rscale>
<asrwt>0</asrwt>
<pdfrwt beam="2">  1        4 0.31336308E-02 0.95173065E+02</pdfrwt>
<pdfrwt beam="1">  1       -4 0.17103838E-01 0.95173065E+02</pdfrwt>
<totfact> 0.21930771E+04</totfact>
</mgrwt>
</event>
<event>
 5    1  0.1239369E+001  0.8963699E+02  0.7546771E-02  0.1303733E+00
         -1   -1    0    0    0  501 -0.00000000000E+00  0.00000000000E+00  0.73037469924E+01  0.73037469924E+01  0.00000000000E+00 0.  1.
          1   -1    0    0  501    0  0.00000000000E+00 -0.00000000000E+00 -0.27502289476E+03  0.27502289476E+03  0.00000000000E+00 0. -1.
         23    2    1    2    0    0  0.00000000000E+00  0.00000000000E+00 -0.26771914777E+03  0.28232664175E+03  0.89636993266E+02 0.  0.
        -13    1    3    3    0    0 -0.84505956594E+01 -0.43502976043E+02 -0.15493556228E+03  0.16114884409E+03  0.00000000000E+00 0.  1.
         13    1    3    3    0    0  0.84505956594E+01  0.43502976043E+02 -0.11278358549E+03  0.12117779766E+03  0.00000000000E+00 0. -1.
<mgrwt>
<rscale>  0 0.89636993E+02</rscale>
<asrwt>0</asrwt>
<pdfrwt beam="2">  1        1 0.42311207E-01 0.89636993E+02</pdfrwt>
<pdfrwt beam="1">  1       -1 0.11236536E-02 0.89636993E+02</pdfrwt>
<totfact> 0.13184220E+05</totfact>
</mgrwt>
</event>
<event>
 5    1  0.1239369E+001  0.8836152E+02  0.7546771E-02  0.1306869E+00
         -3   -1    0    0    0  501 -0.00000000000E+00  0.00000000000E+00  0.11355971140E+02  0.11355971140E+02  0.00000000000E+00 0.  1.
          3   -1    0    0  501    0  0.00000000000E+00 -0.00000000000E+00 -0.17188662824E+03  0.17188662824E+03  0.00000000000E+00 0. -1.
         23    2    1    2    0    0  0.00000000000E+00  0.00000000000E+00 -0.16053065710E+03  0.18324259938E+03  0.88361520801E+02 0.  0.
        -13    1    3    3    0    0 -0.12270166376E+02  0.38793934638E+02 -0.44561724086E+02  0.60342966459E+02  0.00000000000E+00 0.  1.
         13    1    3    3    0    0  0.12270166376E+02 -0.38793934638E+02 -0.11596893301E+03  0.12289963292E+03  0.00000000000E+00 0. -1.
<mgrwt>
<rscale>  0 0.88361521E+02</rscale>
<asrwt>0</asrwt>
<pdfrwt beam="2">  1        3 0.26444093E-01 0.88361521E+02</pdfrwt>
<pdfrwt beam="1">  1       -3 0.17470727E-02 0.88361521E+02</pdfrwt>
<totfact> 0.31977655E+04</totfact>
</mgrwt>
</event>
<event>
 5    1  0.1239369E+001  0.9106914E+02  0.7546771E-02  0.1300283E+00
         -2   -1    0    0    0  501 -0.00000000000E+00  0.00000000000E+00  0.93518015975E+01  0.93518015975E+01  0.00000000000E+00 0.  1.
          2   -1    0    0  501    0  0.00000000000E+00 -0.00000000000E+00 -0.22171096673E+03  0.22171096673E+03  0.00000000000E+00 0. -1.
         23    2    1    2    0    0  0.00000000000E+00  0.00000000000E+00 -0.21235916513E+03  0.23106276833E+03  0.91069137975E+02 0.  0.
        -11    1    3    3    0    0  0.13941280321E+02  0.39683691714E+02 -0.15043521339E+03  0.15620469940E+03  0.00000000000E+00 0. -1.
         11    1    3    3    0    0 -0.13941280321E+02 -0.39683691714E+02 -0.61923951740E+02  0.74858068932E+02  0.00000000000E+00 0.  1.
<mgrwt>
<rscale>  0 0.91069138E+02</rscale>
<asrwt>0</asrwt>
<pdfrwt beam="2">  1        2 0.34109380E-01 0.91069138E+02</pdfrwt>
<pdfrwt beam="1">  1       -2 0.14387387E-02 0.91069138E+02</pdfrwt>
<totfact> 0.16110632E+05</totfact>
</mgrwt>
</event>
<event>
 5    1  0.1239369E+001  0.9062933E+02  0.7546771E-02  0.1301335E+00
          1   -1    0    0  501    0  0.00000000000E+00  0.00000000000E+00  0.30030205221E+03  0.30030205221E+03  0.00000000000E+00 0. -1.
         -1   -1    0    0    0  501 -0.00000000000E+00 -0.00000000000E+00 -0.68378453434E+01  0.68378453434E+01  0.00000000000E+00 0.  1.
         23    2    1    2    0    0  0.00000000000E+00  0.00000000000E+00  0.29346420687E+03  0.30713989756E+03  0.90629332765E+02 0.  0.
        -11    1    3    3    0    0 -0.38830852349E+02  0.46610819496E+01  0.69165579414E+02  0.79457146656E+02  0.00000000000E+00 0.  1.
         11    1    3    3    0    0  0.38830852349E+02 -0.46610819496E+01  0.22429862746E+03  0.22768275090E+03  0.00000000000E+00 0. -1.
<mgrwt>
<rscale>  0 0.90629333E+02</rscale>
<asrwt>0</asrwt>
<pdfrwt beam="1">  1        1 0.46200305E-01 0.90629333E+02</pdfrwt>
<pdfrwt beam="2">  1       -1 0.10519764E-02 0.90629333E+02</pdfrwt>
<totfact> 0.13021829E+05</totfact>
</mgrwt>
</event>
<event>
 5    1  0.1239369E+001  0.8418864E+02  0.7546771E-02  0.1317568E+00
          3   -1    0    0  501    0  0.00000000000E+00  0.00000000000E+00  0.22041973151E+03  0.22041973151E+03  0.00000000000E+00 0. -1.
         -3   -1    0    0    0  501 -0.00000000000E+00 -0.00000000000E+00 -0.80388976274E+01  0.80388976274E+01  0.00000000000E+00 0.  1.
         23    2    1    2    0    0  0.00000000000E+00  0.00000000000E+00  0.21238083388E+03  0.22845862913E+03  0.84188637158E+02 0.  0.
        -11    1    3    3    0    0 -0.17280090567E+02  0.37977299768E+02  0.91068088788E+02  0.10017122153E+03  0.00000000000E+00 0.  1.
         11    1    3    3    0    0  0.17280090567E+02 -0.37977299768E+02  0.12131274509E+03  0.12828740760E+03  0.00000000000E+00 0. -1.
<mgrwt>
<rscale>  0 0.84188637E+02</rscale>
<asrwt>0</asrwt>
<pdfrwt beam="1">  1        3 0.33910723E-01 0.84188637E+02</pdfrwt>
<pdfrwt beam="2">  1       -3 0.12367536E-02 0.84188637E+02</pdfrwt>
<totfact> 0.33539181E+04</totfact>
</mgrwt>
</event>
<event>
 5    1  0.1239369E+001  0.9013472E+02  0.7546771E-02  0.1302526E+00
          1   -1    0    0  501    0  0.00000000000E+00  0.00000000000E+00  0.84433899117E+02  0.84433899117E+02  0.00000000000E+00 0. -1.
         -1   -1    0    0    0  501 -0.00000000000E+00 -0.00000000000E+00 -0.24055110692E+02  0.24055110692E+02  0.00000000000E+00 0.  1.
         23    2    1    2    0    0  0.00000000000E+00  0.00000000000E+00  0.60378788425E+02  0.10848900981E+03  0.90134716716E+02 0.  0.
        -11    1    3    3    0    0  0.10867210048E+02 -0.14008393530E+02 -0.19681290881E+02  0.26489329064E+02  0.00000000000E+00 0.  1.
         11    1    3    3    0    0 -0.10867210048E+02  0.14008393530E+02  0.80060079307E+02  0.81999680744E+02  0.00000000000E+00 0. -1.
<mgrwt>
<rscale>  0 0.90134717E+02</rscale>
<asrwt>0</asrwt>
<pdfrwt beam="1">  1        1 0.12989830E-01 0.90134717E+02</pdfrwt>
<pdfrwt beam="2">  1       -1 0.37007863E-02 0.90134717E+02</pdfrwt>
<totfact> 0.10485709E+05</totfact>
</mgrwt>
</event>
<event>
 5    1  0.1239369E+001  0.9351592E+02  0.7546771E-02  0.1294554E+00
          1   -1    0    0  501    0  0.00000000000E+00  0.00000000000E+00  0.39954554818E+02  0.39954554818E+02  0.00000000000E+00 0. -1.
         -1   -1    0    0    0  501 -0.00000000000E+00 -0.00000000000E+00 -0.54719835193E+02  0.54719835193E+02  0.00000000000E+00 0.  1.
         23    2    1    2    0    0  0.00000000000E+00  0.00000000000E+00 -0.14765280376E+02  0.94674390011E+02  0.93515916396E+02 0.  0.
        -11    1    3    3    0    0  0.15302900878E+02 -0.17826178980E+02  0.33545330257E+02  0.40954128173E+02  0.00000000000E+00 0. -1.
         11    1    3    3    0    0 -0.15302900878E+02  0.17826178980E+02 -0.48310610633E+02  0.53720261839E+02  0.00000000000E+00 0.  1.
<mgrwt>
<rscale>  0 0.93515916E+02</rscale>
<asrwt>0</asrwt>
<pdfrwt beam="1">  1        1 0.61468546E-02 0.93515916E+02</pdfrwt>
<pdfrwt beam="2">  1       -1 0.84184362E-02 0.93515916E+02</pdfrwt>
<totfact> 0.84369328E+04</totfact>
</mgrwt>
</event>
<event>
 5    1  0.1239369E+001  0.9072268E+02  0.7546771E-02  0.1301111E+00
         -2   -1    0    0    0  501 -0.00000000000E+00  0.00000000000E+00  0.75275290726E+01  0.75275290726E+01  0.00000000000E+00 0.  1.
          2   -1    0    0  501    0  0.00000000000E+00 -0.00000000000E+00 -0.27335016098E+03  0.27335016098E+03  0.00000000000E+00 0. -1.
         23    2    1    2    0    0  0.00000000000E+00  0.00000000000E+00 -0.26582263190E+03  0.28087769005E+03  0.90722682583E+02 0.  0.
        -11    1    3    3    0    0 -0.39549746739E+02 -0.17376445315E+02 -0.90064608092E+02  0.99888722835E+02  0.00000000000E+00 0.  1.
         11    1    3    3    0    0  0.39549746739E+02  0.17376445315E+02 -0.17575802381E+03  0.18098896721E+03  0.00000000000E+00 0. -1.
<mgrwt>
<rscale>  0 0.90722683E+02</rscale>
<asrwt>0</asrwt>
<pdfrwt beam="2">  1        2 0.42053873E-01 0.90722683E+02</pdfrwt>
<pdfrwt beam="1">  1       -2 0.11580813E-02 0.90722683E+02</pdfrwt>
<totfact> 0.17586389E+05</totfact>
</mgrwt>
</event>
<event>
 5    1  0.1239369E+001  0.9152643E+02  0.7546771E-02  0.1299197E+00
         -4   -1    0    0    0  501 -0.00000000000E+00  0.00000000000E+00  0.68444865053E+02  0.68444865053E+02  0.00000000000E+00 0.  1.
          4   -1    0    0  501    0  0.00000000000E+00 -0.00000000000E+00 -0.30597937844E+02  0.30597937844E+02  0.00000000000E+00 0. -1.
         23    2    1    2    0    0  0.00000000000E+00  0.00000000000E+00  0.37846927210E+02  0.99042802897E+02  0.91526427366E+02 0.  0.
        -11    1    3    3    0    0  0.10811453426E+02  0.17570287861E+02 -0.25280532803E+02  0.32629861776E+02  0.00000000000E+00 0. -1.
         11    1    3    3    0    0 -0.10811453426E+02 -0.17570287861E+02  0.63127460012E+02  0.66412941121E+02  0.00000000000E+00 0.  1.
<mgrwt>
<rscale>  0 0.91526427E+02</rscale>
<asrwt>0</asrwt>
<pdfrwt beam="2">  1        4 0.47073751E-02 0.91526427E+02</pdfrwt>
<pdfrwt beam="1">  1       -4 0.10529979E-01 0.91526427E+02</pdfrwt>
<totfact> 0.26243302E+04</totfact>
</mgrwt>
</event>
<event>
 5    1  0.1239369E+001  0.8938914E+02  0.7546771E-02  0.1304338E+00
         -2   -1    0    0    0  501 -0.00000000000E+00  0.00000000000E+00  0.19718658816E+02  0.19718658816E+02  0.00000000000E+00 0.  1.
          2   -1    0    0  501    0  0.00000000000E+00 -0.00000000000E+00 -0.10130530412E+03  0.10130530412E+03  0.00000000000E+00 0. -1.
         23    2    1    2    0    0  0.00000000000E+00  0.00000000000E+00 -0.81586645300E+02  0.12102396293E+03  0.89389143147E+02 0.  0.
        -11    1    3    3    0    0 -0.28076554484E+02  0.11957264658E+02  0.34180050785E+01  0.30707521042E+02  0.00000000000E+00 0.  1.
         11    1    3    3    0    0  0.28076554484E+02 -0.11957264658E+02 -0.85004650379E+02  0.90316441891E+02  0.00000000000E+00 0. -1.
<mgrwt>
<rscale>  0 0.89389143E+02</rscale>
<asrwt>0</asrwt>
<pdfrwt beam="2">  1        2 0.15585431E-01 0.89389143E+02</pdfrwt>
<pdfrwt beam="1">  1       -2 0.30336398E-02 0.89389143E+02</pdfrwt>
<totfact> 0.13004361E+05</totfact>
</mgrwt>
</event>
<event>
 5    1  0.1239369E+001  0.9057323E+02  0.7546771E-02  0.1301469E+00
          1   -1    0    0  501    0  0.00000000000E+00  0.00000000000E+00  0.88547866792E+02  0.88547866792E+02  0.00000000000E+00 0. -1.
         -1   -1    0    0    0  501 -0.00000000000E+00 -0.00000000000E+00 -0.23161231642E+02  0.23161231642E+02  0.00000000000E+00 0.  1.
         23    2    1    2    0    0  0.00000000000E+00  0.00000000000E+00  0.65386635151E+02  0.11170909843E+03  0.90573233445E+02 0.  0.
        -13    1    3    3    0    0 -0.28781742785E+02 -0.21705951074E+01  0.75733354876E+02  0.81047154433E+02  0.00000000000E+00 0. -1.
         13    1    3    3    0    0  0.28781742785E+02  0.21705951074E+01 -0.10346719726E+02  0.30661944001E+02  0.00000000000E+00 0.  1.
<mgrwt>
<rscale>  0 0.90573233E+02</rscale>
<asrwt>0</asrwt>
<pdfrwt beam="1">  1        1 0.13622749E-01 0.90573233E+02</pdfrwt>
<pdfrwt beam="2">  1       -1 0.35632664E-02 0.90573233E+02</pdfrwt>
<totfact> 0.10426632E+05</totfact>
</mgrwt>
</event>
<event>
 5    1  0.1239369E+001  0.9017868E+02  0.7546771E-02  0.1302420E+00
         -1   -1    0    0    0  501 -0.00000000000E+00  0.00000000000E+00  0.10609361221E+02  0.10609361221E+02  0.00000000000E+00 0.  1.
          1   -1    0    0  501    0  0.00000000000E+00 -0.00000000000E+00 -0.19162778853E+03  0.19162778853E+03  0.00000000000E+00 0. -1.
         23    2    1    2    0    0  0.00000000000E+00  0.00000000000E+00 -0.18101842731E+03  0.20223714975E+03  0.90178676605E+02 0.  0.
        -13    1    3    3    0    0 -0.37113303496E+02 -0.10352560806E+02 -0.14303054676E+03  0.14812936953E+03  0.00000000000E+00 0. -1.
         13    1    3    3    0    0  0.37113303496E+02  0.10352560806E+02 -0.37987880548E+02  0.54107780218E+02  0.00000000000E+00 0.  1.
<mgrwt>
<rscale>  0 0.90178677E+02</rscale>
<asrwt>0</asrwt>
<pdfrwt beam="2">  1        1 0.29481196E-01 0.90178677E+02</pdfrwt>
<pdfrwt beam="1">  1       -1 0.16322095E-02 0.90178677E+02</pdfrwt>
<totfact> 0.12094736E+05</totfact>
</mgrwt>
</event>
<event>
 5    1  0.1239369E+001  0.9139736E+02  0.7546771E-02  0.1299503E+00
         -2   -1    0    0    0  501 -0.00000000000E+00  0.00000000000E+00  0.48650050141E+01  0.48650050141E+01  0.00000000000E+00 0. -1.
          2   -1    0    0  501    0  0.00000000000E+00 -0.00000000000E+00 -0.42926353865E+03  0.42926353865E+03  0.00000000000E+00 0.  1.
         23    2    1    2    0    0  0.00000000000E+00  0.00000000000E+00 -0.42439853364E+03  0.43412854366E+03  0.91397358122E+02 0.  0.
        -13    1    3    3    0    0 -0.33049823956E+00  0.45162742691E+02 -0.24530806767E+03  0.24943101375E+03  0.00000000000E+00 0.  1.
         13    1    3    3    0    0  0.33049823956E+00 -0.45162742691E+02 -0.17909046597E+03  0.18469752992E+03  0.00000000000E+00 0. -1.
<mgrwt>
<rscale>  0 0.91397358E+02</rscale>
<asrwt>0</asrwt>
<pdfrwt beam="2">  1        2 0.66040551E-01 0.91397358E+02</pdfrwt>
<pdfrwt beam="1">  1       -2 0.74846224E-03 0.91397358E+02</pdfrwt>
<totfact> 0.20336299E+05</totfact>
</mgrwt>
</event>
<event>
 5    1  0.1239369E+001  0.9192052E+02  0.7546771E-02  0.1298266E+00
         -1   -1    0    0    0  501 -0.00000000000E+00  0.00000000000E+00  0.13357683852E+02  0.13357683852E+02  0.00000000000E+00 0.  1.
          1   -1    0    0  501    0  0.00000000000E+00 -0.00000000000E+00 -0.15813711838E+03  0.15813711838E+03  0.00000000000E+00 0. -1.
         23    2    1    2    0    0  0.00000000000E+00  0.00000000000E+00 -0.14477943453E+03  0.17149480223E+03  0.91920522901E+02 0.  0.
        -11    1    3    3    0    0  0.27918212288E+02 -0.13418050263E+02 -0.90422022676E+01  0.32268127806E+02  0.00000000000E+00 0.  1.
         11    1    3    3    0    0 -0.27918212288E+02  0.13418050263E+02 -0.13573723226E+03  0.13922667442E+03  0.00000000000E+00 0. -1.
<mgrwt>
<rscale>  0 0.91920523E+02</rscale>
<asrwt>0</asrwt>
<pdfrwt beam="2">  1        1 0.24328788E-01 0.91920523E+02</pdfrwt>
<pdfrwt beam="1">  1       -1 0.20550283E-02 0.91920523E+02</pdfrwt>
<totfact> 0.11077826E+05</totfact>
</mgrwt>
</event>
<event>
 5    1  0.1239369E+001  0.9131684E+02  0.7546771E-02  0.1299694E+00
          2   -1    0    0  501    0  0.00000000000E+00  0.00000000000E+00  0.36230403770E+02  0.36230403770E+02  0.00000000000E+00 0.  1.
         -2   -1    0    0    0  501 -0.00000000000E+00 -0.00000000000E+00 -0.57539828927E+02  0.57539828927E+02  0.00000000000E+00 0. -1.
         23    2    1    2    0    0  0.00000000000E+00  0.00000000000E+00 -0.21309425157E+02  0.93770232696E+02  0.91316838203E+02 0.  0.
        -13    1    3    3    0    0  0.23915924558E+02  0.47234913921E+01  0.28988311392E+02  0.37876180058E+02  0.00000000000E+00 0.  1.
         13    1    3    3    0    0 -0.23915924558E+02 -0.47234913921E+01 -0.50297736549E+02  0.55894052639E+02  0.00000000000E+00 0. -1.
<mgrwt>
<rscale>  0 0.91316838E+02</rscale>
<asrwt>0</asrwt>
<pdfrwt beam="1">  1        2 0.55739083E-02 0.91316838E+02</pdfrwt>
<pdfrwt beam="2">  1       -2 0.88522814E-02 0.91316838E+02</pdfrwt>
<totfact> 0.92555457E+04</totfact>
</mgrwt>
</event>
<event>
 5    1  0.1239369E+001  0.9400980E+02  0.7546771E-02  0.1293422E+00
          1   -1    0    0  501    0  0.00000000000E+00  0.00000000000E+00  0.25957676071E+02  0.25957676071E+02  0.00000000000E+00 0. -1.
         -1   -1    0    0    0  501 -0.00000000000E+00 -0.00000000000E+00 -0.85117819589E+02  0.85117819589E+02  0.00000000000E+00 0.  1.
         23    2    1    2    0    0  0.00000000000E+00  0.00000000000E+00 -0.59160143518E+02  0.11107549566E+03  0.94009803506E+02 0.  0.
        -13    1    3    3    0    0 -0.40649747188E+02  0.21797426345E+02 -0.18885353019E+02  0.49841612137E+02  0.00000000000E+00 0. -1.
         13    1    3    3    0    0  0.40649747188E+02 -0.21797426345E+02 -0.40274790498E+02  0.61233883524E+02  0.00000000000E+00 0.  1.
<mgrwt>
<rscale>  0 0.94009804E+02</rscale>
<asrwt>0</asrwt>
<pdfrwt beam="1">  1        1 0.39934885E-02 0.94009804E+02</pdfrwt>
<pdfrwt beam="2">  1       -1 0.13095050E-01 0.94009804E+02</pdfrwt>
<totfact> 0.77428378E+04</totfact>
</mgrwt>
</event>
<event>
 5    1  0.1239369E+001  0.9045818E+02  0.7546771E-02  0.1301746E+00
          1   -1    0    0  501    0  0.00000000000E+00  0.00000000000E+00  0.96945872199E+01  0.96945872199E+01  0.00000000000E+00 0. -1.
         -1   -1    0    0    0  501 -0.00000000000E+00 -0.00000000000E+00 -0.21101160697E+03  0.21101160697E+03  0.00000000000E+00 0.  1.
         23    2    1    2    0    0  0.00000000000E+00  0.00000000000E+00 -0.20131701975E+03  0.22070619419E+03  0.90458176594E+02 0.  0.
        -13    1    3    3    0    0  0.68151257652E+01 -0.44066130318E+02 -0.82173270047E+02  0.93491796916E+02  0.00000000000E+00 0.  1.
         13    1    3    3    0    0 -0.68151257652E+01  0.44066130318E+02 -0.11914374970E+03  0.12721439727E+03  0.00000000000E+00 0. -1.
<mgrwt>
<rscale>  0 0.90458177E+02</rscale>
<asrwt>0</asrwt>
<pdfrwt beam="1">  1        1 0.14914751E-02 0.90458177E+02</pdfrwt>
<pdfrwt beam="2">  1       -1 0.32463321E-01 0.90458177E+02</pdfrwt>
<totfact> 0.69771062E+04</totfact>
</mgrwt>
</event>
<event>
 5    1  0.1239369E+001  0.9014077E+02  0.7546771E-02  0.1302511E+00
          2   -1    0    0  501    0  0.00000000000E+00  0.00000000000E+00  0.52026964973E+03  0.52026964973E+03  0.00000000000E+00 0. -1.
         -2   -1    0    0    0  501 -0.00000000000E+00 -0.00000000000E+00 -0.39043972478E+01  0.39043972478E+01  0.00000000000E+00 0.  1.
         23    2    1    2    0    0  0.00000000000E+00  0.00000000000E+00  0.51636525248E+03  0.52417404698E+03  0.90140765218E+02 0.  0.
        -11    1    3    3    0    0  0.46597230747E+01 -0.44820322864E+02  0.26326881967E+03  0.26709744621E+03  0.00000000000E+00 0.  1.
         11    1    3    3    0    0 -0.46597230747E+01  0.44820322864E+02  0.25309643281E+03  0.25707660077E+03  0.00000000000E+00 0. -1.
<mgrwt>
<rscale>  0 0.90140765E+02</rscale>
<asrwt>0</asrwt>
<pdfrwt beam="1">  1        2 0.80041430E-01 0.90140765E+02</pdfrwt>
<pdfrwt beam="2">  1       -2 0.60067691E-03 0.90140765E+02</pdfrwt>
<totfact> 0.22495718E+05</totfact>
</mgrwt>
</event>
<event>
 5    1  0.1239369E+001  0.9048555E+02  0.7546771E-02  0.1301680E+00
          3   -1    0    0  501    0  0.00000000000E+00  0.00000000000E+00  0.23866606777E+03  0.23866606777E+03  0.00000000000E+00 0. -1.
         -3   -1    0    0    0  501 -0.00000000000E+00 -0.00000000000E+00 -0.85764545953E+01  0.85764545953E+01  0.00000000000E+00 0.  1.
         23    2    1    2    0    0  0.00000000000E+00  0.00000000000E+00  0.23008961318E+03  0.24724252237E+03  0.90485550088E+02 0.  0.
        -11    1    3    3    0    0  0.44063480627E+02 -0.70470397608E+01  0.13542959321E+03  0.14259181538E+03  0.00000000000E+00 0.  1.
         11    1    3    3    0    0 -0.44063480627E+02  0.70470397608E+01  0.94660019965E+02  0.10465070699E+03  0.00000000000E+00 0. -1.
<mgrwt>
<rscale>  0 0.90485550E+02</rscale>
<asrwt>0</asrwt>
<pdfrwt beam="1">  1        3 0.36717852E-01 0.90485550E+02</pdfrwt>
<pdfrwt beam="2">  1       -3 0.13194547E-02 0.90485550E+02</pdfrwt>
<totfact> 0.26768557E+04</totfact>
</mgrwt>
</event>
<event>
 5    1  0.1239369E+001  0.9249789E+02  0.7546771E-02  0.1296913E+00
         -2   -1    0    0    0  501 -0.00000000000E+00  0.00000000000E+00  0.10383209140E+03  0.10383209140E+03  0.00000000000E+00 0.  1.
          2   -1    0    0  501    0  0.00000000000E+00 -0.00000000000E+00 -0.20600227871E+02  0.20600227871E+02  0.00000000000E+00 0. -1.
         23    2    1    2    0    0  0.00000000000E+00  0.00000000000E+00  0.83231863525E+02  0.12443231927E+03  0.92497886313E+02 0.  0.
        -13    1    3    3    0    0  0.32836656250E+02 -0.18244095089E+02  0.77909428880E+02  0.86492613024E+02  0.00000000000E+00 0.  1.
         13    1    3    3    0    0 -0.32836656250E+02  0.18244095089E+02  0.53224346450E+01  0.37939706243E+02  0.00000000000E+00 0. -1.
<mgrwt>
<rscale>  0 0.92497886E+02</rscale>
<asrwt>0</asrwt>
<pdfrwt beam="2">  1        2 0.31692659E-02 0.92497886E+02</pdfrwt>
<pdfrwt beam="1">  1       -2 0.15974168E-01 0.92497886E+02</pdfrwt>
<totfact> 0.76126936E+04</totfact>
</mgrwt>
</event>
<event>
 5    1  0.1239369E+001  0.9145106E+02  0.7546771E-02  0.1299375E+00
         -1   -1    0    0    0  501 -0.00000000000E+00  0.00000000000E+00  0.14216557920E+03  0.14216557920E+03  0.00000000000E+00 0.  1.
          1   -1    0    0  501    0  0.00000000000E+00 -0.00000000000E+00 -0.14706965602E+02  0.14706965602E+02  0.00000000000E+00 0. -1.
         23    2    1    2    0    0  0.00000000000E+00  0.00000000000E+00  0.12745861360E+03  0.15687254480E+03  0.91451064141E+02 0.  0.
        -11    1    3    3    0    0  0.39476447246E+02 -0.15604222622E+01  0.24238509733E+02  0.46350082620E+02  0.00000000000E+00 0. -1.
         11    1    3    3    0    0 -0.39476447246E+02  0.15604222622E+01  0.10322010387E+03  0.11052246218E+03  0.00000000000E+00 0.  1.
<mgrwt>
<rscale>  0 0.91451064E+02</rscale>
<asrwt>0</asrwt>
<pdfrwt beam="2">  1        1 0.22626102E-02 0.91451064E+02</pdfrwt>
<pdfrwt beam="1">  1       -1 0.21871627E-01 0.91451064E+02</pdfrwt>
<totfact> 0.75129800E+04</totfact>
</mgrwt>
</event>
<event>
 5    1  0.1239369E+001  0.9047631E+02  0.7546771E-02  0.1301702E+00
          2   -1    0    0  501    0  0.00000000000E+00  0.00000000000E+00  0.14477226351E+02  0.14477226351E+02  0.00000000000E+00 0. -1.
         -2   -1    0    0    0  501 -0.00000000000E+00 -0.00000000000E+00 -0.14135931381E+03  0.14135931381E+03  0.00000000000E+00 0.  1.
         23    2    1    2    0    0  0.00000000000E+00  0.00000000000E+00 -0.12688208746E+03  0.15583654016E+03  0.90476312544E+02 0.  0.
        -13    1    3    3    0    0  0.29144079719E+02  0.29935626781E+01 -0.12281150238E+03  0.12625768854E+03  0.00000000000E+00 0.  1.
         13    1    3    3    0    0 -0.29144079719E+02 -0.29935626781E+01 -0.40705850832E+01  0.29578851619E+02  0.00000000000E+00 0. -1.
<mgrwt>
<rscale>  0 0.90476313E+02</rscale>
<asrwt>0</asrwt>
<pdfrwt beam="1">  1        2 0.22272656E-02 0.90476313E+02</pdfrwt>
<pdfrwt beam="2">  1       -2 0.21747587E-01 0.90476313E+02</pdfrwt>
<totfact> 0.72760081E+04</totfact>
</mgrwt>
</event>
<event>
 5    1  0.1239369E+001  0.9318131E+02  0.7546771E-02  0.1295326E+00
          2   -1    0    0  501    0  0.00000000000E+00  0.00000000000E+00  0.38046487034E+02  0.38046487034E+02  0.00000000000E+00 0. -1.
         -2   -1    0    0    0  501 -0.00000000000E+00 -0.00000000000E+00 -0.57053598692E+02  0.57053598692E+02  0.00000000000E+00 0.  1.
         23    2    1    2    0    0  0.00000000000E+00  0.00000000000E+00 -0.19007111658E+02  0.95100085726E+02  0.93181307200E+02 0.  0.
        -13    1    3    3    0    0 -0.29409617747E+02  0.31605673059E+02 -0.27381250094E+02  0.51123155636E+02  0.00000000000E+00 0.  1.
         13    1    3    3    0    0  0.29409617747E+02 -0.31605673059E+02  0.83741384358E+01  0.43976930089E+02  0.00000000000E+00 0. -1.
<mgrwt>
<rscale>  0 0.93181307E+02</rscale>
<asrwt>0</asrwt>
<pdfrwt beam="1">  1        2 0.58533057E-02 0.93181307E+02</pdfrwt>
<pdfrwt beam="2">  1       -2 0.87774767E-02 0.93181307E+02</pdfrwt>
<totfact> 0.88371028E+04</totfact>
</mgrwt>
</event>
<event>
 5    1  0.1239369E+001  0.9309236E+02  0.7546771E-02  0.1295531E+00
          2   -1    0    0  501    0  0.00000000000E+00  0.00000000000E+00  0.20484009917E+03  0.20484009917E+03  0.00000000000E+00 0. -1.
         -2   -1    0    0    0  501 -0.00000000000E+00 -0.00000000000E+00 -0.10576771641E+02  0.10576771641E+02  0.00000000000E+00 0.  1.
         23    2    1    2    0    0  0.00000000000E+00  0.00000000000E+00  0.19426332753E+03  0.21541687081E+03  0.93092361701E+02 0.  0.
        -11    1    3    3    0    0  0.37475403930E+00 -0.37399945801E+02  0.33018464070E+02  0.49891034826E+02  0.00000000000E+00 0.  1.
         11    1    3    3    0    0 -0.37475403930E+00  0.37399945801E+02  0.16124486346E+03  0.16552583598E+03  0.00000000000E+00 0. -1.
<mgrwt>
<rscale>  0 0.93092362E+02</rscale>
<asrwt>0</asrwt>
<pdfrwt beam="1">  1        2 0.31513858E-01 0.93092362E+02</pdfrwt>
<pdfrwt beam="2">  1       -2 0.16271958E-02 0.93092362E+02</pdfrwt>
<totfact> 0.14751993E+05</totfact>
</mgrwt>
</event>
<event>
 5    1  0.1239369E+001  0.9095157E+02  0.7546771E-02  0.1300564E+00
          2   -1    0    0  501    0  0.00000000000E+00  0.00000000000E+00  0.48274763873E+02  0.48274763873E+02  0.00000000000E+00 0. -1.
         -2   -1    0    0    0  501 -0.00000000000E+00 -0.00000000000E+00 -0.42839093603E+02  0.42839093603E+02  0.00000000000E+00 0.  1.
         23    2    1    2    0    0  0.00000000000E+00  0.00000000000E+00  0.54356702702E+01  0.91113857476E+02  0.90951572350E+02 0.  0.
        -11    1    3    3    0    0  0.63027297982E+01 -0.12217335250E+02 -0.40707630302E+02  0.42966252435E+02  0.00000000000E+00 0.  1.
         11    1    3    3    0    0 -0.63027297982E+01  0.12217335250E+02  0.46143300572E+02  0.48147605041E+02  0.00000000000E+00 0. -1.
<mgrwt>
<rscale>  0 0.90951572E+02</rscale>
<asrwt>0</asrwt>
<pdfrwt beam="1">  1        2 0.74268867E-02 0.90951572E+02</pdfrwt>
<pdfrwt beam="2">  1       -2 0.65906298E-02 0.90951572E+02</pdfrwt>
<totfact> 0.10086568E+05</totfact>
</mgrwt>
</event>
<event>
 5    1  0.1239369E+001  0.9278204E+02  0.7546771E-02  0.1296251E+00
         -2   -1    0    0    0  501 -0.00000000000E+00  0.00000000000E+00  0.11027649518E+03  0.11027649518E+03  0.00000000000E+00 0. -1.
          2   -1    0    0  501    0  0.00000000000E+00 -0.00000000000E+00 -0.19515732849E+02  0.19515732849E+02  0.00000000000E+00 0.  1.
         23    2    1    2    0    0  0.00000000000E+00  0.00000000000E+00  0.90760762332E+02  0.12979222803E+03  0.92782037475E+02 0.  0.
        -11    1    3    3    0    0  0.11923013859E+02  0.14742537184E+02  0.10460872961E+03  0.10631315522E+03  0.00000000000E+00 0. -1.
         11    1    3    3    0    0 -0.11923013859E+02 -0.14742537184E+02 -0.13847967281E+02  0.23479072808E+02  0.00000000000E+00 0.  1.
<mgrwt>
<rscale>  0 0.92782037E+02</rscale>
<asrwt>0</asrwt>
<pdfrwt beam="2">  1        2 0.30024205E-02 0.92782037E+02</pdfrwt>
<pdfrwt beam="1">  1       -2 0.16965614E-01 0.92782037E+02</pdfrwt>
<totfact> 0.74154206E+04</totfact>
</mgrwt>
</event>
<event>
 5    1  0.1239369E+001  0.9236182E+02  0.7546771E-02  0.1297231E+00
         -4   -1    0    0    0  501 -0.00000000000E+00  0.00000000000E+00  0.34419160906E+02  0.34419160906E+02  0.00000000000E+00 0.  1.
          4   -1    0    0  501    0  0.00000000000E+00 -0.00000000000E+00 -0.61961891362E+02  0.61961891362E+02  0.00000000000E+00 0. -1.
         23    2    1    2    0    0  0.00000000000E+00  0.00000000000E+00 -0.27542730456E+02  0.96381052268E+02  0.92361816977E+02 0.  0.
        -11    1    3    3    0    0  0.29350276920E+02  0.34769282978E+02 -0.55325742060E+01  0.45836133906E+02  0.00000000000E+00 0.  1.
         11    1    3    3    0    0 -0.29350276920E+02 -0.34769282978E+02 -0.22010156250E+02  0.50544918362E+02  0.00000000000E+00 0. -1.
<mgrwt>
<rscale>  0 0.92361817E+02</rscale>
<asrwt>0</asrwt>
<pdfrwt beam="2">  1        4 0.95325986E-02 0.92361817E+02</pdfrwt>
<pdfrwt beam="1">  1       -4 0.52952555E-02 0.92361817E+02</pdfrwt>
<totfact> 0.25763605E+04</totfact>
</mgrwt>
</event>
<event>
 5    1  0.1239369E+001  0.8779309E+02  0.7546771E-02  0.1308286E+00
         -1   -1    0    0    0  501 -0.00000000000E+00  0.00000000000E+00  0.11441024021E+03  0.11441024021E+03  0.00000000000E+00 0.  1.
          1   -1    0    0  501    0  0.00000000000E+00 -0.00000000000E+00 -0.16842083111E+02  0.16842083111E+02  0.00000000000E+00 0. -1.
         23    2    1    2    0    0  0.00000000000E+00  0.00000000000E+00  0.97568157095E+02  0.13125232332E+03  0.87793092535E+02 0.  0.
        -13    1    3    3    0    0  0.20069637039E+02 -0.31231632648E+02  0.13764190623E+02  0.39593663031E+02  0.00000000000E+00 0. -1.
         13    1    3    3    0    0 -0.20069637039E+02  0.31231632648E+02  0.83803966472E+02  0.91658660284E+02  0.00000000000E+00 0.  1.
<mgrwt>
<rscale>  0 0.87793093E+02</rscale>
<asrwt>0</asrwt>
<pdfrwt beam="2">  1        1 0.25910898E-02 0.87793093E+02</pdfrwt>
<pdfrwt beam="1">  1       -1 0.17601575E-01 0.87793093E+02</pdfrwt>
<totfact> 0.87411977E+04</totfact>
</mgrwt>
</event>
<event>
 5    1  0.1239369E+001  0.9162653E+02  0.7546771E-02  0.1298960E+00
         -4   -1    0    0    0  501 -0.00000000000E+00  0.00000000000E+00  0.59008026464E+02  0.59008026464E+02  0.00000000000E+00 0.  1.
          4   -1    0    0  501    0  0.00000000000E+00 -0.00000000000E+00 -0.35568975178E+02  0.35568975178E+02  0.00000000000E+00 0. -1.
         23    2    1    2    0    0  0.00000000000E+00  0.00000000000E+00  0.23439051286E+02  0.94577001641E+02  0.91626525168E+02 0.  0.
        -11    1    3    3    0    0 -0.90696355844E+01  0.21594409168E+02  0.52360971430E+02  0.57360684498E+02  0.00000000000E+00 0.  1.
         11    1    3    3    0    0  0.90696355844E+01 -0.21594409168E+02 -0.28921920144E+02  0.37216317144E+02  0.00000000000E+00 0. -1.
<mgrwt>
<rscale>  0 0.91626525E+02</rscale>
<asrwt>0</asrwt>
<pdfrwt beam="2">  1        4 0.54721500E-02 0.91626525E+02</pdfrwt>
<pdfrwt beam="1">  1       -4 0.90781579E-02 0.91626525E+02</pdfrwt>
<totfact> 0.26442733E+04</totfact>
</mgrwt>
</event>
<event>
 5    1  0.1239369E+001  0.1116203E+03  0.7546771E-02  0.1257598E+00
          3   -1    0    0  501    0  0.00000000000E+00  0.00000000000E+00  0.63362632962E+01  0.63362632962E+01  0.00000000000E+00 0. -1.
         -3   -1    0    0    0  501 -0.00000000000E+00 -0.00000000000E+00 -0.49157917002E+03  0.49157917002E+03  0.00000000000E+00 0.  1.
         23    2    1    2    0    0  0.00000000000E+00  0.00000000000E+00 -0.48524290673E+03  0.49791543332E+03  0.11162033958E+03 0.  0.
        -11    1    3    3    0    0  0.75576169311E+01  0.55285180066E+02 -0.24752090828E+03  0.25373247476E+03  0.00000000000E+00 0.  1.
         11    1    3    3    0    0 -0.75576169311E+01 -0.55285180066E+02 -0.23772199844E+03  0.24418295856E+03  0.00000000000E+00 0. -1.
<mgrwt>
<rscale>  0 0.11162034E+03</rscale>
<asrwt>0</asrwt>
<pdfrwt beam="1">  1        3 0.97480960E-03 0.11162034E+03</pdfrwt>
<pdfrwt beam="2">  1       -3 0.75627575E-01 0.11162034E+03</pdfrwt>
<totfact> 0.10390780E+04</totfact>
</mgrwt>
</event>
<event>
 5    1  0.1239369E+001  0.8934677E+02  0.7546771E-02  0.1304441E+00
          1   -1    0    0  501    0  0.00000000000E+00  0.00000000000E+00  0.63353000423E+01  0.63353000423E+01  0.00000000000E+00 0. -1.
         -1   -1    0    0    0  501 -0.00000000000E+00 -0.00000000000E+00 -0.31501447206E+03  0.31501447206E+03  0.00000000000E+00 0.  1.
         23    2    1    2    0    0  0.00000000000E+00  0.00000000000E+00 -0.30867917202E+03  0.32134977211E+03  0.89346767109E+02 0.  0.
        -11    1    3    3    0    0 -0.39056590582E+02 -0.96720779956E+01 -0.22415041713E+03  0.22773312421E+03  0.00000000000E+00 0.  1.
         11    1    3    3    0    0  0.39056590582E+02  0.96720779956E+01 -0.84528754888E+02  0.93616647897E+02  0.00000000000E+00 0. -1.
<mgrwt>
<rscale>  0 0.89346767E+02</rscale>
<asrwt>0</asrwt>
<pdfrwt beam="1">  1        1 0.97466153E-03 0.89346767E+02</pdfrwt>
<pdfrwt beam="2">  1       -1 0.48463766E-01 0.89346767E+02</pdfrwt>
<totfact> 0.62641586E+04</totfact>
</mgrwt>
</event>
<event>
 5    1  0.1239369E+001  0.8898224E+02  0.7546771E-02  0.1305335E+00
          1   -1    0    0  501    0  0.00000000000E+00  0.00000000000E+00  0.12413834292E+02  0.12413834292E+02  0.00000000000E+00 0. -1.
         -1   -1    0    0    0  501 -0.00000000000E+00 -0.00000000000E+00 -0.15945596538E+03  0.15945596538E+03  0.00000000000E+00 0.  1.
         23    2    1    2    0    0  0.00000000000E+00  0.00000000000E+00 -0.14704213109E+03  0.17186979967E+03  0.88982243873E+02 0.  0.
        -13    1    3    3    0    0  0.18152184713E+02  0.27367158428E+02 -0.13149834498E+03  0.13553699828E+03  0.00000000000E+00 0.  1.
         13    1    3    3    0    0 -0.18152184713E+02 -0.27367158428E+02 -0.15543786103E+02  0.36332801388E+02  0.00000000000E+00 0. -1.
<mgrwt>
<rscale>  0 0.88982244E+02</rscale>
<asrwt>0</asrwt>
<pdfrwt beam="1">  1        1 0.19098207E-02 0.88982244E+02</pdfrwt>
<pdfrwt beam="2">  1       -1 0.24531687E-01 0.88982244E+02</pdfrwt>
<totfact> 0.78512958E+04</totfact>
</mgrwt>
</event>
<event>
 5    1  0.1239369E+001  0.9296415E+02  0.7546771E-02  0.1295828E+00
         -2   -1    0    0    0  501 -0.00000000000E+00  0.00000000000E+00  0.23193094813E+02  0.23193094813E+02  0.00000000000E+00 0.  1.
          2   -1    0    0  501    0  0.00000000000E+00 -0.00000000000E+00 -0.93156315336E+02  0.93156315336E+02  0.00000000000E+00 0. -1.
         23    2    1    2    0    0  0.00000000000E+00  0.00000000000E+00 -0.69963220523E+02  0.11634941015E+03  0.92964149090E+02 0.  0.
        -13    1    3    3    0    0 -0.14925340540E+02 -0.32487598061E+02 -0.72158658072E+02  0.80530005295E+02  0.00000000000E+00 0. -1.
         13    1    3    3    0    0  0.14925340540E+02  0.32487598061E+02  0.21954375491E+01  0.35819404854E+02  0.00000000000E+00 0.  1.
<mgrwt>
<rscale>  0 0.92964149E+02</rscale>
<asrwt>0</asrwt>
<pdfrwt beam="2">  1        2 0.14331741E-01 0.92964149E+02</pdfrwt>
<pdfrwt beam="1">  1       -2 0.35681685E-02 0.92964149E+02</pdfrwt>
<totfact> 0.11380084E+05</totfact>
</mgrwt>
</event>
<event>
 5    1  0.1239369E+001  0.8498564E+02  0.7546771E-02  0.1315470E+00
          1   -1    0    0  501    0  0.00000000000E+00  0.00000000000E+00  0.17833328410E+03  0.17833328410E+03  0.00000000000E+00 0. -1.
         -1   -1    0    0    0  501 -0.00000000000E+00 -0.00000000000E+00 -0.10125085102E+02  0.10125085102E+02  0.00000000000E+00 0.  1.
         23    2    1    2    0    0  0.00000000000E+00  0.00000000000E+00  0.16820819900E+03  0.18845836920E+03  0.84985638272E+02 0.  0.
        -13    1    3    3    0    0 -0.14395583172E+02  0.35997740608E+02  0.45531182149E+02  0.59800992397E+02  0.00000000000E+00 0.  1.
         13    1    3    3    0    0  0.14395583172E+02 -0.35997740608E+02  0.12267701685E+03  0.12865737681E+03  0.00000000000E+00 0. -1.
<mgrwt>
<rscale>  0 0.84985638E+02</rscale>
<asrwt>0</asrwt>
<pdfrwt beam="1">  1        1 0.27435887E-01 0.84985638E+02</pdfrwt>
<pdfrwt beam="2">  1       -1 0.15577055E-02 0.84985638E+02</pdfrwt>
<totfact> 0.13979390E+05</totfact>
</mgrwt>
</event>
<event>
 5    1  0.1239369E+001  0.9180381E+02  0.7546771E-02  0.1298541E+00
          1   -1    0    0  501    0  0.00000000000E+00  0.00000000000E+00  0.12924115052E+02  0.12924115052E+02  0.00000000000E+00 0. -1.
         -1   -1    0    0    0  501 -0.00000000000E+00 -0.00000000000E+00 -0.16302739156E+03  0.16302739156E+03  0.00000000000E+00 0.  1.
         23    2    1    2    0    0  0.00000000000E+00  0.00000000000E+00 -0.15010327650E+03  0.17595150661E+03  0.91803807441E+02 0.  0.
        -11    1    3    3    0    0 -0.99556478642E+00 -0.42919681308E+02 -0.43916734648E+02  0.61414735813E+02  0.00000000000E+00 0. -1.
         11    1    3    3    0    0  0.99556478642E+00  0.42919681308E+02 -0.10618654186E+03  0.11453677080E+03  0.00000000000E+00 0.  1.
<mgrwt>
<rscale>  0 0.91803807E+02</rscale>
<asrwt>0</asrwt>
<pdfrwt beam="1">  1        1 0.19883254E-02 0.91803807E+02</pdfrwt>
<pdfrwt beam="2">  1       -1 0.25081138E-01 0.91803807E+02</pdfrwt>
<totfact> 0.72009458E+04</totfact>
</mgrwt>
</event>
<event>
 5    1  0.1239369E+001  0.8998268E+02  0.7546771E-02  0.1302894E+00
          1   -1    0    0  501    0  0.00000000000E+00  0.00000000000E+00  0.75153225224E+02  0.75153225224E+02  0.00000000000E+00 0. -1.
         -1   -1    0    0    0  501 -0.00000000000E+00 -0.00000000000E+00 -0.26934582724E+02  0.26934582724E+02  0.00000000000E+00 0.  1.
         23    2    1    2    0    0  0.00000000000E+00  0.00000000000E+00  0.48218642500E+02  0.10208780795E+03  0.89982681928E+02 0.  0.
        -11    1    3    3    0    0 -0.12344731888E+01 -0.17878752830E+02  0.70928982457E+02  0.73158008989E+02  0.00000000000E+00 0. -1.
         11    1    3    3    0    0  0.12344731888E+01  0.17878752830E+02 -0.22710339957E+02  0.28929798958E+02  0.00000000000E+00 0.  1.
<mgrwt>
<rscale>  0 0.89982682E+02</rscale>
<asrwt>0</asrwt>
<pdfrwt beam="1">  1        1 0.11562035E-01 0.89982682E+02</pdfrwt>
<pdfrwt beam="2">  1       -1 0.41437820E-02 0.89982682E+02</pdfrwt>
<totfact> 0.10343889E+05</totfact>
</mgrwt>
</event>
<event>
 5    1  0.1239369E+001  0.9353517E+02  0.7546771E-02  0.1294510E+00
          3   -1    0    0  501    0  0.00000000000E+00  0.00000000000E+00  0.75241810307E+02  0.75241810307E+02  0.00000000000E+00 0. -1.
         -3   -1    0    0    0  501 -0.00000000000E+00 -0.00000000000E+00 -0.29069039562E+02  0.29069039562E+02  0.00000000000E+00 0.  1.
         23    2    1    2    0    0  0.00000000000E+00  0.00000000000E+00  0.46172770745E+02  0.10431084987E+03  0.93535173289E+02 0.  0.
        -13    1    3    3    0    0  0.68477119646E+01 -0.35513080003E+02 -0.99797047392E+01  0.37518855488E+02  0.00000000000E+00 0.  1.
         13    1    3    3    0    0 -0.68477119646E+01  0.35513080003E+02  0.56152475484E+02  0.66791994382E+02  0.00000000000E+00 0. -1.
<mgrwt>
<rscale>  0 0.93535173E+02</rscale>
<asrwt>0</asrwt>
<pdfrwt beam="1">  1        3 0.11575663E-01 0.93535173E+02</pdfrwt>
<pdfrwt beam="2">  1       -3 0.44721600E-02 0.93535173E+02</pdfrwt>
<totfact> 0.32041867E+04</totfact>
</mgrwt>
</event>
<event>
 5    1  0.1239369E+001  0.8908911E+02  0.7546771E-02  0.1305073E+00
          3   -1    0    0  501    0  0.00000000000E+00  0.00000000000E+00  0.27280383994E+02  0.27280383994E+02  0.00000000000E+00 0. -1.
         -3   -1    0    0    0  501 -0.00000000000E+00 -0.00000000000E+00 -0.72734215580E+02  0.72734215580E+02  0.00000000000E+00 0.  1.
         23    2    1    2    0    0  0.00000000000E+00  0.00000000000E+00 -0.45453831586E+02  0.10001459957E+03  0.89089108886E+02 0.  0.
        -13    1    3    3    0    0  0.20795977158E+02  0.67068342008E+01 -0.66304310767E+02  0.69812004106E+02  0.00000000000E+00 0.  1.
         13    1    3    3    0    0 -0.20795977158E+02 -0.67068342008E+01  0.20850479181E+02  0.30202595468E+02  0.00000000000E+00 0. -1.
<mgrwt>
<rscale>  0 0.89089109E+02</rscale>
<asrwt>0</asrwt>
<pdfrwt beam="1">  1        3 0.41969822E-02 0.89089109E+02</pdfrwt>
<pdfrwt beam="2">  1       -3 0.11189879E-01 0.89089109E+02</pdfrwt>
<totfact> 0.36921268E+04</totfact>
</mgrwt>
</event>
<event>
 5    1  0.1239369E+001  0.9143007E+02  0.7546771E-02  0.1299425E+00
          1   -1    0    0  501    0  0.00000000000E+00  0.00000000000E+00  0.58725930811E+02  0.58725930811E+02  0.00000000000E+00 0. -1.
         -1   -1    0    0    0  501 -0.00000000000E+00 -0.00000000000E+00 -0.35586736307E+02  0.35586736307E+02  0.00000000000E+00 0.  1.
         23    2    1    2    0    0  0.00000000000E+00  0.00000000000E+00  0.23139194504E+02  0.94312667118E+02  0.91430065387E+02 0.  0.
        -11    1    3    3    0    0  0.44746553105E+02  0.76933390843E+01  0.17068979595E+02  0.48505582622E+02  0.00000000000E+00 0.  1.
         11    1    3    3    0    0 -0.44746553105E+02 -0.76933390843E+01  0.60702149090E+01  0.45807084497E+02  0.00000000000E+00 0. -1.
<mgrwt>
<rscale>  0 0.91430065E+02</rscale>
<asrwt>0</asrwt>
<pdfrwt beam="1">  1        1 0.90347586E-02 0.91430065E+02</pdfrwt>
<pdfrwt beam="2">  1       -1 0.54748825E-02 0.91430065E+02</pdfrwt>
<totfact> 0.95321373E+04</totfact>
</mgrwt>
</event>
<event>
 5    1  0.1239369E+001  0.8959355E+02  0.7546771E-02  0.1303839E+00
         -2   -1    0    0    0  501 -0.00000000000E+00  0.00000000000E+00  0.71321327517E+01  0.71321327517E+01  0.00000000000E+00 0. -1.
          2   -1    0    0  501    0  0.00000000000E+00 -0.00000000000E+00 -0.28136759878E+03  0.28136759878E+03  0.00000000000E+00 0.  1.
         23    2    1    2    0    0  0.00000000000E+00  0.00000000000E+00 -0.27423546602E+03  0.28849973153E+03  0.89593550360E+02 0.  0.
        -11    1    3    3    0    0 -0.80952362386E+01  0.38968406006E+02 -0.20332037359E+03  0.20717925531E+03  0.00000000000E+00 0.  1.
         11    1    3    3    0    0  0.80952362386E+01 -0.38968406006E+02 -0.70915092436E+02  0.81320476214E+02  0.00000000000E+00 0. -1.
<mgrwt>
<rscale>  0 0.89593550E+02</rscale>
<asrwt>0</asrwt>
<pdfrwt beam="2">  1        2 0.43287325E-01 0.89593550E+02</pdfrwt>
<pdfrwt beam="1">  1       -2 0.10972511E-02 0.89593550E+02</pdfrwt>
<totfact> 0.18380687E+05</totfact>
</mgrwt>
</event>
<event>
 5    1  0.1239369E+001  0.9183392E+02  0.7546771E-02  0.1298470E+00
          2   -1    0    0  501    0  0.00000000000E+00  0.00000000000E+00  0.22192248020E+03  0.22192248020E+03  0.00000000000E+00 0. -1.
         -2   -1    0    0    0  501 -0.00000000000E+00 -0.00000000000E+00 -0.95004676851E+01  0.95004676851E+01  0.00000000000E+00 0.  1.
         23    2    1    2    0    0  0.00000000000E+00  0.00000000000E+00  0.21242201251E+03  0.23142294788E+03  0.91833922964E+02 0.  0.
        -11    1    3    3    0    0 -0.34656504800E+02 -0.34385655442E+01  0.30801017499E+02  0.46493007398E+02  0.00000000000E+00 0.  1.
         11    1    3    3    0    0  0.34656504800E+02  0.34385655442E+01  0.18162099502E+03  0.18492994049E+03  0.00000000000E+00 0. -1.
<mgrwt>
<rscale>  0 0.91833923E+02</rscale>
<asrwt>0</asrwt>
<pdfrwt beam="1">  1        2 0.34141916E-01 0.91833923E+02</pdfrwt>
<pdfrwt beam="2">  1       -2 0.14616106E-02 0.91833923E+02</pdfrwt>
<totfact> 0.15757952E+05</totfact>
</mgrwt>
</event>
<event>
 5    1  0.1239369E+001  0.8897378E+02  0.7546771E-02  0.1305356E+00
          3   -1    0    0  501    0  0.00000000000E+00  0.00000000000E+00  0.16582363314E+02  0.16582363314E+02  0.00000000000E+00 0. -1.
         -3   -1    0    0    0  501 -0.00000000000E+00 -0.00000000000E+00 -0.11934870025E+03  0.11934870025E+03  0.00000000000E+00 0.  1.
         23    2    1    2    0    0  0.00000000000E+00  0.00000000000E+00 -0.10276633693E+03  0.13593106356E+03  0.88973782849E+02 0.  0.
        -13    1    3    3    0    0  0.43637597420E+02 -0.13420047994E+01 -0.64440211636E+02  0.77836892032E+02  0.00000000000E+00 0.  1.
         13    1    3    3    0    0 -0.43637597420E+02  0.13420047994E+01 -0.38326125299E+02  0.58094171532E+02  0.00000000000E+00 0. -1.
<mgrwt>
<rscale>  0 0.88973783E+02</rscale>
<asrwt>0</asrwt>
<pdfrwt beam="1">  1        3 0.25511329E-02 0.88973783E+02</pdfrwt>
<pdfrwt beam="2">  1       -3 0.18361338E-01 0.88973783E+02</pdfrwt>
<totfact> 0.34392283E+04</totfact>
</mgrwt>
</event>
<event>
 5    1  0.1239369E+001  0.9047957E+02  0.7546771E-02  0.1301694E+00
          1   -1    0    0  501    0  0.00000000000E+00  0.00000000000E+00  0.14189447389E+03  0.14189447389E+03  0.00000000000E+00 0. -1.
         -1   -1    0    0    0  501 -0.00000000000E+00 -0.00000000000E+00 -0.14423664582E+02  0.14423664582E+02  0.00000000000E+00 0.  1.
         23    2    1    2    0    0  0.00000000000E+00  0.00000000000E+00  0.12747080930E+03  0.15631813847E+03  0.90479573327E+02 0.  0.
        -13    1    3    3    0    0  0.11592052594E+02  0.22237840985E+02 -0.13160910585E+01  0.25112334633E+02  0.00000000000E+00 0.  1.
         13    1    3    3    0    0 -0.11592052594E+02 -0.22237840985E+02  0.12878690036E+03  0.13120580383E+03  0.00000000000E+00 0. -1.
<mgrwt>
<rscale>  0 0.90479573E+02</rscale>
<asrwt>0</asrwt>
<pdfrwt beam="1">  1        1 0.21829918E-01 0.90479573E+02</pdfrwt>
<pdfrwt beam="2">  1       -1 0.22190254E-02 0.90479573E+02</pdfrwt>
<totfact> 0.11332367E+05</totfact>
</mgrwt>
</event>
<event>
 5    1  0.1239369E+001  0.9486874E+02  0.7546771E-02  0.1291472E+00
          1   -1    0    0  501    0  0.00000000000E+00  0.00000000000E+00  0.25027337674E+02  0.25027337674E+02  0.00000000000E+00 0. -1.
         -1   -1    0    0    0  501 -0.00000000000E+00 -0.00000000000E+00 -0.89902465427E+02  0.89902465427E+02  0.00000000000E+00 0.  1.
         23    2    1    2    0    0  0.00000000000E+00  0.00000000000E+00 -0.64875127753E+02  0.11492980310E+03  0.94868737948E+02 0.  0.
        -11    1    3    3    0    0 -0.40060398240E+02 -0.56916974922E+01 -0.24483681403E+01  0.40536717110E+02  0.00000000000E+00 0. -1.
         11    1    3    3    0    0  0.40060398240E+02  0.56916974922E+01 -0.62426759613E+02  0.74393085991E+02  0.00000000000E+00 0.  1.
<mgrwt>
<rscale>  0 0.94868738E+02</rscale>
<asrwt>0</asrwt>
<pdfrwt beam="1">  1        1 0.38503597E-02 0.94868738E+02</pdfrwt>
<pdfrwt beam="2">  1       -1 0.13831148E-01 0.94868738E+02</pdfrwt>
<totfact> 0.74907141E+04</totfact>
</mgrwt>
</event>
<event>
 5    1  0.1239369E+001  0.9256191E+02  0.7546771E-02  0.1296764E+00
          1   -1    0    0  501    0  0.00000000000E+00  0.00000000000E+00  0.99358365425E+02  0.99358365425E+02  0.00000000000E+00 0. -1.
         -1   -1    0    0    0  501 -0.00000000000E+00 -0.00000000000E+00 -0.21557591071E+02  0.21557591071E+02  0.00000000000E+00 0.  1.
         23    2    1    2    0    0  0.00000000000E+00  0.00000000000E+00  0.77800774354E+02  0.12091595650E+03  0.92561914659E+02 0.  0.
        -13    1    3    3    0    0 -0.17857446701E+02 -0.23189236587E+02  0.85733517582E+02  0.90591749808E+02  0.00000000000E+00 0. -1.
         13    1    3    3    0    0  0.17857446701E+02  0.23189236587E+02 -0.79327432286E+01  0.30324206689E+02  0.00000000000E+00 0.  1.
<mgrwt>
<rscale>  0 0.92561915E+02</rscale>
<asrwt>0</asrwt>
<pdfrwt beam="1">  1        1 0.15285902E-01 0.92561915E+02</pdfrwt>
<pdfrwt beam="2">  1       -1 0.33165525E-02 0.92561915E+02</pdfrwt>
<totfact> 0.10013002E+05</totfact>
</mgrwt>
</event>
<event>
 5    1  0.1239369E+001  0.9041603E+02  0.7546771E-02  0.1301847E+00
          3   -1    0    0  501    0  0.00000000000E+00  0.00000000000E+00  0.27021059698E+03  0.27021059698E+03  0.00000000000E+00 0. -1.
         -3   -1    0    0    0  501 -0.00000000000E+00 -0.00000000000E+00 -0.75635997019E+01  0.75635997019E+01  0.00000000000E+00 0.  1.
         23    2    1    2    0    0  0.00000000000E+00  0.00000000000E+00  0.26264699728E+03  0.27777419668E+03  0.90416033772E+02 0.  0.
        -11    1    3    3    0    0  0.22541427823E+02  0.31936726705E+02  0.61557692339E+02  0.72920641570E+02  0.00000000000E+00 0.  1.
         11    1    3    3    0    0 -0.22541427823E+02 -0.31936726705E+02  0.20108930494E+03  0.20485355511E+03  0.00000000000E+00 0. -1.
<mgrwt>
<rscale>  0 0.90416034E+02</rscale>
<asrwt>0</asrwt>
<pdfrwt beam="1">  1        3 0.41570854E-01 0.90416034E+02</pdfrwt>
<pdfrwt beam="2">  1       -3 0.11636309E-02 0.90416034E+02</pdfrwt>
<totfact> 0.25483820E+04</totfact>
</mgrwt>
</event>
<event>
 5    1  0.1239369E+001  0.9070712E+02  0.7546771E-02  0.1301148E+00
         -1   -1    0    0    0  501 -0.00000000000E+00  0.00000000000E+00  0.21381275493E+03  0.21381275493E+03  0.00000000000E+00 0.  1.
          1   -1    0    0  501    0  0.00000000000E+00 -0.00000000000E+00 -0.96203125662E+01  0.96203125662E+01  0.00000000000E+00 0. -1.
         23    2    1    2    0    0  0.00000000000E+00  0.00000000000E+00  0.20419244237E+03  0.22343306750E+03  0.90707122832E+02 0.  0.
        -11    1    3    3    0    0 -0.24038244662E+02 -0.28871045606E+02  0.39510093700E+02  0.54519922827E+02  0.00000000000E+00 0. -1.
         11    1    3    3    0    0  0.24038244662E+02  0.28871045606E+02  0.16468234867E+03  0.16891314467E+03  0.00000000000E+00 0.  1.
<mgrwt>
<rscale>  0 0.90707123E+02</rscale>
<asrwt>0</asrwt>
<pdfrwt beam="2">  1        1 0.14800482E-02 0.90707123E+02</pdfrwt>
<pdfrwt beam="1">  1       -1 0.32894267E-01 0.90707123E+02</pdfrwt>
<totfact> 0.69001074E+04</totfact>
</mgrwt>
</event>
<event>
 5    1  0.1239369E+001  0.8960489E+02  0.7546771E-02  0.1303811E+00
         -2   -1    0    0    0  501 -0.00000000000E+00  0.00000000000E+00  0.19065638806E+03  0.19065638806E+03  0.00000000000E+00 0.  1.
          2   -1    0    0  501    0  0.00000000000E+00 -0.00000000000E+00 -0.10528150021E+02  0.10528150021E+02  0.00000000000E+00 0. -1.
         23    2    1    2    0    0  0.00000000000E+00  0.00000000000E+00  0.18012823804E+03  0.20118453808E+03  0.89604889510E+02 0.  0.
        -11    1    3    3    0    0 -0.37454135031E+02  0.17495728585E+01  0.35003703642E+02  0.51294566035E+02  0.00000000000E+00 0. -1.
         11    1    3    3    0    0  0.37454135031E+02 -0.17495728585E+01  0.14512453439E+03  0.14988997204E+03  0.00000000000E+00 0.  1.
<mgrwt>
<rscale>  0 0.89604890E+02</rscale>
<asrwt>0</asrwt>
<pdfrwt beam="2">  1        2 0.16197155E-02 0.89604890E+02</pdfrwt>
<pdfrwt beam="1">  1       -2 0.29331750E-01 0.89604890E+02</pdfrwt>
<totfact> 0.66486068E+04</totfact>
</mgrwt>
</event>
<event>
 5    1  0.1239369E+001  0.9138327E+02  0.7546771E-02  0.1299536E+00
          1   -1    0    0  501    0  0.00000000000E+00  0.00000000000E+00  0.26194080088E+02  0.26194080088E+02  0.00000000000E+00 0. -1.
         -1   -1    0    0    0  501 -0.00000000000E+00 -0.00000000000E+00 -0.79702186264E+02  0.79702186264E+02  0.00000000000E+00 0.  1.
         23    2    1    2    0    0  0.00000000000E+00  0.00000000000E+00 -0.53508106176E+02  0.10589626635E+03  0.91383268714E+02 0.  0.
        -13    1    3    3    0    0  0.93336096587E+01  0.44046212730E+02 -0.17737587406E+02  0.48392221815E+02  0.00000000000E+00 0.  1.
         13    1    3    3    0    0 -0.93336096587E+01 -0.44046212730E+02 -0.35770518770E+02  0.57504044538E+02  0.00000000000E+00 0. -1.
<mgrwt>
<rscale>  0 0.91383269E+02</rscale>
<asrwt>0</asrwt>
<pdfrwt beam="1">  1        1 0.40298585E-02 0.91383269E+02</pdfrwt>
<pdfrwt beam="2">  1       -1 0.12261875E-01 0.91383269E+02</pdfrwt>
<totfact> 0.84214562E+04</totfact>
</mgrwt>
</event>
<event>
 5    1  0.1239369E+001  0.9370691E+02  0.7546771E-02  0.1294115E+00
         -2   -1    0    0    0  501 -0.00000000000E+00  0.00000000000E+00  0.64619231854E+01  0.64619231854E+01  0.00000000000E+00 0.  1.
          2   -1    0    0  501    0  0.00000000000E+00 -0.00000000000E+00 -0.33972027518E+03  0.33972027518E+03  0.00000000000E+00 0. -1.
         23    2    1    2    0    0  0.00000000000E+00  0.00000000000E+00 -0.33325835199E+03  0.34618219836E+03  0.93706911650E+02 0.  0.
        -11    1    3    3    0    0  0.41702121434E+02 -0.12435042920E+02 -0.23078146009E+03  0.23484841823E+03  0.00000000000E+00 0.  1.
         11    1    3    3    0    0 -0.41702121434E+02  0.12435042920E+02 -0.10247689191E+03  0.11133378013E+03  0.00000000000E+00 0. -1.
<mgrwt>
<rscale>  0 0.93706912E+02</rscale>
<asrwt>0</asrwt>
<pdfrwt beam="2">  1        2 0.52264662E-01 0.93706912E+02</pdfrwt>
<pdfrwt beam="1">  1       -2 0.99414196E-03 0.93706912E+02</pdfrwt>
<totfact> 0.17488179E+05</totfact>
</mgrwt>
</event>
<event>
 5    1  0.1239369E+001  0.8967101E+02  0.7546771E-02  0.1303650E+00
         -4   -1    0    0    0  501 -0.00000000000E+00  0.00000000000E+00  0.49921299104E+02  0.49921299104E+02  0.00000000000E+00 0.  1.
          4   -1    0    0  501    0  0.00000000000E+00 -0.00000000000E+00 -0.40267836145E+02  0.40267836145E+02  0.00000000000E+00 0. -1.
         23    2    1    2    0    0  0.00000000000E+00  0.00000000000E+00  0.96534629591E+01  0.90189135248E+02  0.89671014100E+02 0.  0.
        -11    1    3    3    0    0  0.11527211325E+02 -0.38643859330E+02  0.24535829594E+02  0.47204145991E+02  0.00000000000E+00 0.  1.
         11    1    3    3    0    0 -0.11527211325E+02  0.38643859330E+02 -0.14882366635E+02  0.42984989258E+02  0.00000000000E+00 0. -1.
<mgrwt>
<rscale>  0 0.89671014E+02</rscale>
<asrwt>0</asrwt>
<pdfrwt beam="2">  1        4 0.61950517E-02 0.89671014E+02</pdfrwt>
<pdfrwt beam="1">  1       -4 0.76801999E-02 0.89671014E+02</pdfrwt>
<totfact> 0.28329296E+04</totfact>
</mgrwt>
</event>
<event>
 5    1  0.1239369E+001  0.8673787E+02  0.7546771E-02  0.1310949E+00
          2   -1    0    0  501    0  0.00000000000E+00  0.00000000000E+00  0.47264780813E+03  0.47264780813E+03  0.00000000000E+00 0.  1.
         -2   -1    0    0    0  501 -0.00000000000E+00 -0.00000000000E+00 -0.39794212263E+01  0.39794212263E+01  0.00000000000E+00 0. -1.
         23    2    1    2    0    0  0.00000000000E+00  0.00000000000E+00  0.46866838690E+03  0.47662722935E+03  0.86737874547E+02 0.  0.
        -13    1    3    3    0    0 -0.26355520405E+02  0.34388074710E+02  0.24492062546E+03  0.24872327175E+03  0.00000000000E+00 0.  1.
         13    1    3    3    0    0  0.26355520405E+02 -0.34388074710E+02  0.22374776145E+03  0.22790395760E+03  0.00000000000E+00 0. -1.
<mgrwt>
<rscale>  0 0.86737875E+02</rscale>
<asrwt>0</asrwt>
<pdfrwt beam="1">  1        2 0.72715003E-01 0.86737875E+02</pdfrwt>
<pdfrwt beam="2">  1       -2 0.61221903E-03 0.86737875E+02</pdfrwt>
<totfact> 0.24133150E+05</totfact>
</mgrwt>
</event>
<event>
 5    1  0.1239369E+001  0.9200392E+02  0.7546771E-02  0.1298070E+00
          2   -1    0    0  501    0  0.00000000000E+00  0.00000000000E+00  0.12696498802E+03  0.12696498802E+03  0.00000000000E+00 0. -1.
         -2   -1    0    0    0  501 -0.00000000000E+00 -0.00000000000E+00 -0.16667433004E+02  0.16667433004E+02  0.00000000000E+00 0.  1.
         23    2    1    2    0    0  0.00000000000E+00  0.00000000000E+00  0.11029755501E+03  0.14363242102E+03  0.92003922342E+02 0.  0.
        -13    1    3    3    0    0  0.27815139888E+02  0.25054579460E+02  0.13411105233E+02  0.39765207186E+02  0.00000000000E+00 0.  1.
         13    1    3    3    0    0 -0.27815139888E+02 -0.25054579460E+02  0.96886449778E+02  0.10386721383E+03  0.00000000000E+00 0. -1.
<mgrwt>
<rscale>  0 0.92003922E+02</rscale>
<asrwt>0</asrwt>
<pdfrwt beam="1">  1        2 0.19533074E-01 0.92003922E+02</pdfrwt>
<pdfrwt beam="2">  1       -2 0.25642205E-02 0.92003922E+02</pdfrwt>
<totfact> 0.12903102E+05</totfact>
</mgrwt>
</event>
<event>
 5    1  0.1239369E+001  0.9219937E+02  0.7546771E-02  0.1297611E+00
         -1   -1    0    0    0  501 -0.00000000000E+00  0.00000000000E+00  0.16725444450E+02  0.16725444450E+02  0.00000000000E+00 0.  1.
          1   -1    0    0  501    0  0.00000000000E+00 -0.00000000000E+00 -0.12706274770E+03  0.12706274770E+03  0.00000000000E+00 0. -1.
         23    2    1    2    0    0  0.00000000000E+00  0.00000000000E+00 -0.11033730325E+03  0.14378819215E+03  0.92199369375E+02 0.  0.
        -13    1    3    3    0    0  0.22802236435E+02  0.21167403242E+02 -0.21173884823E+01  0.31184680220E+02  0.00000000000E+00 0.  1.
         13    1    3    3    0    0 -0.22802236435E+02 -0.21167403242E+02 -0.10821991477E+03  0.11260351193E+03  0.00000000000E+00 0. -1.
<mgrwt>
<rscale>  0 0.92199369E+02</rscale>
<asrwt>0</asrwt>
<pdfrwt beam="2">  1        1 0.19548115E-01 0.92199369E+02</pdfrwt>
<pdfrwt beam="1">  1       -1 0.25731453E-02 0.92199369E+02</pdfrwt>
<totfact> 0.10558242E+05</totfact>
</mgrwt>
</event>
<event>
 5    1  0.1239369E+001  0.9218417E+02  0.7546771E-02  0.1297647E+00
         -1   -1    0    0    0  501 -0.00000000000E+00  0.00000000000E+00  0.35239966790E+02  0.35239966790E+02  0.00000000000E+00 0.  1.
          1   -1    0    0  501    0  0.00000000000E+00 -0.00000000000E+00 -0.60286099267E+02  0.60286099267E+02  0.00000000000E+00 0. -1.
         23    2    1    2    0    0  0.00000000000E+00  0.00000000000E+00 -0.25046132477E+02  0.95526066057E+02  0.92184166451E+02 0.  0.
        -13    1    3    3    0    0 -0.36017503232E+02 -0.27746384358E+02 -0.46750187669E+01  0.45705340874E+02  0.00000000000E+00 0.  1.
         13    1    3    3    0    0  0.36017503232E+02  0.27746384358E+02 -0.20371113710E+02  0.49820725183E+02  0.00000000000E+00 0. -1.
<mgrwt>
<rscale>  0 0.92184166E+02</rscale>
<asrwt>0</asrwt>
<pdfrwt beam="2">  1        1 0.92747846E-02 0.92184166E+02</pdfrwt>
<pdfrwt beam="1">  1       -1 0.54215333E-02 0.92184166E+02</pdfrwt>
<totfact> 0.93541192E+04</totfact>
</mgrwt>
</event>
<event>
 5    1  0.1239369E+001  0.8796231E+02  0.7546771E-02  0.1307863E+00
         -1   -1    0    0    0  501 -0.00000000000E+00  0.00000000000E+00  0.16391780608E+02  0.16391780608E+02  0.00000000000E+00 0.  1.
          1   -1    0    0  501    0  0.00000000000E+00 -0.00000000000E+00 -0.11800683006E+03  0.11800683006E+03  0.00000000000E+00 0. -1.
         23    2    1    2    0    0  0.00000000000E+00  0.00000000000E+00 -0.10161504945E+03  0.13439861067E+03  0.87962311671E+02 0.  0.
        -11    1    3    3    0    0  0.34317834794E+02  0.27171741460E+02 -0.57348118414E+02  0.72144466209E+02  0.00000000000E+00 0. -1.
         11    1    3    3    0    0 -0.34317834794E+02 -0.27171741460E+02 -0.44266931039E+02  0.62254144461E+02  0.00000000000E+00 0.  1.
<mgrwt>
<rscale>  0 0.87962312E+02</rscale>
<asrwt>0</asrwt>
<pdfrwt beam="2">  1        1 0.18154897E-01 0.87962312E+02</pdfrwt>
<pdfrwt beam="1">  1       -1 0.25218123E-02 0.87962312E+02</pdfrwt>
<totfact> 0.11838014E+05</totfact>
</mgrwt>
</event>
<event>
 5    1  0.1239369E+001  0.9400313E+02  0.7546771E-02  0.1293437E+00
          1   -1    0    0  501    0  0.00000000000E+00  0.00000000000E+00  0.76906957855E+01  0.76906957855E+01  0.00000000000E+00 0. -1.
         -1   -1    0    0    0  501 -0.00000000000E+00 -0.00000000000E+00 -0.28724931773E+03  0.28724931773E+03  0.00000000000E+00 0.  1.
         23    2    1    2    0    0  0.00000000000E+00  0.00000000000E+00 -0.27955862194E+03  0.29494001352E+03  0.94003130102E+02 0.  0.
        -13    1    3    3    0    0 -0.38512212136E+02  0.91229524610E+01 -0.21932288792E+03  0.22286531339E+03  0.00000000000E+00 0.  1.
         13    1    3    3    0    0  0.38512212136E+02 -0.91229524610E+01 -0.60235734021E+02  0.72074700125E+02  0.00000000000E+00 0. -1.
<mgrwt>
<rscale>  0 0.94003130E+02</rscale>
<asrwt>0</asrwt>
<pdfrwt beam="1">  1        1 0.11831839E-02 0.94003130E+02</pdfrwt>
<pdfrwt beam="2">  1       -1 0.44192204E-01 0.94003130E+02</pdfrwt>
<totfact> 0.56879088E+04</totfact>
</mgrwt>
</event>
<event>
 5    1  0.1239369E+001  0.9118111E+02  0.7546771E-02  0.1300016E+00
         -2   -1    0    0    0  501 -0.00000000000E+00  0.00000000000E+00  0.85386059808E+01  0.85386059808E+01  0.00000000000E+00 0.  1.
          2   -1    0    0  501    0  0.00000000000E+00 -0.00000000000E+00 -0.24342364733E+03  0.24342364733E+03  0.00000000000E+00 0. -1.
         23    2    1    2    0    0  0.00000000000E+00  0.00000000000E+00 -0.23488504134E+03  0.25196225331E+03  0.91181107932E+02 0.  0.
        -13    1    3    3    0    0  0.25328336765E+02  0.35377445911E+02 -0.15506934220E+03  0.16105772013E+03  0.00000000000E+00 0.  1.
         13    1    3    3    0    0 -0.25328336765E+02 -0.35377445911E+02 -0.79815699145E+02  0.90904533179E+02  0.00000000000E+00 0. -1.
<mgrwt>
<rscale>  0 0.91181108E+02</rscale>
<asrwt>0</asrwt>
<pdfrwt beam="2">  1        2 0.37449789E-01 0.91181108E+02</pdfrwt>
<pdfrwt beam="1">  1       -2 0.13136318E-02 0.91181108E+02</pdfrwt>
<totfact> 0.16619309E+05</totfact>
</mgrwt>
</event>
<event>
 5    1  0.1239369E+001  0.9204535E+02  0.7546771E-02  0.1297973E+00
          2   -1    0    0  501    0  0.00000000000E+00  0.00000000000E+00  0.22257968439E+03  0.22257968439E+03  0.00000000000E+00 0. -1.
         -2   -1    0    0    0  501 -0.00000000000E+00 -0.00000000000E+00 -0.95160829246E+01  0.95160829246E+01  0.00000000000E+00 0.  1.
         23    2    1    2    0    0  0.00000000000E+00  0.00000000000E+00  0.21306360147E+03  0.23209576732E+03  0.92045352604E+02 0.  0.
        -11    1    3    3    0    0 -0.36419530338E+02  0.85406312303E+00  0.17744821466E+03  0.18114905602E+03  0.00000000000E+00 0. -1.
         11    1    3    3    0    0  0.36419530338E+02 -0.85406312303E+00  0.35615386813E+02  0.50946711294E+02  0.00000000000E+00 0.  1.
<mgrwt>
<rscale>  0 0.92045353E+02</rscale>
<asrwt>0</asrwt>
<pdfrwt beam="1">  1        2 0.34243024E-01 0.92045353E+02</pdfrwt>
<pdfrwt beam="2">  1       -2 0.14640129E-02 0.92045353E+02</pdfrwt>
<totfact> 0.15677781E+05</totfact>
</mgrwt>
</event>
<event>
 5    1  0.1239369E+001  0.1027960E+03  0.7546771E-02  0.1274524E+00
         -1   -1    0    0    0  501 -0.00000000000E+00  0.00000000000E+00  0.13140728525E+03  0.13140728525E+03  0.00000000000E+00 0.  1.
          1   -1    0    0  501    0  0.00000000000E+00 -0.00000000000E+00 -0.20103575870E+02  0.20103575870E+02  0.00000000000E+00 0. -1.
         23    2    1    2    0    0  0.00000000000E+00  0.00000000000E+00  0.11130370938E+03  0.15151086112E+03  0.10279603745E+03 0.  0.
        -13    1    3    3    0    0  0.41901425535E+02  0.16393139048E+02  0.92271376372E+02  0.10265705708E+03  0.00000000000E+00 0.  1.
         13    1    3    3    0    0 -0.41901425535E+02 -0.16393139048E+02  0.19032333004E+02  0.48853804041E+02  0.00000000000E+00 0. -1.
<mgrwt>
<rscale>  0 0.10279604E+03</rscale>
<asrwt>0</asrwt>
<pdfrwt beam="2">  1        1 0.30928579E-02 0.10279604E+03</pdfrwt>
<pdfrwt beam="1">  1       -1 0.20216505E-01 0.10279604E+03</pdfrwt>
<totfact> 0.56422352E+04</totfact>
</mgrwt>
</event>
<event>
 5    1  0.1239369E+001  0.9169970E+02  0.7546771E-02  0.1298787E+00
         -2   -1    0    0    0  501 -0.00000000000E+00  0.00000000000E+00  0.10497864677E+03  0.10497864677E+03  0.00000000000E+00 0.  1.
          2   -1    0    0  501    0  0.00000000000E+00 -0.00000000000E+00 -0.20025107358E+02  0.20025107358E+02  0.00000000000E+00 0. -1.
         23    2    1    2    0    0  0.00000000000E+00  0.00000000000E+00  0.84953539410E+02  0.12500375413E+03  0.91699698404E+02 0.  0.
        -13    1    3    3    0    0  0.43541035630E+02  0.36163799392E+01  0.61429894889E+02  0.75382570756E+02  0.00000000000E+00 0.  1.
         13    1    3    3    0    0 -0.43541035630E+02 -0.36163799392E+01  0.23523644521E+02  0.49621183371E+02  0.00000000000E+00 0. -1.
<mgrwt>
<rscale>  0 0.91699698E+02</rscale>
<asrwt>0</asrwt>
<pdfrwt beam="2">  1        2 0.30807858E-02 0.91699698E+02</pdfrwt>
<pdfrwt beam="1">  1       -2 0.16150561E-01 0.91699698E+02</pdfrwt>
<totfact> 0.77531495E+04</totfact>
</mgrwt>
</event>
<event>
 5    1  0.1239369E+001  0.9080080E+02  0.7546771E-02  0.1300924E+00
          2   -1    0    0  501    0  0.00000000000E+00  0.00000000000E+00  0.14045171894E+02  0.14045171894E+02  0.00000000000E+00 0. -1.
         -2   -1    0    0    0  501 -0.00000000000E+00 -0.00000000000E+00 -0.14675478586E+03  0.14675478586E+03  0.00000000000E+00 0.  1.
         23    2    1    2    0    0  0.00000000000E+00  0.00000000000E+00 -0.13270961396E+03  0.16079995775E+03  0.90800797214E+02 0.  0.
        -11    1    3    3    0    0 -0.37080115258E+02 -0.25304514148E+02 -0.54351385796E+02  0.70493450205E+02  0.00000000000E+00 0. -1.
         11    1    3    3    0    0  0.37080115258E+02  0.25304514148E+02 -0.78358228169E+02  0.90306507548E+02  0.00000000000E+00 0.  1.
<mgrwt>
<rscale>  0 0.90800797E+02</rscale>
<asrwt>0</asrwt>
<pdfrwt beam="1">  1        2 0.21607956E-02 0.90800797E+02</pdfrwt>
<pdfrwt beam="2">  1       -2 0.22577660E-01 0.90800797E+02</pdfrwt>
<totfact> 0.71151473E+04</totfact>
</mgrwt>
</event>
<event>
 5    1  0.1239369E+001  0.7426897E+02  0.7546771E-02  0.1346150E+00
          4   -1    0    0  501    0  0.00000000000E+00  0.00000000000E+00  0.54600422843E+02  0.54600422843E+02  0.00000000000E+00 0.  1.
         -4   -1    0    0    0  501 -0.00000000000E+00 -0.00000000000E+00 -0.25255666755E+02  0.25255666755E+02  0.00000000000E+00 0. -1.
         23    2    1    2    0    0  0.00000000000E+00  0.00000000000E+00  0.29344756088E+02  0.79856089599E+02  0.74268972903E+02 0.  0.
        -13    1    3    3    0    0 -0.11897315519E+02  0.14290318862E+02  0.49234076826E+02  0.52628449062E+02  0.00000000000E+00 0.  1.
         13    1    3    3    0    0  0.11897315519E+02 -0.14290318862E+02 -0.19889320738E+02  0.27227640536E+02  0.00000000000E+00 0. -1.
<mgrwt>
<rscale>  0 0.74268973E+02</rscale>
<asrwt>0</asrwt>
<pdfrwt beam="1">  1        4 0.84000650E-02 0.74268973E+02</pdfrwt>
<pdfrwt beam="2">  1       -4 0.38854872E-02 0.74268973E+02</pdfrwt>
<totfact> 0.48096918E+04</totfact>
</mgrwt>
</event>
<event>
 5    1  0.1239369E+001  0.1257978E+03  0.7546771E-02  0.1233828E+00
         -4   -1    0    0    0  501 -0.00000000000E+00  0.00000000000E+00  0.12950441244E+03  0.12950441244E+03  0.00000000000E+00 0. -1.
          4   -1    0    0  501    0  0.00000000000E+00 -0.00000000000E+00 -0.30549311995E+02  0.30549311995E+02  0.00000000000E+00 0.  1.
         23    2    1    2    0    0  0.00000000000E+00  0.00000000000E+00  0.98955100448E+02  0.16005372444E+03  0.12579778536E+03 0.  0.
        -11    1    3    3    0    0 -0.52259384384E+02  0.20721381528E+02  0.85370478266E+02  0.10221808777E+03  0.00000000000E+00 0. -1.
         11    1    3    3    0    0  0.52259384384E+02 -0.20721381528E+02  0.13584622181E+02  0.57835636665E+02  0.00000000000E+00 0.  1.
<mgrwt>
<rscale>  0 0.12579779E+03</rscale>
<asrwt>0</asrwt>
<pdfrwt beam="2">  1        4 0.46998942E-02 0.12579779E+03</pdfrwt>
<pdfrwt beam="1">  1       -4 0.19923755E-01 0.12579779E+03</pdfrwt>
<totfact> 0.95607427E+03</totfact>
</mgrwt>
</event>
<event>
 5    1  0.1239369E+001  0.9196783E+02  0.7546771E-02  0.1298155E+00
          2   -1    0    0  501    0  0.00000000000E+00  0.00000000000E+00  0.96426530784E+02  0.96426530784E+02  0.00000000000E+00 0. -1.
         -2   -1    0    0    0  501 -0.00000000000E+00 -0.00000000000E+00 -0.21928826311E+02  0.21928826311E+02  0.00000000000E+00 0.  1.
         23    2    1    2    0    0  0.00000000000E+00  0.00000000000E+00  0.74497704473E+02  0.11835535710E+03  0.91967834493E+02 0.  0.
        -11    1    3    3    0    0 -0.28296272209E+02  0.28741167166E+02  0.88260403198E+01  0.41287197758E+02  0.00000000000E+00 0.  1.
         11    1    3    3    0    0  0.28296272209E+02 -0.28741167166E+02  0.65671664153E+02  0.77068159337E+02  0.00000000000E+00 0. -1.
<mgrwt>
<rscale>  0 0.91967834E+02</rscale>
<asrwt>0</asrwt>
<pdfrwt beam="1">  1        2 0.14834851E-01 0.91967834E+02</pdfrwt>
<pdfrwt beam="2">  1       -2 0.33736657E-02 0.91967834E+02</pdfrwt>
<totfact> 0.11847139E+05</totfact>
</mgrwt>
</event>
<event>
 4    1  0.1239369E+001  0.4001547E+02  0.7546771E-02  0.1508098E+00
         -4   -1    0    0    0  501 -0.00000000000E+00  0.00000000000E+00  0.71105548197E+02  0.71105548197E+02  0.00000000000E+00 0. -1.
          4   -1    0    0  501    0  0.00000000000E+00 -0.00000000000E+00 -0.56297908283E+01  0.56297908283E+01  0.00000000000E+00 0.  1.
        -13    1    1    2    0    0  0.17967656581E+02  0.81515958007E+01  0.26370797054E+02  0.32934846810E+02  0.00000000000E+00 0.  1.
         13    1    1    2    0    0 -0.17967656581E+02 -0.81515958007E+01  0.39104960314E+02  0.43800492215E+02  0.00000000000E+00 0. -1.
<mgrwt>
<rscale>  0 0.40015465E+02</rscale>
<asrwt>0</asrwt>
<pdfrwt beam="2">  1        4 0.86612172E-03 0.40015465E+02</pdfrwt>
<pdfrwt beam="1">  1       -4 0.10939314E-01 0.40015465E+02</pdfrwt>
<totfact> 0.22869377E+05</totfact>
</mgrwt>
</event>
<event>
 5    1  0.1239369E+001  0.8989018E+02  0.7546771E-02  0.1303118E+00
          2   -1    0    0  501    0  0.00000000000E+00  0.00000000000E+00  0.33147243225E+03  0.33147243225E+03  0.00000000000E+00 0. -1.
         -2   -1    0    0    0  501 -0.00000000000E+00 -0.00000000000E+00 -0.60942049088E+01  0.60942049088E+01  0.00000000000E+00 0.  1.
         23    2    1    2    0    0  0.00000000000E+00  0.00000000000E+00  0.32537822735E+03  0.33756663716E+03  0.89890175743E+02 0.  0.
        -13    1    3    3    0    0 -0.27434672284E+02 -0.29691520296E+02  0.88926569645E+02  0.97684094968E+02  0.00000000000E+00 0.  1.
         13    1    3    3    0    0  0.27434672284E+02  0.29691520296E+02  0.23645165770E+03  0.23988254219E+03  0.00000000000E+00 0. -1.
<mgrwt>
<rscale>  0 0.89890176E+02</rscale>
<asrwt>0</asrwt>
<pdfrwt beam="1">  1        2 0.50995745E-01 0.89890176E+02</pdfrwt>
<pdfrwt beam="2">  1       -2 0.93757025E-03 0.89890176E+02</pdfrwt>
<totfact> 0.19361496E+05</totfact>
</mgrwt>
</event>
<event>
 5    1  0.1239369E+001  0.9126292E+02  0.7546771E-02  0.1299822E+00
         -1   -1    0    0    0  501 -0.00000000000E+00  0.00000000000E+00  0.23367402834E+02  0.23367402834E+02  0.00000000000E+00 0.  1.
          1   -1    0    0  501    0  0.00000000000E+00 -0.00000000000E+00 -0.89108320991E+02  0.89108320991E+02  0.00000000000E+00 0. -1.
         23    2    1    2    0    0  0.00000000000E+00  0.00000000000E+00 -0.65740918157E+02  0.11247572382E+03  0.91262917605E+02 0.  0.
        -11    1    3    3    0    0 -0.49751935493E+01 -0.19020169454E+02 -0.83620958458E+02  0.85901013326E+02  0.00000000000E+00 0. -1.
         11    1    3    3    0    0  0.49751935493E+01  0.19020169454E+02  0.17880040301E+02  0.26574710499E+02  0.00000000000E+00 0.  1.
<mgrwt>
<rscale>  0 0.91262918E+02</rscale>
<asrwt>0</asrwt>
<pdfrwt beam="2">  1        1 0.13708973E-01 0.91262918E+02</pdfrwt>
<pdfrwt beam="1">  1       -1 0.35949850E-02 0.91262918E+02</pdfrwt>
<totfact> 0.10223044E+05</totfact>
</mgrwt>
</event>
<event>
 5    1  0.1239369E+001  0.8911549E+02  0.7546771E-02  0.1305008E+00
         -3   -1    0    0    0  501 -0.00000000000E+00  0.00000000000E+00  0.17919166990E+03  0.17919166990E+03  0.00000000000E+00 0.  1.
          3   -1    0    0  501    0  0.00000000000E+00 -0.00000000000E+00 -0.11079714736E+02  0.11079714736E+02  0.00000000000E+00 0. -1.
         23    2    1    2    0    0  0.00000000000E+00  0.00000000000E+00  0.16811195516E+03  0.19027138464E+03  0.89115488790E+02 0.  0.
        -11    1    3    3    0    0  0.19227245526E+02  0.30258756969E+02  0.14055025146E+03  0.14505051717E+03  0.00000000000E+00 0.  1.
         11    1    3    3    0    0 -0.19227245526E+02 -0.30258756969E+02  0.27561703701E+02  0.45220867470E+02  0.00000000000E+00 0. -1.
<mgrwt>
<rscale>  0 0.89115489E+02</rscale>
<asrwt>0</asrwt>
<pdfrwt beam="2">  1        3 0.17045716E-02 0.89115489E+02</pdfrwt>
<pdfrwt beam="1">  1       -3 0.27567947E-01 0.89115489E+02</pdfrwt>
<totfact> 0.30850909E+04</totfact>
</mgrwt>
</event>
<event>
 5    1  0.1239369E+001  0.8878369E+02  0.7546771E-02  0.1305824E+00
         -2   -1    0    0    0  501 -0.00000000000E+00  0.00000000000E+00  0.87666751967E+02  0.87666751967E+02  0.00000000000E+00 0.  1.
          2   -1    0    0  501    0  0.00000000000E+00 -0.00000000000E+00 -0.22478715003E+02  0.22478715003E+02  0.00000000000E+00 0. -1.
         23    2    1    2    0    0  0.00000000000E+00  0.00000000000E+00  0.65188036964E+02  0.11014546697E+03  0.88783690680E+02 0.  0.
        -13    1    3    3    0    0  0.17033948216E+02  0.94714582333E+01  0.82074897464E+02  0.84357291959E+02  0.00000000000E+00 0.  1.
         13    1    3    3    0    0 -0.17033948216E+02 -0.94714582333E+01 -0.16886860499E+02  0.25788175011E+02  0.00000000000E+00 0. -1.
<mgrwt>
<rscale>  0 0.88783691E+02</rscale>
<asrwt>0</asrwt>
<pdfrwt beam="2">  1        2 0.34582639E-02 0.88783691E+02</pdfrwt>
<pdfrwt beam="1">  1       -2 0.13487192E-01 0.88783691E+02</pdfrwt>
<totfact> 0.88553629E+04</totfact>
</mgrwt>
</event>
<event>
 5    1  0.1239369E+001  0.6327374E+02  0.7546771E-02  0.1384585E+00
         -3   -1    0    0    0  501 -0.00000000000E+00  0.00000000000E+00  0.29269525926E+02  0.29269525926E+02  0.00000000000E+00 0.  1.
          3   -1    0    0  501    0  0.00000000000E+00 -0.00000000000E+00 -0.34195685406E+02  0.34195685406E+02  0.00000000000E+00 0. -1.
         23    2    1    2    0    0  0.00000000000E+00  0.00000000000E+00 -0.49261594807E+01  0.63465211332E+02  0.63273738646E+02 0.  0.
        -13    1    3    3    0    0  0.11798668535E+02  0.12948591626E+01 -0.31877686095E+02  0.34015762673E+02  0.00000000000E+00 0. -1.
         13    1    3    3    0    0 -0.11798668535E+02 -0.12948591626E+01  0.26951526615E+02  0.29449448659E+02  0.00000000000E+00 0.  1.
<mgrwt>
<rscale>  0 0.63273739E+02</rscale>
<asrwt>0</asrwt>
<pdfrwt beam="2">  1        3 0.52608747E-02 0.63273739E+02</pdfrwt>
<pdfrwt beam="1">  1       -3 0.45030040E-02 0.63273739E+02</pdfrwt>
<totfact> 0.99789302E+04</totfact>
</mgrwt>
</event>
<event>
 5    1  0.1239369E+001  0.9056931E+02  0.7546771E-02  0.1301479E+00
          2   -1    0    0  501    0  0.00000000000E+00  0.00000000000E+00  0.26090084422E+03  0.26090084422E+03  0.00000000000E+00 0. -1.
         -2   -1    0    0    0  501 -0.00000000000E+00 -0.00000000000E+00 -0.78600733295E+01  0.78600733295E+01  0.00000000000E+00 0.  1.
         23    2    1    2    0    0  0.00000000000E+00  0.00000000000E+00  0.25304077089E+03  0.26876091755E+03  0.90569305337E+02 0.  0.
        -13    1    3    3    0    0  0.26782818947E+02 -0.23731515008E+02  0.44166216860E+02  0.56843283746E+02  0.00000000000E+00 0.  1.
         13    1    3    3    0    0 -0.26782818947E+02  0.23731515008E+02  0.20887455403E+03  0.21191763380E+03  0.00000000000E+00 0. -1.
<mgrwt>
<rscale>  0 0.90569305E+02</rscale>
<asrwt>0</asrwt>
<pdfrwt beam="1">  1        2 0.40138585E-01 0.90569305E+02</pdfrwt>
<pdfrwt beam="2">  1       -2 0.12092423E-02 0.90569305E+02</pdfrwt>
<totfact> 0.17361740E+05</totfact>
</mgrwt>
</event>
<event>
 5    1  0.1239369E+001  0.9097059E+02  0.7546771E-02  0.1300518E+00
          2   -1    0    0  501    0  0.00000000000E+00  0.00000000000E+00  0.14446062357E+03  0.14446062357E+03  0.00000000000E+00 0.  1.
         -2   -1    0    0    0  501 -0.00000000000E+00 -0.00000000000E+00 -0.14321633674E+02  0.14321633674E+02  0.00000000000E+00 0. -1.
         23    2    1    2    0    0  0.00000000000E+00  0.00000000000E+00  0.13013898989E+03  0.15878225724E+03  0.90970591534E+02 0.  0.
        -11    1    3    3    0    0 -0.38460636729E+01 -0.44828140784E+02  0.76720474187E+02  0.88940348388E+02  0.00000000000E+00 0.  1.
         11    1    3    3    0    0  0.38460636729E+01  0.44828140784E+02  0.53418515705E+02  0.69841908852E+02  0.00000000000E+00 0. -1.
<mgrwt>
<rscale>  0 0.90970592E+02</rscale>
<asrwt>0</asrwt>
<pdfrwt beam="1">  1        2 0.22224710E-01 0.90970592E+02</pdfrwt>
<pdfrwt beam="2">  1       -2 0.22033284E-02 0.90970592E+02</pdfrwt>
<totfact> 0.13889180E+05</totfact>
</mgrwt>
</event>
<event>
 5    1  0.1239369E+001  0.9054151E+02  0.7546771E-02  0.1301546E+00
          1   -1    0    0  501    0  0.00000000000E+00  0.00000000000E+00  0.10397706637E+02  0.10397706637E+02  0.00000000000E+00 0. -1.
         -1   -1    0    0    0  501 -0.00000000000E+00 -0.00000000000E+00 -0.19710514561E+03  0.19710514561E+03  0.00000000000E+00 0.  1.
         23    2    1    2    0    0  0.00000000000E+00  0.00000000000E+00 -0.18670743898E+03  0.20750285225E+03  0.90541514913E+02 0.  0.
        -13    1    3    3    0    0 -0.32756348913E+02  0.27217189655E+02 -0.12853768198E+03  0.13540934051E+03  0.00000000000E+00 0.  1.
         13    1    3    3    0    0  0.32756348913E+02 -0.27217189655E+02 -0.58169756992E+02  0.72093511742E+02  0.00000000000E+00 0. -1.
<mgrwt>
<rscale>  0 0.90541515E+02</rscale>
<asrwt>0</asrwt>
<pdfrwt beam="1">  1        1 0.15996472E-02 0.90541515E+02</pdfrwt>
<pdfrwt beam="2">  1       -1 0.30323868E-01 0.90541515E+02</pdfrwt>
<totfact> 0.70993819E+04</totfact>
</mgrwt>
</event>
<event>
 5    1  0.1239369E+001  0.9943240E+02  0.7546771E-02  0.1281494E+00
          2   -1    0    0  501    0  0.00000000000E+00  0.00000000000E+00  0.17052671422E+02  0.17052671422E+02  0.00000000000E+00 0.  1.
         -2   -1    0    0    0  501 -0.00000000000E+00 -0.00000000000E+00 -0.14494507204E+03  0.14494507204E+03  0.00000000000E+00 0. -1.
         23    2    1    2    0    0  0.00000000000E+00  0.00000000000E+00 -0.12789240062E+03  0.16199774347E+03  0.99432402924E+02 0.  0.
        -11    1    3    3    0    0 -0.25810243026E+02  0.10200240637E+02 -0.13115023773E+03  0.13405446061E+03  0.00000000000E+00 0. -1.
         11    1    3    3    0    0  0.25810243026E+02 -0.10200240637E+02  0.32578371036E+01  0.27943282855E+02  0.00000000000E+00 0.  1.
<mgrwt>
<rscale>  0 0.99432403E+02</rscale>
<asrwt>0</asrwt>
<pdfrwt beam="1">  1        2 0.26234880E-02 0.99432403E+02</pdfrwt>
<pdfrwt beam="2">  1       -2 0.22299241E-01 0.99432403E+02</pdfrwt>
<totfact> 0.56795811E+04</totfact>
</mgrwt>
</event>
<event>
 5    1  0.1239369E+001  0.9343274E+02  0.7546771E-02  0.1294745E+00
         -2   -1    0    0    0  501 -0.00000000000E+00  0.00000000000E+00  0.41275393882E+02  0.41275393882E+02  0.00000000000E+00 0.  1.
          2   -1    0    0  501    0  0.00000000000E+00 -0.00000000000E+00 -0.52874581151E+02  0.52874581151E+02  0.00000000000E+00 0. -1.
         23    2    1    2    0    0  0.00000000000E+00  0.00000000000E+00 -0.11599187270E+02  0.94149975033E+02  0.93432738660E+02 0.  0.
        -13    1    3    3    0    0 -0.31532710927E+02  0.17337031297E+02 -0.35819808001E+02  0.50773449340E+02  0.00000000000E+00 0. -1.
         13    1    3    3    0    0  0.31532710927E+02 -0.17337031297E+02  0.24220620731E+02  0.43376525693E+02  0.00000000000E+00 0.  1.
<mgrwt>
<rscale>  0 0.93432739E+02</rscale>
<asrwt>0</asrwt>
<pdfrwt beam="2">  1        2 0.81345509E-02 0.93432739E+02</pdfrwt>
<pdfrwt beam="1">  1       -2 0.63500606E-02 0.93432739E+02</pdfrwt>
<totfact> 0.95664909E+04</totfact>
</mgrwt>
</event>
<event>
 5    1  0.1239369E+001  0.9231856E+02  0.7546771E-02  0.1297332E+00
          4   -1    0    0  501    0  0.00000000000E+00  0.00000000000E+00  0.71726076098E+02  0.71726076098E+02  0.00000000000E+00 0. -1.
         -4   -1    0    0    0  501 -0.00000000000E+00 -0.00000000000E+00 -0.29705784443E+02  0.29705784443E+02  0.00000000000E+00 0.  1.
         23    2    1    2    0    0  0.00000000000E+00  0.00000000000E+00  0.42020291655E+02  0.10143186054E+03  0.92318564883E+02 0.  0.
        -11    1    3    3    0    0 -0.39919969630E+02  0.79023210886E+01 -0.29264477387E+01  0.40799690565E+02  0.00000000000E+00 0.  1.
         11    1    3    3    0    0  0.39919969630E+02 -0.79023210886E+01  0.44946739394E+02  0.60632169976E+02  0.00000000000E+00 0. -1.
<mgrwt>
<rscale>  0 0.92318565E+02</rscale>
<asrwt>0</asrwt>
<pdfrwt beam="1">  1        4 0.11034781E-01 0.92318565E+02</pdfrwt>
<pdfrwt beam="2">  1       -4 0.45701207E-02 0.92318565E+02</pdfrwt>
<totfact> 0.25493045E+04</totfact>
</mgrwt>
</event>
<event>
 5    1  0.1239369E+001  0.9355291E+02  0.7546771E-02  0.1294469E+00
          2   -1    0    0  501    0  0.00000000000E+00  0.00000000000E+00  0.39363169274E+02  0.39363169274E+02  0.00000000000E+00 0.  1.
         -2   -1    0    0    0  501 -0.00000000000E+00 -0.00000000000E+00 -0.55585887821E+02  0.55585887821E+02  0.00000000000E+00 0. -1.
         23    2    1    2    0    0  0.00000000000E+00  0.00000000000E+00 -0.16222718547E+02  0.94949057095E+02  0.93552909341E+02 0.  0.
        -13    1    3    3    0    0 -0.40734685237E+02 -0.17480226700E+02 -0.23272966334E+02  0.50064996442E+02  0.00000000000E+00 0.  1.
         13    1    3    3    0    0  0.40734685237E+02  0.17480226700E+02  0.70502477862E+01  0.44884060653E+02  0.00000000000E+00 0. -1.
<mgrwt>
<rscale>  0 0.93552909E+02</rscale>
<asrwt>0</asrwt>
<pdfrwt beam="1">  1        2 0.60558722E-02 0.93552909E+02</pdfrwt>
<pdfrwt beam="2">  1       -2 0.85516750E-02 0.93552909E+02</pdfrwt>
<totfact> 0.88138824E+04</totfact>
</mgrwt>
</event>
<event>
 5    1  0.1239369E+001  0.9054450E+02  0.7546771E-02  0.1301538E+00
          1   -1    0    0  501    0  0.00000000000E+00  0.00000000000E+00  0.68781803695E+02  0.68781803695E+02  0.00000000000E+00 0. -1.
         -1   -1    0    0    0  501 -0.00000000000E+00 -0.00000000000E+00 -0.29798236409E+02  0.29798236409E+02  0.00000000000E+00 0.  1.
         23    2    1    2    0    0  0.00000000000E+00  0.00000000000E+00  0.38983567287E+02  0.98580040104E+02  0.90544496180E+02 0.  0.
        -11    1    3    3    0    0 -0.34367355250E+02 -0.28883248410E+02  0.13122911883E+02  0.46771443872E+02  0.00000000000E+00 0. -1.
         11    1    3    3    0    0  0.34367355250E+02  0.28883248410E+02  0.25860655404E+02  0.51808596232E+02  0.00000000000E+00 0.  1.
<mgrwt>
<rscale>  0 0.90544496E+02</rscale>
<asrwt>0</asrwt>
<pdfrwt beam="1">  1        1 0.10581816E-01 0.90544496E+02</pdfrwt>
<pdfrwt beam="2">  1       -1 0.45843441E-02 0.90544496E+02</pdfrwt>
<totfact> 0.10030640E+05</totfact>
</mgrwt>
</event>
<event>
 5    1  0.1239369E+001  0.9073971E+02  0.7546771E-02  0.1301070E+00
          1   -1    0    0  501    0  0.00000000000E+00  0.00000000000E+00  0.40117531003E+02  0.40117531003E+02  0.00000000000E+00 0. -1.
         -1   -1    0    0    0  501 -0.00000000000E+00 -0.00000000000E+00 -0.51309836575E+02  0.51309836575E+02  0.00000000000E+00 0.  1.
         23    2    1    2    0    0  0.00000000000E+00  0.00000000000E+00 -0.11192305572E+02  0.91427367579E+02  0.90739714780E+02 0.  0.
        -13    1    3    3    0    0 -0.58315052628E+01 -0.38077649833E+02 -0.29746736702E+02  0.48670136787E+02  0.00000000000E+00 0.  1.
         13    1    3    3    0    0  0.58315052628E+01  0.38077649833E+02  0.18554431130E+02  0.42757230792E+02  0.00000000000E+00 0. -1.
<mgrwt>
<rscale>  0 0.90739715E+02</rscale>
<asrwt>0</asrwt>
<pdfrwt beam="1">  1        1 0.61719278E-02 0.90739715E+02</pdfrwt>
<pdfrwt beam="2">  1       -1 0.78938210E-02 0.90739715E+02</pdfrwt>
<totfact> 0.91942747E+04</totfact>
</mgrwt>
</event>
<event>
 5    1  0.1239369E+001  0.8735846E+02  0.7546771E-02  0.1309378E+00
         -1   -1    0    0    0  501 -0.00000000000E+00  0.00000000000E+00  0.95362840752E+02  0.95362840752E+02  0.00000000000E+00 0. -1.
          1   -1    0    0  501    0  0.00000000000E+00 -0.00000000000E+00 -0.20006484029E+02  0.20006484029E+02  0.00000000000E+00 0.  1.
         23    2    1    2    0    0  0.00000000000E+00  0.00000000000E+00  0.75356356723E+02  0.11536932478E+03  0.87358460392E+02 0.  0.
        -11    1    3    3    0    0 -0.70781952922E+01  0.31560402945E+02 -0.10892750255E+01  0.32362731694E+02  0.00000000000E+00 0.  1.
         11    1    3    3    0    0  0.70781952922E+01 -0.31560402945E+02  0.76445631748E+02  0.83006593088E+02  0.00000000000E+00 0. -1.
<mgrwt>
<rscale>  0 0.87358460E+02</rscale>
<asrwt>0</asrwt>
<pdfrwt beam="2">  1        1 0.30779207E-02 0.87358460E+02</pdfrwt>
<pdfrwt beam="1">  1       -1 0.14671206E-01 0.87358460E+02</pdfrwt>
<totfact> 0.91617016E+04</totfact>
</mgrwt>
</event>
<event>
 5    1  0.1239369E+001  0.8732401E+02  0.7546771E-02  0.1309464E+00
         -4   -1    0    0    0  501 -0.00000000000E+00  0.00000000000E+00  0.13290342064E+03  0.13290342064E+03  0.00000000000E+00 0.  1.
          4   -1    0    0  501    0  0.00000000000E+00 -0.00000000000E+00 -0.14344031350E+02  0.14344031350E+02  0.00000000000E+00 0. -1.
         23    2    1    2    0    0  0.00000000000E+00  0.00000000000E+00  0.11855938929E+03  0.14724745199E+03  0.87324013472E+02 0.  0.
        -13    1    3    3    0    0  0.30209877518E+02  0.31345977885E+02  0.64913737971E+02  0.78160094720E+02  0.00000000000E+00 0.  1.
         13    1    3    3    0    0 -0.30209877518E+02 -0.31345977885E+02  0.53645651321E+02  0.69087357272E+02  0.00000000000E+00 0. -1.
<mgrwt>
<rscale>  0 0.87324013E+02</rscale>
<asrwt>0</asrwt>
<pdfrwt beam="2">  1        4 0.22067741E-02 0.87324013E+02</pdfrwt>
<pdfrwt beam="1">  1       -4 0.20446679E-01 0.87324013E+02</pdfrwt>
<totfact> 0.26732079E+04</totfact>
</mgrwt>
</event>
<event>
 5    1  0.1239369E+001  0.8872564E+02  0.7546771E-02  0.1305967E+00
         -2   -1    0    0    0  501 -0.00000000000E+00  0.00000000000E+00  0.14629555419E+03  0.14629555419E+03  0.00000000000E+00 0.  1.
          2   -1    0    0  501    0  0.00000000000E+00 -0.00000000000E+00 -0.13452627625E+02  0.13452627625E+02  0.00000000000E+00 0. -1.
         23    2    1    2    0    0  0.00000000000E+00  0.00000000000E+00  0.13284292657E+03  0.15974818182E+03  0.88725635838E+02 0.  0.
        -11    1    3    3    0    0  0.26031375481E+01 -0.22448574740E+02 -0.23119574628E+01  0.22716953587E+02  0.00000000000E+00 0. -1.
         11    1    3    3    0    0 -0.26031375481E+01  0.22448574740E+02  0.13515488403E+03  0.13703122823E+03  0.00000000000E+00 0.  1.
<mgrwt>
<rscale>  0 0.88725636E+02</rscale>
<asrwt>0</asrwt>
<pdfrwt beam="2">  1        2 0.20696351E-02 0.88725636E+02</pdfrwt>
<pdfrwt beam="1">  1       -2 0.22507007E-01 0.88725636E+02</pdfrwt>
<totfact> 0.75516400E+04</totfact>
</mgrwt>
</event>
<event>
 5    1  0.1239369E+001  0.9245288E+02  0.7546771E-02  0.1297018E+00
         -1   -1    0    0    0  501 -0.00000000000E+00  0.00000000000E+00  0.57571144615E+01  0.57571144615E+01  0.00000000000E+00 0.  1.
          1   -1    0    0  501    0  0.00000000000E+00 -0.00000000000E+00 -0.37117268106E+03  0.37117268106E+03  0.00000000000E+00 0. -1.
         23    2    1    2    0    0  0.00000000000E+00  0.00000000000E+00 -0.36541556659E+03  0.37692979552E+03  0.92452876858E+02 0.  0.
        -11    1    3    3    0    0 -0.44584030930E+02 -0.11504140608E+02 -0.16599581631E+03  0.17226343807E+03  0.00000000000E+00 0. -1.
         11    1    3    3    0    0  0.44584030930E+02  0.11504140608E+02 -0.19941975029E+03  0.20466635745E+03  0.00000000000E+00 0.  1.
<mgrwt>
<rscale>  0 0.92452877E+02</rscale>
<asrwt>0</asrwt>
<pdfrwt beam="2">  1        1 0.57103490E-01 0.92452877E+02</pdfrwt>
<pdfrwt beam="1">  1       -1 0.88570991E-03 0.92452877E+02</pdfrwt>
<totfact> 0.12836238E+05</totfact>
</mgrwt>
</event>
<event>
 5    1  0.1239369E+001  0.9729643E+02  0.7546771E-02  0.1286086E+00
          1   -1    0    0  501    0  0.00000000000E+00  0.00000000000E+00  0.76343827055E+02  0.76343827055E+02  0.00000000000E+00 0. -1.
         -1   -1    0    0    0  501 -0.00000000000E+00 -0.00000000000E+00 -0.30999872068E+02  0.30999872068E+02  0.00000000000E+00 0.  1.
         23    2    1    2    0    0  0.00000000000E+00  0.00000000000E+00  0.45343954987E+02  0.10734369912E+03  0.97296431011E+02 0.  0.
        -13    1    3    3    0    0 -0.22553371895E+02  0.21921074140E+02 -0.18274756863E+02  0.36375195033E+02  0.00000000000E+00 0.  1.
         13    1    3    3    0    0  0.22553371895E+02 -0.21921074140E+02  0.63618711850E+02  0.70968504090E+02  0.00000000000E+00 0. -1.
<mgrwt>
<rscale>  0 0.97296431E+02</rscale>
<asrwt>0</asrwt>
<pdfrwt beam="1">  1        1 0.11745204E-01 0.97296431E+02</pdfrwt>
<pdfrwt beam="2">  1       -1 0.47692111E-02 0.97296431E+02</pdfrwt>
<totfact> 0.83568219E+04</totfact>
</mgrwt>
</event>
<event>
 5    1  0.1239369E+001  0.9170302E+02  0.7546771E-02  0.1298779E+00
          1   -1    0    0  501    0  0.00000000000E+00  0.00000000000E+00  0.41006504739E+02  0.41006504739E+02  0.00000000000E+00 0. -1.
         -1   -1    0    0    0  501 -0.00000000000E+00 -0.00000000000E+00 -0.51268960753E+02  0.51268960753E+02  0.00000000000E+00 0.  1.
         23    2    1    2    0    0  0.00000000000E+00  0.00000000000E+00 -0.10262456014E+02  0.92275465492E+02  0.91703018098E+02 0.  0.
        -13    1    3    3    0    0  0.29752646722E+02 -0.23928340552E+02 -0.30678203032E+02  0.48978950681E+02  0.00000000000E+00 0.  1.
         13    1    3    3    0    0 -0.29752646722E+02  0.23928340552E+02  0.20415747018E+02  0.43296514811E+02  0.00000000000E+00 0. -1.
<mgrwt>
<rscale>  0 0.91703018E+02</rscale>
<asrwt>0</asrwt>
<pdfrwt beam="1">  1        1 0.63086931E-02 0.91703018E+02</pdfrwt>
<pdfrwt beam="2">  1       -1 0.78875324E-02 0.91703018E+02</pdfrwt>
<totfact> 0.89538597E+04</totfact>
</mgrwt>
</event>
<event>
 5    1  0.1239369E+001  0.9058637E+02  0.7546771E-02  0.1301438E+00
          4   -1    0    0  501    0  0.00000000000E+00  0.00000000000E+00  0.52051255373E+02  0.52051255373E+02  0.00000000000E+00 0.  1.
         -4   -1    0    0    0  501 -0.00000000000E+00 -0.00000000000E+00 -0.39412549776E+02  0.39412549776E+02  0.00000000000E+00 0. -1.
         23    2    1    2    0    0  0.00000000000E+00  0.00000000000E+00  0.12638705597E+02  0.91463805150E+02  0.90586371896E+02 0.  0.
        -11    1    3    3    0    0 -0.19350737912E+02  0.22415559082E+02  0.40923233515E+02  0.50513556478E+02  0.00000000000E+00 0.  1.
         11    1    3    3    0    0  0.19350737912E+02 -0.22415559082E+02 -0.28284527918E+02  0.40950248672E+02  0.00000000000E+00 0. -1.
<mgrwt>
<rscale>  0 0.90586372E+02</rscale>
<asrwt>0</asrwt>
<pdfrwt beam="1">  1        4 0.80078855E-02 0.90586372E+02</pdfrwt>
<pdfrwt beam="2">  1       -4 0.60634692E-02 0.90586372E+02</pdfrwt>
<totfact> 0.27477693E+04</totfact>
</mgrwt>
</event>
<event>
 5    1  0.1239369E+001  0.9097280E+02  0.7546771E-02  0.1300513E+00
         -1   -1    0    0    0  501 -0.00000000000E+00  0.00000000000E+00  0.23753375001E+02  0.23753375001E+02  0.00000000000E+00 0.  1.
          1   -1    0    0  501    0  0.00000000000E+00 -0.00000000000E+00 -0.87103950205E+02  0.87103950205E+02  0.00000000000E+00 0. -1.
         23    2    1    2    0    0  0.00000000000E+00  0.00000000000E+00 -0.63350575204E+02  0.11085732521E+03  0.90972804580E+02 0.  0.
        -13    1    3    3    0    0 -0.20349858005E+02 -0.89287755650E+01  0.16688126006E+02  0.27790885259E+02  0.00000000000E+00 0.  1.
         13    1    3    3    0    0  0.20349858005E+02  0.89287755650E+01 -0.80038701210E+02  0.83066439946E+02  0.00000000000E+00 0. -1.
<mgrwt>
<rscale>  0 0.90972805E+02</rscale>
<asrwt>0</asrwt>
<pdfrwt beam="2">  1        1 0.13400608E-01 0.90972805E+02</pdfrwt>
<pdfrwt beam="1">  1       -1 0.36543654E-02 0.90972805E+02</pdfrwt>
<totfact> 0.10274766E+05</totfact>
</mgrwt>
</event>
<event>
 5    1  0.1239369E+001  0.8812546E+02  0.7546771E-02  0.1307456E+00
          4   -1    0    0  501    0  0.00000000000E+00  0.00000000000E+00  0.10740184664E+03  0.10740184664E+03  0.00000000000E+00 0. -1.
         -4   -1    0    0    0  501 -0.00000000000E+00 -0.00000000000E+00 -0.18077195876E+02  0.18077195876E+02  0.00000000000E+00 0.  1.
         23    2    1    2    0    0  0.00000000000E+00  0.00000000000E+00  0.89324650760E+02  0.12547904251E+03  0.88125461000E+02 0.  0.
        -13    1    3    3    0    0  0.34875372387E+02  0.20200670988E+02  0.70020195455E+02  0.80791004939E+02  0.00000000000E+00 0. -1.
         13    1    3    3    0    0 -0.34875372387E+02 -0.20200670988E+02  0.19304455305E+02  0.44688037573E+02  0.00000000000E+00 0.  1.
<mgrwt>
<rscale>  0 0.88125461E+02</rscale>
<asrwt>0</asrwt>
<pdfrwt beam="1">  1        4 0.16523361E-01 0.88125461E+02</pdfrwt>
<pdfrwt beam="2">  1       -4 0.27811071E-02 0.88125461E+02</pdfrwt>
<totfact> 0.27358109E+04</totfact>
</mgrwt>
</event>
<event>
 5    1  0.1239369E+001  0.9855530E+02  0.7546771E-02  0.1283364E+00
         -1   -1    0    0    0  501 -0.00000000000E+00  0.00000000000E+00  0.80437278947E+02  0.80437278947E+02  0.00000000000E+00 0.  1.
          1   -1    0    0  501    0  0.00000000000E+00 -0.00000000000E+00 -0.30188572520E+02  0.30188572520E+02  0.00000000000E+00 0. -1.
         23    2    1    2    0    0  0.00000000000E+00  0.00000000000E+00  0.50248706427E+02  0.11062585147E+03  0.98555296738E+02 0.  0.
        -11    1    3    3    0    0  0.37451361375E+02  0.22810758661E+02  0.50357616213E+02  0.66774431410E+02  0.00000000000E+00 0.  1.
         11    1    3    3    0    0 -0.37451361375E+02 -0.22810758661E+02 -0.10890978576E+00  0.43851420056E+02  0.00000000000E+00 0. -1.
<mgrwt>
<rscale>  0 0.98555297E+02</rscale>
<asrwt>0</asrwt>
<pdfrwt beam="2">  1        1 0.46443958E-02 0.98555297E+02</pdfrwt>
<pdfrwt beam="1">  1       -1 0.12374966E-01 0.98555297E+02</pdfrwt>
<totfact> 0.69274653E+04</totfact>
</mgrwt>
</event>
<event>
 5    1  0.1239369E+001  0.8857481E+02  0.7546771E-02  0.1306340E+00
          4   -1    0    0  501    0  0.00000000000E+00  0.00000000000E+00  0.22841914538E+03  0.22841914538E+03  0.00000000000E+00 0. -1.
         -4   -1    0    0    0  501 -0.00000000000E+00 -0.00000000000E+00 -0.85867324854E+01  0.85867324854E+01  0.00000000000E+00 0.  1.
         23    2    1    2    0    0  0.00000000000E+00  0.00000000000E+00  0.21983241289E+03  0.23700587786E+03  0.88574806710E+02 0.  0.
        -13    1    3    3    0    0  0.34907109414E+02  0.14730572433E+02  0.48555348531E+02  0.61588293716E+02  0.00000000000E+00 0.  1.
         13    1    3    3    0    0 -0.34907109414E+02 -0.14730572433E+02  0.17127706436E+03  0.17541758415E+03  0.00000000000E+00 0. -1.
<mgrwt>
<rscale>  0 0.88574807E+02</rscale>
<asrwt>0</asrwt>
<pdfrwt beam="1">  1        4 0.35141402E-01 0.88574807E+02</pdfrwt>
<pdfrwt beam="2">  1       -4 0.13210359E-02 0.88574807E+02</pdfrwt>
<totfact> 0.21528948E+04</totfact>
</mgrwt>
</event>
<event>
 5    1  0.1239369E+001  0.9104409E+02  0.7546771E-02  0.1300343E+00
         -1   -1    0    0    0  501 -0.00000000000E+00  0.00000000000E+00  0.16735904905E+02  0.16735904905E+02  0.00000000000E+00 0.  1.
          1   -1    0    0  501    0  0.00000000000E+00 -0.00000000000E+00 -0.12382099573E+03  0.12382099573E+03  0.00000000000E+00 0. -1.
         23    2    1    2    0    0  0.00000000000E+00  0.00000000000E+00 -0.10708509082E+03  0.14055690063E+03  0.91044086239E+02 0.  0.
        -13    1    3    3    0    0 -0.26594951706E+02 -0.16401121109E+02 -0.24333077400E+01  0.31340217236E+02  0.00000000000E+00 0.  1.
         13    1    3    3    0    0  0.26594951706E+02  0.16401121109E+02 -0.10465178308E+03  0.10921668340E+03  0.00000000000E+00 0. -1.
<mgrwt>
<rscale>  0 0.91044086E+02</rscale>
<asrwt>0</asrwt>
<pdfrwt beam="2">  1        1 0.19049384E-01 0.91044086E+02</pdfrwt>
<pdfrwt beam="1">  1       -1 0.25747545E-02 0.91044086E+02</pdfrwt>
<totfact> 0.10875946E+05</totfact>
</mgrwt>
</event>
<event>
 5    1  0.1239369E+001  0.9667186E+02  0.7546771E-02  0.1287454E+00
         -1   -1    0    0    0  501 -0.00000000000E+00  0.00000000000E+00  0.89241858948E+01  0.89241858948E+01  0.00000000000E+00 0.  1.
          1   -1    0    0  501    0  0.00000000000E+00 -0.00000000000E+00 -0.26180114328E+03  0.26180114328E+03  0.00000000000E+00 0. -1.
         23    2    1    2    0    0  0.00000000000E+00  0.00000000000E+00 -0.25287695738E+03  0.27072532917E+03  0.96671858781E+02 0.  0.
        -11    1    3    3    0    0 -0.65118555325E+01 -0.43166588940E+02 -0.18455071012E+03  0.18964367448E+03  0.00000000000E+00 0.  1.
         11    1    3    3    0    0  0.65118555325E+01  0.43166588940E+02 -0.68326247262E+02  0.81081654695E+02  0.00000000000E+00 0. -1.
<mgrwt>
<rscale>  0 0.96671859E+02</rscale>
<asrwt>0</asrwt>
<pdfrwt beam="2">  1        1 0.40277107E-01 0.96671859E+02</pdfrwt>
<pdfrwt beam="1">  1       -1 0.13729514E-02 0.96671859E+02</pdfrwt>
<totfact> 0.10667832E+05</totfact>
</mgrwt>
</event>
<event>
 5    1  0.1239369E+001  0.9120963E+02  0.7546771E-02  0.1299949E+00
         -1   -1    0    0    0  501 -0.00000000000E+00  0.00000000000E+00  0.11194188950E+03  0.11194188950E+03  0.00000000000E+00 0.  1.
          1   -1    0    0  501    0  0.00000000000E+00 -0.00000000000E+00 -0.18579276860E+02  0.18579276860E+02  0.00000000000E+00 0. -1.
         23    2    1    2    0    0  0.00000000000E+00  0.00000000000E+00  0.93362612639E+02  0.13052116636E+03  0.91209634517E+02 0.  0.
        -11    1    3    3    0    0  0.19058181454E+02 -0.31603637284E+02  0.85020281661E+02  0.92684693794E+02  0.00000000000E+00 0.  1.
         11    1    3    3    0    0 -0.19058181454E+02  0.31603637284E+02  0.83423309772E+01  0.37836472564E+02  0.00000000000E+00 0. -1.
<mgrwt>
<rscale>  0 0.91209635E+02</rscale>
<asrwt>0</asrwt>
<pdfrwt beam="2">  1        1 0.28583504E-02 0.91209635E+02</pdfrwt>
<pdfrwt beam="1">  1       -1 0.17221829E-01 0.91209635E+02</pdfrwt>
<totfact> 0.79559751E+04</totfact>
</mgrwt>
</event>
<event>
 5    1  0.1239369E+001  0.8453388E+02  0.7546771E-02  0.1316656E+00
         -3   -1    0    0    0  501 -0.00000000000E+00  0.00000000000E+00  0.14884124030E+03  0.14884124030E+03  0.00000000000E+00 0.  1.
          3   -1    0    0  501    0  0.00000000000E+00 -0.00000000000E+00 -0.12002682241E+02  0.12002682241E+02  0.00000000000E+00 0. -1.
         23    2    1    2    0    0  0.00000000000E+00  0.00000000000E+00  0.13683855806E+03  0.16084392254E+03  0.84533877509E+02 0.  0.
        -11    1    3    3    0    0 -0.35771972258E+02  0.16881931883E+02  0.96760192747E+02  0.10453309774E+03  0.00000000000E+00 0.  1.
         11    1    3    3    0    0  0.35771972258E+02 -0.16881931883E+02  0.40078365312E+02  0.56310824798E+02  0.00000000000E+00 0. -1.
<mgrwt>
<rscale>  0 0.84533878E+02</rscale>
<asrwt>0</asrwt>
<pdfrwt beam="2">  1        3 0.18465666E-02 0.84533878E+02</pdfrwt>
<pdfrwt beam="1">  1       -3 0.22898651E-01 0.84533878E+02</pdfrwt>
<totfact> 0.37576187E+04</totfact>
</mgrwt>
</event>
<event>
 5    1  0.1239369E+001  0.8698669E+02  0.7546771E-02  0.1310317E+00
         -2   -1    0    0    0  501 -0.00000000000E+00  0.00000000000E+00  0.26315883887E+02  0.26315883887E+02  0.00000000000E+00 0. -1.
          2   -1    0    0  501    0  0.00000000000E+00 -0.00000000000E+00 -0.71883249196E+02  0.71883249196E+02  0.00000000000E+00 0.  1.
         23    2    1    2    0    0  0.00000000000E+00  0.00000000000E+00 -0.45567365308E+02  0.98199133083E+02  0.86986694139E+02 0.  0.
        -13    1    3    3    0    0  0.14242216582E+02 -0.41094251854E+02 -0.22439469172E+02  0.48939841084E+02  0.00000000000E+00 0.  1.
         13    1    3    3    0    0 -0.14242216582E+02  0.41094251854E+02 -0.23127896136E+02  0.49259291999E+02  0.00000000000E+00 0. -1.
<mgrwt>
<rscale>  0 0.86986694E+02</rscale>
<asrwt>0</asrwt>
<pdfrwt beam="2">  1        2 0.11058961E-01 0.86986694E+02</pdfrwt>
<pdfrwt beam="1">  1       -2 0.40485976E-02 0.86986694E+02</pdfrwt>
<totfact> 0.12701312E+05</totfact>
</mgrwt>
</event>
<event>
 5    1  0.1239369E+001  0.9236092E+02  0.7546771E-02  0.1297233E+00
         -2   -1    0    0    0  501 -0.00000000000E+00  0.00000000000E+00  0.56533063479E+01  0.56533063479E+01  0.00000000000E+00 0.  1.
          2   -1    0    0  501    0  0.00000000000E+00 -0.00000000000E+00 -0.37723670833E+03  0.37723670833E+03  0.00000000000E+00 0. -1.
         23    2    1    2    0    0  0.00000000000E+00  0.00000000000E+00 -0.37158340199E+03  0.38289001468E+03  0.92360915497E+02 0.  0.
        -11    1    3    3    0    0  0.30302835650E+02  0.33101675098E+02 -0.14063489414E+03  0.14762166573E+03  0.00000000000E+00 0.  1.
         11    1    3    3    0    0 -0.30302835650E+02 -0.33101675098E+02 -0.23094850785E+03  0.23526834896E+03  0.00000000000E+00 0. -1.
<mgrwt>
<rscale>  0 0.92360915E+02</rscale>
<asrwt>0</asrwt>
<pdfrwt beam="2">  1        2 0.58036426E-01 0.92360915E+02</pdfrwt>
<pdfrwt beam="1">  1       -2 0.86973931E-03 0.92360915E+02</pdfrwt>
<totfact> 0.18885891E+05</totfact>
</mgrwt>
</event>
<event>
 5    1  0.1239369E+001  0.9113504E+02  0.7546771E-02  0.1300126E+00
         -4   -1    0    0    0  501 -0.00000000000E+00  0.00000000000E+00  0.49549561507E+02  0.49549561507E+02  0.00000000000E+00 0.  1.
          4   -1    0    0  501    0  0.00000000000E+00 -0.00000000000E+00 -0.41905497372E+02  0.41905497372E+02  0.00000000000E+00 0. -1.
         23    2    1    2    0    0  0.00000000000E+00  0.00000000000E+00  0.76440641354E+01  0.91455058878E+02  0.91135043084E+02 0.  0.
        -11    1    3    3    0    0  0.40261835972E+02 -0.15647083232E+02  0.18383407440E+02  0.46944609048E+02  0.00000000000E+00 0.  1.
         11    1    3    3    0    0 -0.40261835972E+02  0.15647083232E+02 -0.10739343305E+02  0.44510449831E+02  0.00000000000E+00 0. -1.
<mgrwt>
<rscale>  0 0.91135043E+02</rscale>
<asrwt>0</asrwt>
<pdfrwt beam="2">  1        4 0.64469996E-02 0.91135043E+02</pdfrwt>
<pdfrwt beam="1">  1       -4 0.76230095E-02 0.91135043E+02</pdfrwt>
<totfact> 0.27032136E+04</totfact>
</mgrwt>
</event>
<event>
 5    1  0.1239369E+001  0.8932301E+02  0.7546771E-02  0.1304499E+00
         -2   -1    0    0    0  501 -0.00000000000E+00  0.00000000000E+00  0.26086111507E+02  0.26086111507E+02  0.00000000000E+00 0.  1.
          2   -1    0    0  501    0  0.00000000000E+00 -0.00000000000E+00 -0.76464061696E+02  0.76464061696E+02  0.00000000000E+00 0. -1.
         23    2    1    2    0    0  0.00000000000E+00  0.00000000000E+00 -0.50377950189E+02  0.10255017320E+03  0.89323010242E+02 0.  0.
        -11    1    3    3    0    0 -0.93952787966E+01  0.24368820512E+02 -0.66782834157E+02  0.71708141901E+02  0.00000000000E+00 0. -1.
         11    1    3    3    0    0  0.93952787966E+01 -0.24368820512E+02  0.16404883968E+02  0.30842031302E+02  0.00000000000E+00 0.  1.
<mgrwt>
<rscale>  0 0.89323010E+02</rscale>
<asrwt>0</asrwt>
<pdfrwt beam="2">  1        2 0.11763702E-01 0.89323010E+02</pdfrwt>
<pdfrwt beam="1">  1       -2 0.40132480E-02 0.89323010E+02</pdfrwt>
<totfact> 0.12004795E+05</totfact>
</mgrwt>
</event>
<event>
 5    1  0.1239369E+001  0.9218810E+02  0.7546771E-02  0.1297638E+00
          1   -1    0    0  501    0  0.00000000000E+00  0.00000000000E+00  0.22816336394E+02  0.22816336394E+02  0.00000000000E+00 0. -1.
         -1   -1    0    0    0  501 -0.00000000000E+00 -0.00000000000E+00 -0.93120175401E+02  0.93120175401E+02  0.00000000000E+00 0.  1.
         23    2    1    2    0    0  0.00000000000E+00  0.00000000000E+00 -0.70303839007E+02  0.11593651179E+03  0.92188095696E+02 0.  0.
        -11    1    3    3    0    0 -0.33348772329E+02 -0.83637057458E+01 -0.73762112712E+02  0.81381456496E+02  0.00000000000E+00 0.  1.
         11    1    3    3    0    0  0.33348772329E+02  0.83637057458E+01  0.34582737052E+01  0.34555055299E+02  0.00000000000E+00 0. -1.
<mgrwt>
<rscale>  0 0.92188096E+02</rscale>
<asrwt>0</asrwt>
<pdfrwt beam="1">  1        1 0.35102056E-02 0.92188096E+02</pdfrwt>
<pdfrwt beam="2">  1       -1 0.14326181E-01 0.92188096E+02</pdfrwt>
<totfact> 0.80131236E+04</totfact>
</mgrwt>
</event>
<event>
 5    1  0.1239369E+001  0.9049504E+02  0.7546771E-02  0.1301657E+00
         -4   -1    0    0    0  501 -0.00000000000E+00  0.00000000000E+00  0.20241676915E+03  0.20241676915E+03  0.00000000000E+00 0.  1.
          4   -1    0    0  501    0  0.00000000000E+00 -0.00000000000E+00 -0.10114468010E+02  0.10114468010E+02  0.00000000000E+00 0. -1.
         23    2    1    2    0    0  0.00000000000E+00  0.00000000000E+00  0.19230230114E+03  0.21253123716E+03  0.90495037130E+02 0.  0.
        -11    1    3    3    0    0  0.35928123447E+02 -0.24530590439E+02  0.12536740799E+03  0.13270104336E+03  0.00000000000E+00 0.  1.
         11    1    3    3    0    0 -0.35928123447E+02  0.24530590439E+02  0.66934893149E+02  0.79830193803E+02  0.00000000000E+00 0. -1.
<mgrwt>
<rscale>  0 0.90495037E+02</rscale>
<asrwt>0</asrwt>
<pdfrwt beam="2">  1        4 0.15560722E-02 0.90495037E+02</pdfrwt>
<pdfrwt beam="1">  1       -4 0.31141038E-01 0.90495037E+02</pdfrwt>
<totfact> 0.21296411E+04</totfact>
</mgrwt>
</event>
<event>
 5    1  0.1239369E+001  0.8466997E+02  0.7546771E-02  0.1316298E+00
         -1   -1    0    0    0  501 -0.00000000000E+00  0.00000000000E+00  0.18875588042E+02  0.18875588042E+02  0.00000000000E+00 0.  1.
          1   -1    0    0  501    0  0.00000000000E+00 -0.00000000000E+00 -0.94950744534E+02  0.94950744534E+02  0.00000000000E+00 0. -1.
         23    2    1    2    0    0  0.00000000000E+00  0.00000000000E+00 -0.76075156491E+02  0.11382633258E+03  0.84669974327E+02 0.  0.
        -11    1    3    3    0    0 -0.24799551212E+02  0.33404665830E+02 -0.27506762797E+02  0.49874958036E+02  0.00000000000E+00 0.  1.
         11    1    3    3    0    0  0.24799551212E+02 -0.33404665830E+02 -0.48568393694E+02  0.63951374540E+02  0.00000000000E+00 0. -1.
<mgrwt>
<rscale>  0 0.84669974E+02</rscale>
<asrwt>0</asrwt>
<pdfrwt beam="2">  1        1 0.14607807E-01 0.84669974E+02</pdfrwt>
<pdfrwt beam="1">  1       -1 0.29039366E-02 0.84669974E+02</pdfrwt>
<totfact> 0.12661936E+05</totfact>
</mgrwt>
</event>
<event>
 5    1  0.1239369E+001  0.9061184E+02  0.7546771E-02  0.1301377E+00
          1   -1    0    0  501    0  0.00000000000E+00  0.00000000000E+00  0.11951744081E+03  0.11951744081E+03  0.00000000000E+00 0. -1.
         -1   -1    0    0    0  501 -0.00000000000E+00 -0.00000000000E+00 -0.17174284421E+02  0.17174284421E+02  0.00000000000E+00 0.  1.
         23    2    1    2    0    0  0.00000000000E+00  0.00000000000E+00  0.10234315639E+03  0.13669172523E+03  0.90611842975E+02 0.  0.
        -13    1    3    3    0    0  0.26480199479E+02  0.24941680835E+02  0.91911643067E+02  0.98848563665E+02  0.00000000000E+00 0. -1.
         13    1    3    3    0    0 -0.26480199479E+02 -0.24941680835E+02  0.10431513325E+02  0.37843161569E+02  0.00000000000E+00 0.  1.
<mgrwt>
<rscale>  0 0.90611843E+02</rscale>
<asrwt>0</asrwt>
<pdfrwt beam="1">  1        1 0.18387298E-01 0.90611843E+02</pdfrwt>
<pdfrwt beam="2">  1       -1 0.26421977E-02 0.90611843E+02</pdfrwt>
<totfact> 0.10949246E+05</totfact>
</mgrwt>
</event>
<event>
 5    1  0.1239369E+001  0.9089930E+02  0.7546771E-02  0.1300688E+00
         -1   -1    0    0    0  501 -0.00000000000E+00  0.00000000000E+00  0.14792257293E+03  0.14792257293E+03  0.00000000000E+00 0.  1.
          1   -1    0    0  501    0  0.00000000000E+00 -0.00000000000E+00 -0.13964539399E+02  0.13964539399E+02  0.00000000000E+00 0. -1.
         23    2    1    2    0    0  0.00000000000E+00  0.00000000000E+00  0.13395803353E+03  0.16188711233E+03  0.90899298077E+02 0.  0.
        -11    1    3    3    0    0 -0.76681664673E+01  0.26871861534E+02  0.31431254270E+01  0.28120756688E+02  0.00000000000E+00 0. -1.
         11    1    3    3    0    0  0.76681664673E+01 -0.26871861534E+02  0.13081490811E+03  0.13376635564E+03  0.00000000000E+00 0.  1.
<mgrwt>
<rscale>  0 0.90899298E+02</rscale>
<asrwt>0</asrwt>
<pdfrwt beam="2">  1        1 0.21483908E-02 0.90899298E+02</pdfrwt>
<pdfrwt beam="1">  1       -1 0.22757318E-01 0.90899298E+02</pdfrwt>
<totfact> 0.75627946E+04</totfact>
</mgrwt>
</event>
<event>
 5    1  0.1239369E+001  0.9022260E+02  0.7546771E-02  0.1302314E+00
         -3   -1    0    0    0  501 -0.00000000000E+00  0.00000000000E+00  0.23696273645E+03  0.23696273645E+03  0.00000000000E+00 0.  1.
          3   -1    0    0  501    0  0.00000000000E+00 -0.00000000000E+00 -0.85879718374E+01  0.85879718374E+01  0.00000000000E+00 0. -1.
         23    2    1    2    0    0  0.00000000000E+00  0.00000000000E+00  0.22837476461E+03  0.24555070829E+03  0.90222598215E+02 0.  0.
        -13    1    3    3    0    0 -0.18516653963E+02 -0.37473656617E+02  0.16036564203E+03  0.16572350635E+03  0.00000000000E+00 0.  1.
         13    1    3    3    0    0  0.18516653963E+02  0.37473656617E+02  0.68009122584E+02  0.79827201936E+02  0.00000000000E+00 0. -1.
<mgrwt>
<rscale>  0 0.90222598E+02</rscale>
<asrwt>0</asrwt>
<pdfrwt beam="2">  1        3 0.13212266E-02 0.90222598E+02</pdfrwt>
<pdfrwt beam="1">  1       -3 0.36455801E-01 0.90222598E+02</pdfrwt>
<totfact> 0.27052450E+04</totfact>
</mgrwt>
</event>
<event>
 5    1  0.1239369E+001  0.9067339E+02  0.7546771E-02  0.1301229E+00
          3   -1    0    0  501    0  0.00000000000E+00  0.00000000000E+00  0.47476632781E+02  0.47476632781E+02  0.00000000000E+00 0. -1.
         -3   -1    0    0    0  501 -0.00000000000E+00 -0.00000000000E+00 -0.43293210737E+02  0.43293210737E+02  0.00000000000E+00 0.  1.
         23    2    1    2    0    0  0.00000000000E+00  0.00000000000E+00  0.41834220435E+01  0.90769843518E+02  0.90673388997E+02 0.  0.
        -11    1    3    3    0    0 -0.11564193844E+02  0.25371590610E+02 -0.33694990711E+02  0.43735575775E+02  0.00000000000E+00 0.  1.
         11    1    3    3    0    0  0.11564193844E+02 -0.25371590610E+02  0.37878412754E+02  0.47034267743E+02  0.00000000000E+00 0. -1.
<mgrwt>
<rscale>  0 0.90673389E+02</rscale>
<asrwt>0</asrwt>
<pdfrwt beam="1">  1        3 0.73040973E-02 0.90673389E+02</pdfrwt>
<pdfrwt beam="2">  1       -3 0.66604940E-02 0.90673389E+02</pdfrwt>
<totfact> 0.35907030E+04</totfact>
</mgrwt>
</event>
<event>
 5    1  0.1239369E+001  0.9071588E+02  0.7546771E-02  0.1301127E+00
          1   -1    0    0  501    0  0.00000000000E+00  0.00000000000E+00  0.22376610404E+02  0.22376610404E+02  0.00000000000E+00 0. -1.
         -1   -1    0    0    0  501 -0.00000000000E+00 -0.00000000000E+00 -0.91941666590E+02  0.91941666590E+02  0.00000000000E+00 0.  1.
         23    2    1    2    0    0  0.00000000000E+00  0.00000000000E+00 -0.69565056186E+02  0.11431827699E+03  0.90715882914E+02 0.  0.
        -13    1    3    3    0    0  0.35040084774E+02  0.18253416458E+02 -0.62857900142E+02  0.74243588031E+02  0.00000000000E+00 0. -1.
         13    1    3    3    0    0 -0.35040084774E+02 -0.18253416458E+02 -0.67071560439E+01  0.40074688964E+02  0.00000000000E+00 0.  1.
<mgrwt>
<rscale>  0 0.90715883E+02</rscale>
<asrwt>0</asrwt>
<pdfrwt beam="1">  1        1 0.34425555E-02 0.90715883E+02</pdfrwt>
<pdfrwt beam="2">  1       -1 0.14144872E-01 0.90715883E+02</pdfrwt>
<totfact> 0.83709960E+04</totfact>
</mgrwt>
</event>
<event>
 5    1  0.1239369E+001  0.8449825E+02  0.7546771E-02  0.1316750E+00
          2   -1    0    0  501    0  0.00000000000E+00  0.00000000000E+00  0.62385535979E+02  0.62385535979E+02  0.00000000000E+00 0.  1.
         -2   -1    0    0    0  501 -0.00000000000E+00 -0.00000000000E+00 -0.28612214907E+02  0.28612214907E+02  0.00000000000E+00 0. -1.
         23    2    1    2    0    0  0.00000000000E+00  0.00000000000E+00  0.33773321072E+02  0.90997750886E+02  0.84498245248E+02 0.  0.
        -13    1    3    3    0    0 -0.11612516034E+02  0.35560651338E+02  0.38033187031E+02  0.53347293914E+02  0.00000000000E+00 0.  1.
         13    1    3    3    0    0  0.11612516034E+02 -0.35560651338E+02 -0.42598659583E+01  0.37650456972E+02  0.00000000000E+00 0. -1.
<mgrwt>
<rscale>  0 0.84498245E+02</rscale>
<asrwt>0</asrwt>
<pdfrwt beam="1">  1        2 0.95977748E-02 0.84498245E+02</pdfrwt>
<pdfrwt beam="2">  1       -2 0.44018792E-02 0.84498245E+02</pdfrwt>
<totfact> 0.13257217E+05</totfact>
</mgrwt>
</event>
<event>
 5    1  0.1239369E+001  0.9206348E+02  0.7546771E-02  0.1297930E+00
         -1   -1    0    0    0  501 -0.00000000000E+00  0.00000000000E+00  0.79960247513E+01  0.79960247513E+01  0.00000000000E+00 0.  1.
          1   -1    0    0  501    0  0.00000000000E+00 -0.00000000000E+00 -0.26499678858E+03  0.26499678858E+03  0.00000000000E+00 0. -1.
         23    2    1    2    0    0  0.00000000000E+00  0.00000000000E+00 -0.25700076383E+03  0.27299281333E+03  0.92063475504E+02 0.  0.
        -13    1    3    3    0    0 -0.32025046353E+02 -0.27676394179E+02 -0.74851616378E+02  0.85990411460E+02  0.00000000000E+00 0.  1.
         13    1    3    3    0    0  0.32025046353E+02  0.27676394179E+02 -0.18214914745E+03  0.18700240187E+03  0.00000000000E+00 0. -1.
<mgrwt>
<rscale>  0 0.92063476E+02</rscale>
<asrwt>0</asrwt>
<pdfrwt beam="2">  1        1 0.40768744E-01 0.92063476E+02</pdfrwt>
<pdfrwt beam="1">  1       -1 0.12301574E-02 0.92063476E+02</pdfrwt>
<totfact> 0.12189140E+05</totfact>
</mgrwt>
</event>
<event>
 5    1  0.1239369E+001  0.8456060E+02  0.7546771E-02  0.1316586E+00
         -3   -1    0    0    0  501 -0.00000000000E+00  0.00000000000E+00  0.52843554841E+02  0.52843554841E+02  0.00000000000E+00 0.  1.
          3   -1    0    0  501    0  0.00000000000E+00 -0.00000000000E+00 -0.33828606237E+02  0.33828606237E+02  0.00000000000E+00 0. -1.
         23    2    1    2    0    0  0.00000000000E+00  0.00000000000E+00  0.19014948604E+02  0.86672161079E+02  0.84560600965E+02 0.  0.
        -11    1    3    3    0    0  0.12931592615E+02 -0.71728599028E+00 -0.31745324456E+02  0.34285656062E+02  0.00000000000E+00 0. -1.
         11    1    3    3    0    0 -0.12931592615E+02  0.71728599028E+00  0.50760273060E+02  0.52386505017E+02  0.00000000000E+00 0.  1.
<mgrwt>
<rscale>  0 0.84560601E+02</rscale>
<asrwt>0</asrwt>
<pdfrwt beam="2">  1        3 0.52044010E-02 0.84560601E+02</pdfrwt>
<pdfrwt beam="1">  1       -3 0.81297777E-02 0.84560601E+02</pdfrwt>
<totfact> 0.43773031E+04</totfact>
</mgrwt>
</event>
<event>
 5    1  0.1239369E+001  0.9330197E+02  0.7546771E-02  0.1295047E+00
          1   -1    0    0  501    0  0.00000000000E+00  0.00000000000E+00  0.42599595101E+03  0.42599595101E+03  0.00000000000E+00 0. -1.
         -1   -1    0    0    0  501 -0.00000000000E+00 -0.00000000000E+00 -0.51087679593E+01  0.51087679593E+01  0.00000000000E+00 0.  1.
         23    2    1    2    0    0  0.00000000000E+00  0.00000000000E+00  0.42088718305E+03  0.43110471897E+03  0.93301971369E+02 0.  0.
        -11    1    3    3    0    0 -0.45245442611E+02 -0.53086591686E+01  0.25687534361E+03  0.26088364091E+03  0.00000000000E+00 0. -1.
         11    1    3    3    0    0  0.45245442611E+02  0.53086591686E+01  0.16401183944E+03  0.17022107806E+03  0.00000000000E+00 0.  1.
<mgrwt>
<rscale>  0 0.93301971E+02</rscale>
<asrwt>0</asrwt>
<pdfrwt beam="1">  1        1 0.65537811E-01 0.93301971E+02</pdfrwt>
<pdfrwt beam="2">  1       -1 0.78596464E-03 0.93301971E+02</pdfrwt>
<totfact> 0.12815293E+05</totfact>
</mgrwt>
</event>
<event>
 5    1  0.1239369E+001  0.8725993E+02  0.7546771E-02  0.1309626E+00
         -4   -1    0    0    0  501 -0.00000000000E+00  0.00000000000E+00  0.33401088687E+02  0.33401088687E+02  0.00000000000E+00 0.  1.
          4   -1    0    0  501    0  0.00000000000E+00 -0.00000000000E+00 -0.56991367667E+02  0.56991367667E+02  0.00000000000E+00 0. -1.
         23    2    1    2    0    0  0.00000000000E+00  0.00000000000E+00 -0.23590278981E+02  0.90392456354E+02  0.87259927248E+02 0.  0.
        -11    1    3    3    0    0 -0.13742715948E+02  0.18967510945E+02  0.26335858935E+02  0.35244945438E+02  0.00000000000E+00 0.  1.
         11    1    3    3    0    0  0.13742715948E+02 -0.18967510945E+02 -0.49926137916E+02  0.55147510916E+02  0.00000000000E+00 0. -1.
<mgrwt>
<rscale>  0 0.87259927E+02</rscale>
<asrwt>0</asrwt>
<pdfrwt beam="2">  1        4 0.87679026E-02 0.87259927E+02</pdfrwt>
<pdfrwt beam="1">  1       -4 0.51386291E-02 0.87259927E+02</pdfrwt>
<totfact> 0.30476521E+04</totfact>
</mgrwt>
</event>
<event>
 5    1  0.1239369E+001  0.9153323E+02  0.7546771E-02  0.1299181E+00
          1   -1    0    0  501    0  0.00000000000E+00  0.00000000000E+00  0.11924175835E+02  0.11924175835E+02  0.00000000000E+00 0. -1.
         -1   -1    0    0    0  501 -0.00000000000E+00 -0.00000000000E+00 -0.17565850417E+03  0.17565850417E+03  0.00000000000E+00 0.  1.
         23    2    1    2    0    0  0.00000000000E+00  0.00000000000E+00 -0.16373432834E+03  0.18758268001E+03  0.91533226549E+02 0.  0.
        -13    1    3    3    0    0  0.43615261491E+02 -0.81875904924E+01 -0.58931470595E+02  0.73771579213E+02  0.00000000000E+00 0. -1.
         13    1    3    3    0    0 -0.43615261491E+02  0.81875904924E+01 -0.10480285774E+03  0.11381110080E+03  0.00000000000E+00 0.  1.
<mgrwt>
<rscale>  0 0.91533227E+02</rscale>
<asrwt>0</asrwt>
<pdfrwt beam="1">  1        1 0.18344886E-02 0.91533227E+02</pdfrwt>
<pdfrwt beam="2">  1       -1 0.27024384E-01 0.91533227E+02</pdfrwt>
<totfact> 0.71202692E+04</totfact>
</mgrwt>
</event>
<event>
 5    1  0.1239369E+001  0.9130563E+02  0.7546771E-02  0.1299720E+00
          4   -1    0    0  501    0  0.00000000000E+00  0.00000000000E+00  0.42707584239E+02  0.42707584239E+02  0.00000000000E+00 0. -1.
         -4   -1    0    0    0  501 -0.00000000000E+00 -0.00000000000E+00 -0.48801153362E+02  0.48801153362E+02  0.00000000000E+00 0.  1.
         23    2    1    2    0    0  0.00000000000E+00  0.00000000000E+00 -0.60935691235E+01  0.91508737601E+02  0.91305626731E+02 0.  0.
        -13    1    3    3    0    0  0.32077596923E+02  0.16869064898E+02 -0.30868973863E+02  0.47607049082E+02  0.00000000000E+00 0.  1.
         13    1    3    3    0    0 -0.32077596923E+02 -0.16869064898E+02  0.24775404740E+02  0.43901688520E+02  0.00000000000E+00 0. -1.
<mgrwt>
<rscale>  0 0.91305627E+02</rscale>
<asrwt>0</asrwt>
<pdfrwt beam="1">  1        4 0.65703976E-02 0.91305627E+02</pdfrwt>
<pdfrwt beam="2">  1       -4 0.75078697E-02 0.91305627E+02</pdfrwt>
<totfact> 0.26891459E+04</totfact>
</mgrwt>
</event>
<event>
 5    1  0.1239369E+001  0.9328030E+02  0.7546771E-02  0.1295097E+00
          2   -1    0    0  501    0  0.00000000000E+00  0.00000000000E+00  0.70069795365E+01  0.70069795365E+01  0.00000000000E+00 0. -1.
         -2   -1    0    0    0  501 -0.00000000000E+00 -0.00000000000E+00 -0.31044808708E+03  0.31044808708E+03  0.00000000000E+00 0.  1.
         23    2    1    2    0    0  0.00000000000E+00  0.00000000000E+00 -0.30344110754E+03  0.31745506662E+03  0.93280295740E+02 0.  0.
        -13    1    3    3    0    0  0.14835722579E+02  0.42626801981E+02 -0.11171831775E+03  0.12049118405E+03  0.00000000000E+00 0.  1.
         13    1    3    3    0    0 -0.14835722579E+02 -0.42626801981E+02 -0.19172278979E+03  0.19696388257E+03  0.00000000000E+00 0. -1.
<mgrwt>
<rscale>  0 0.93280296E+02</rscale>
<asrwt>0</asrwt>
<pdfrwt beam="1">  1        2 0.10779968E-02 0.93280296E+02</pdfrwt>
<pdfrwt beam="2">  1       -2 0.47761246E-01 0.93280296E+02</pdfrwt>
<totfact> 0.47159953E+04</totfact>
</mgrwt>
</event>
<event>
 5    1  0.1239369E+001  0.9453956E+02  0.7546771E-02  0.1292216E+00
         -2   -1    0    0    0  501 -0.00000000000E+00  0.00000000000E+00  0.14801882817E+02  0.14801882817E+02  0.00000000000E+00 0.  1.
          2   -1    0    0  501    0  0.00000000000E+00 -0.00000000000E+00 -0.15095595049E+03  0.15095595049E+03  0.00000000000E+00 0. -1.
         23    2    1    2    0    0  0.00000000000E+00  0.00000000000E+00 -0.13615406767E+03  0.16575783331E+03  0.94539563988E+02 0.  0.
        -11    1    3    3    0    0  0.28928588165E+02  0.21027729546E+02 -0.12227137214E+03  0.12739433688E+03  0.00000000000E+00 0. -1.
         11    1    3    3    0    0 -0.28928588165E+02 -0.21027729546E+02 -0.13882695530E+02  0.38363496429E+02  0.00000000000E+00 0.  1.
<mgrwt>
<rscale>  0 0.94539564E+02</rscale>
<asrwt>0</asrwt>
<pdfrwt beam="2">  1        2 0.23223994E-01 0.94539564E+02</pdfrwt>
<pdfrwt beam="1">  1       -2 0.22772125E-02 0.94539564E+02</pdfrwt>
<totfact> 0.12695792E+05</totfact>
</mgrwt>
</event>
<event>
 5    1  0.1239369E+001  0.9397290E+02  0.7546771E-02  0.1293506E+00
          1   -1    0    0  501    0  0.00000000000E+00  0.00000000000E+00  0.25497207145E+03  0.25497207145E+03  0.00000000000E+00 0. -1.
         -1   -1    0    0    0  501 -0.00000000000E+00 -0.00000000000E+00 -0.86586999691E+01  0.86586999691E+01  0.00000000000E+00 0.  1.
         23    2    1    2    0    0  0.00000000000E+00  0.00000000000E+00  0.24631337148E+03  0.26363077142E+03  0.93972903907E+02 0.  0.
        -13    1    3    3    0    0  0.38950904126E+02  0.15457280366E+02  0.63537913762E+02  0.76112856561E+02  0.00000000000E+00 0.  1.
         13    1    3    3    0    0 -0.38950904126E+02 -0.15457280366E+02  0.18277545772E+03  0.18751791486E+03  0.00000000000E+00 0. -1.
<mgrwt>
<rscale>  0 0.93972904E+02</rscale>
<asrwt>0</asrwt>
<pdfrwt beam="1">  1        1 0.39226467E-01 0.93972904E+02</pdfrwt>
<pdfrwt beam="2">  1       -1 0.13321079E-02 0.93972904E+02</pdfrwt>
<totfact> 0.11450272E+05</totfact>
</mgrwt>
</event>
<event>
 5    1  0.1239369E+001  0.9121045E+02  0.7546771E-02  0.1299947E+00
          2   -1    0    0  501    0  0.00000000000E+00  0.00000000000E+00  0.64577151524E+02  0.64577151524E+02  0.00000000000E+00 0. -1.
         -2   -1    0    0    0  501 -0.00000000000E+00 -0.00000000000E+00 -0.32207000067E+02  0.32207000067E+02  0.00000000000E+00 0.  1.
         23    2    1    2    0    0  0.00000000000E+00  0.00000000000E+00  0.32370151458E+02  0.96784151591E+02  0.91210445091E+02 0.  0.
        -11    1    3    3    0    0  0.30170214233E+02  0.98575736676E+01 -0.18563953721E+02  0.36770014458E+02  0.00000000000E+00 0.  1.
         11    1    3    3    0    0 -0.30170214233E+02 -0.98575736676E+01  0.50934105178E+02  0.60014137133E+02  0.00000000000E+00 0. -1.
<mgrwt>
<rscale>  0 0.91210445E+02</rscale>
<asrwt>0</asrwt>
<pdfrwt beam="1">  1        2 0.99349464E-02 0.91210445E+02</pdfrwt>
<pdfrwt beam="2">  1       -2 0.49549231E-02 0.91210445E+02</pdfrwt>
<totfact> 0.10808530E+05</totfact>
</mgrwt>
</event>
<event>
 5    1  0.1239369E+001  0.9148254E+02  0.7546771E-02  0.1299301E+00
          2   -1    0    0  501    0  0.00000000000E+00  0.00000000000E+00  0.92298646213E+02  0.92298646213E+02  0.00000000000E+00 0. -1.
         -2   -1    0    0    0  501 -0.00000000000E+00 -0.00000000000E+00 -0.22668412006E+02  0.22668412006E+02  0.00000000000E+00 0.  1.
         23    2    1    2    0    0  0.00000000000E+00  0.00000000000E+00  0.69630234207E+02  0.11496705822E+03  0.91482539098E+02 0.  0.
        -11    1    3    3    0    0 -0.32900055575E+02  0.30729431073E+02  0.24640251632E+02  0.51321083303E+02  0.00000000000E+00 0.  1.
         11    1    3    3    0    0  0.32900055575E+02 -0.30729431073E+02  0.44989982575E+02  0.63645974916E+02  0.00000000000E+00 0. -1.
<mgrwt>
<rscale>  0 0.91482539E+02</rscale>
<asrwt>0</asrwt>
<pdfrwt beam="1">  1        2 0.14199792E-01 0.91482539E+02</pdfrwt>
<pdfrwt beam="2">  1       -2 0.34874480E-02 0.91482539E+02</pdfrwt>
<totfact> 0.11864789E+05</totfact>
</mgrwt>
</event>
<event>
 5    1  0.1239369E+001  0.8096252E+02  0.7546771E-02  0.1326342E+00
         -3   -1    0    0    0  501 -0.00000000000E+00  0.00000000000E+00  0.45051796503E+02  0.45051796503E+02  0.00000000000E+00 0.  1.
          3   -1    0    0  501    0  0.00000000000E+00 -0.00000000000E+00 -0.36374406147E+02  0.36374406147E+02  0.00000000000E+00 0. -1.
         23    2    1    2    0    0  0.00000000000E+00  0.00000000000E+00  0.86773903562E+01  0.81426202650E+02  0.80962518331E+02 0.  0.
        -13    1    3    3    0    0 -0.24833581902E+02  0.29383405603E+02 -0.83287178761E+01  0.39363166239E+02  0.00000000000E+00 0. -1.
         13    1    3    3    0    0  0.24833581902E+02 -0.29383405603E+02  0.17006108232E+02  0.42063036411E+02  0.00000000000E+00 0.  1.
<mgrwt>
<rscale>  0 0.80962518E+02</rscale>
<asrwt>0</asrwt>
<pdfrwt beam="2">  1        3 0.55960625E-02 0.80962518E+02</pdfrwt>
<pdfrwt beam="1">  1       -3 0.69310456E-02 0.80962518E+02</pdfrwt>
<totfact> 0.49795364E+04</totfact>
</mgrwt>
</event>
<event>
 5    1  0.1239369E+001  0.9103919E+02  0.7546771E-02  0.1300354E+00
         -2   -1    0    0    0  501 -0.00000000000E+00  0.00000000000E+00  0.14183280299E+02  0.14183280299E+02  0.00000000000E+00 0.  1.
          2   -1    0    0  501    0  0.00000000000E+00 -0.00000000000E+00 -0.14608986842E+03  0.14608986842E+03  0.00000000000E+00 0. -1.
         23    2    1    2    0    0  0.00000000000E+00  0.00000000000E+00 -0.13190658813E+03  0.16027314872E+03  0.91039190521E+02 0.  0.
        -11    1    3    3    0    0 -0.18911122448E+02 -0.35924393904E+02 -0.29709485733E+02  0.50307516060E+02  0.00000000000E+00 0.  1.
         11    1    3    3    0    0  0.18911122448E+02  0.35924393904E+02 -0.10219710239E+03  0.10996563266E+03  0.00000000000E+00 0. -1.
<mgrwt>
<rscale>  0 0.91039191E+02</rscale>
<asrwt>0</asrwt>
<pdfrwt beam="2">  1        2 0.22475365E-01 0.91039191E+02</pdfrwt>
<pdfrwt beam="1">  1       -2 0.21820431E-02 0.91039191E+02</pdfrwt>
<totfact> 0.13913336E+05</totfact>
</mgrwt>
</event>
<event>
 5    1  0.1239369E+001  0.8883708E+02  0.7546771E-02  0.1305693E+00
         -4   -1    0    0    0  501 -0.00000000000E+00  0.00000000000E+00  0.12264813864E+03  0.12264813864E+03  0.00000000000E+00 0.  1.
          4   -1    0    0  501    0  0.00000000000E+00 -0.00000000000E+00 -0.16086722582E+02  0.16086722582E+02  0.00000000000E+00 0. -1.
         23    2    1    2    0    0  0.00000000000E+00  0.00000000000E+00  0.10656141606E+03  0.13873486123E+03  0.88837077429E+02 0.  0.
        -11    1    3    3    0    0  0.19395586214E+02  0.25576271545E+02  0.10122883867E+03  0.10619610261E+03  0.00000000000E+00 0.  1.
         11    1    3    3    0    0 -0.19395586214E+02 -0.25576271545E+02  0.53325773919E+01  0.32538758617E+02  0.00000000000E+00 0. -1.
<mgrwt>
<rscale>  0 0.88837077E+02</rscale>
<asrwt>0</asrwt>
<pdfrwt beam="2">  1        4 0.24748805E-02 0.88837077E+02</pdfrwt>
<pdfrwt beam="1">  1       -4 0.18868944E-01 0.88837077E+02</pdfrwt>
<totfact> 0.26004761E+04</totfact>
</mgrwt>
</event>
<event>
 5    1  0.1239369E+001  0.9111784E+02  0.7546771E-02  0.1300167E+00
          3   -1    0    0  501    0  0.00000000000E+00  0.00000000000E+00  0.87151425331E+02  0.87151425331E+02  0.00000000000E+00 0. -1.
         -3   -1    0    0    0  501 -0.00000000000E+00 -0.00000000000E+00 -0.23816193639E+02  0.23816193639E+02  0.00000000000E+00 0.  1.
         23    2    1    2    0    0  0.00000000000E+00  0.00000000000E+00  0.63335231692E+02  0.11096761897E+03  0.91117840660E+02 0.  0.
        -13    1    3    3    0    0  0.39750499944E+02  0.22055000761E+02  0.27995868287E+02  0.53388144240E+02  0.00000000000E+00 0.  1.
         13    1    3    3    0    0 -0.39750499944E+02 -0.22055000761E+02  0.35339363405E+02  0.57579474730E+02  0.00000000000E+00 0. -1.
<mgrwt>
<rscale>  0 0.91117841E+02</rscale>
<asrwt>0</asrwt>
<pdfrwt beam="1">  1        3 0.13407911E-01 0.91117841E+02</pdfrwt>
<pdfrwt beam="2">  1       -3 0.36640298E-02 0.91117841E+02</pdfrwt>
<totfact> 0.33935592E+04</totfact>
</mgrwt>
</event>
<event>
 5    1  0.1239369E+001  0.8979434E+02  0.7546771E-02  0.1303350E+00
          2   -1    0    0  501    0  0.00000000000E+00  0.00000000000E+00  0.12640589623E+03  0.12640589623E+03  0.00000000000E+00 0. -1.
         -2   -1    0    0    0  501 -0.00000000000E+00 -0.00000000000E+00 -0.15946692684E+02  0.15946692684E+02  0.00000000000E+00 0.  1.
         23    2    1    2    0    0  0.00000000000E+00  0.00000000000E+00  0.11045920354E+03  0.14235258891E+03  0.89794342374E+02 0.  0.
        -11    1    3    3    0    0  0.34904016867E+02 -0.12409062631E+02  0.15014962630E+02  0.39971544024E+02  0.00000000000E+00 0.  1.
         11    1    3    3    0    0 -0.34904016867E+02  0.12409062631E+02  0.95444240911E+02  0.10238104489E+03  0.00000000000E+00 0. -1.
<mgrwt>
<rscale>  0 0.89794342E+02</rscale>
<asrwt>0</asrwt>
<pdfrwt beam="1">  1        2 0.19447060E-01 0.89794342E+02</pdfrwt>
<pdfrwt beam="2">  1       -2 0.24533374E-02 0.89794342E+02</pdfrwt>
<totfact> 0.13767795E+05</totfact>
</mgrwt>
</event>
<event>
 5    1  0.1239369E+001  0.9114646E+02  0.7546771E-02  0.1300099E+00
          1   -1    0    0  501    0  0.00000000000E+00  0.00000000000E+00  0.22248549865E+03  0.22248549865E+03  0.00000000000E+00 0. -1.
         -1   -1    0    0    0  501 -0.00000000000E+00 -0.00000000000E+00 -0.93350774570E+01  0.93350774570E+01  0.00000000000E+00 0.  1.
         23    2    1    2    0    0  0.00000000000E+00  0.00000000000E+00  0.21315042119E+03  0.23182057611E+03  0.91146461543E+02 0.  0.
        -13    1    3    3    0    0  0.13786707290E+02 -0.43437439333E+02  0.10609986784E+03  0.11547322802E+03  0.00000000000E+00 0.  1.
         13    1    3    3    0    0 -0.13786707290E+02  0.43437439333E+02  0.10705055336E+03  0.11634734809E+03  0.00000000000E+00 0. -1.
<mgrwt>
<rscale>  0 0.91146462E+02</rscale>
<asrwt>0</asrwt>
<pdfrwt beam="1">  1        1 0.34228534E-01 0.91146462E+02</pdfrwt>
<pdfrwt beam="2">  1       -1 0.14361659E-02 0.91146462E+02</pdfrwt>
<totfact> 0.12099609E+05</totfact>
</mgrwt>
</event>
<event>
 5    1  0.1239369E+001  0.9076855E+02  0.7546771E-02  0.1301001E+00
         -3   -1    0    0    0  501 -0.00000000000E+00  0.00000000000E+00  0.60036271135E+02  0.60036271135E+02  0.00000000000E+00 0.  1.
          3   -1    0    0  501    0  0.00000000000E+00 -0.00000000000E+00 -0.34308134829E+02  0.34308134829E+02  0.00000000000E+00 0. -1.
         23    2    1    2    0    0  0.00000000000E+00  0.00000000000E+00  0.25728136306E+02  0.94344405963E+02  0.90768551485E+02 0.  0.
        -11    1    3    3    0    0  0.88872537982E+01  0.44497089119E+02  0.11958979486E+02  0.46925381304E+02  0.00000000000E+00 0.  1.
         11    1    3    3    0    0 -0.88872537982E+01 -0.44497089119E+02  0.13769156820E+02  0.47419024660E+02  0.00000000000E+00 0. -1.
<mgrwt>
<rscale>  0 0.90768551E+02</rscale>
<asrwt>0</asrwt>
<pdfrwt beam="2">  1        3 0.52781746E-02 0.90768551E+02</pdfrwt>
<pdfrwt beam="1">  1       -3 0.92363494E-02 0.90768551E+02</pdfrwt>
<totfact> 0.35528422E+04</totfact>
</mgrwt>
</event>
<event>
 5    1  0.1239369E+001  0.1098986E+03  0.7546771E-02  0.1260758E+00
         -1   -1    0    0    0  501 -0.00000000000E+00  0.00000000000E+00  0.60922422048E+02  0.60922422048E+02  0.00000000000E+00 0.  1.
          1   -1    0    0  501    0  0.00000000000E+00 -0.00000000000E+00 -0.49561785057E+02  0.49561785057E+02  0.00000000000E+00 0. -1.
         23    2    1    2    0    0  0.00000000000E+00  0.00000000000E+00  0.11360636991E+02  0.11048420711E+03  0.10989857118E+03 0.  0.
        -11    1    3    3    0    0  0.21922084103E+00  0.34365923548E+02  0.48784891460E+02  0.59674369656E+02  0.00000000000E+00 0.  1.
         11    1    3    3    0    0 -0.21922084103E+00 -0.34365923548E+02 -0.37424254469E+02  0.50809837450E+02  0.00000000000E+00 0. -1.
<mgrwt>
<rscale>  0 0.10989857E+03</rscale>
<asrwt>0</asrwt>
<pdfrwt beam="2">  1        1 0.76248901E-02 0.10989857E+03</pdfrwt>
<pdfrwt beam="1">  1       -1 0.93726802E-02 0.10989857E+03</pdfrwt>
<totfact> 0.55085826E+04</totfact>
</mgrwt>
</event>
<event>
 5    1  0.1239369E+001  0.7769922E+02  0.7546771E-02  0.1335710E+00
          2   -1    0    0  501    0  0.00000000000E+00  0.00000000000E+00  0.55622262355E+01  0.55622262355E+01  0.00000000000E+00 0. -1.
         -2   -1    0    0    0  501 -0.00000000000E+00 -0.00000000000E+00 -0.27134675685E+03  0.27134675685E+03  0.00000000000E+00 0.  1.
         23    2    1    2    0    0  0.00000000000E+00  0.00000000000E+00 -0.26578453062E+03  0.27690898309E+03  0.77699216209E+02 0.  0.
        -13    1    3    3    0    0  0.95084795505E+01  0.34387935035E+02 -0.78102563541E+02  0.85865893643E+02  0.00000000000E+00 0.  1.
         13    1    3    3    0    0 -0.95084795505E+01 -0.34387935035E+02 -0.18768196708E+03  0.19104308945E+03  0.00000000000E+00 0. -1.
<mgrwt>
<rscale>  0 0.77699216E+02</rscale>
<asrwt>0</asrwt>
<pdfrwt beam="1">  1        2 0.85572695E-03 0.77699216E+02</pdfrwt>
<pdfrwt beam="2">  1       -2 0.41745663E-01 0.77699216E+02</pdfrwt>
<totfact> 0.81122681E+04</totfact>
</mgrwt>
</event>
<event>
 5    1  0.1239369E+001  0.8862404E+02  0.7546771E-02  0.1306218E+00
          3   -1    0    0  501    0  0.00000000000E+00  0.00000000000E+00  0.81995143027E+02  0.81995143027E+02  0.00000000000E+00 0. -1.
         -3   -1    0    0    0  501 -0.00000000000E+00 -0.00000000000E+00 -0.23947213998E+02  0.23947213998E+02  0.00000000000E+00 0.  1.
         23    2    1    2    0    0  0.00000000000E+00  0.00000000000E+00  0.58047929029E+02  0.10594235703E+03  0.88624042717E+02 0.  0.
        -13    1    3    3    0    0 -0.89630763619E+00  0.44287062681E+02  0.30442406144E+02  0.53748370953E+02  0.00000000000E+00 0. -1.
         13    1    3    3    0    0  0.89630763619E+00 -0.44287062681E+02  0.27605522885E+02  0.52193986072E+02  0.00000000000E+00 0.  1.
<mgrwt>
<rscale>  0 0.88624043E+02</rscale>
<asrwt>0</asrwt>
<pdfrwt beam="1">  1        3 0.12614637E-01 0.88624043E+02</pdfrwt>
<pdfrwt beam="2">  1       -3 0.36841868E-02 0.88624043E+02</pdfrwt>
<totfact> 0.36975896E+04</totfact>
</mgrwt>
</event>
<event>
 5    1  0.1239369E+001  0.9075396E+02  0.7546771E-02  0.1301036E+00
         -1   -1    0    0    0  501 -0.00000000000E+00  0.00000000000E+00  0.31289317185E+02  0.31289317185E+02  0.00000000000E+00 0.  1.
          1   -1    0    0  501    0  0.00000000000E+00 -0.00000000000E+00 -0.65807448984E+02  0.65807448984E+02  0.00000000000E+00 0. -1.
         23    2    1    2    0    0  0.00000000000E+00  0.00000000000E+00 -0.34518131799E+02  0.97096766169E+02  0.90753956264E+02 0.  0.
        -11    1    3    3    0    0  0.44432280881E+00 -0.39328675851E+02  0.69528106209E+01  0.39941003274E+02  0.00000000000E+00 0.  1.
         11    1    3    3    0    0 -0.44432280881E+00  0.39328675851E+02 -0.41470942420E+02  0.57155762895E+02  0.00000000000E+00 0. -1.
<mgrwt>
<rscale>  0 0.90753956E+02</rscale>
<asrwt>0</asrwt>
<pdfrwt beam="2">  1        1 0.10124223E-01 0.90753956E+02</pdfrwt>
<pdfrwt beam="1">  1       -1 0.48137412E-02 0.90753956E+02</pdfrwt>
<totfact> 0.98998281E+04</totfact>
</mgrwt>
</event>
<event>
 5    1  0.1239369E+001  0.9012238E+02  0.7546771E-02  0.1302556E+00
          1   -1    0    0  501    0  0.00000000000E+00  0.00000000000E+00  0.36146176030E+02  0.36146176030E+02  0.00000000000E+00 0. -1.
         -1   -1    0    0    0  501 -0.00000000000E+00 -0.00000000000E+00 -0.56174980976E+02  0.56174980976E+02  0.00000000000E+00 0.  1.
         23    2    1    2    0    0  0.00000000000E+00  0.00000000000E+00 -0.20028804946E+02  0.92321157006E+02  0.90122377927E+02 0.  0.
        -11    1    3    3    0    0 -0.41645653997E+02  0.11847332089E+02 -0.22800551026E+02  0.48934496028E+02  0.00000000000E+00 0.  1.
         11    1    3    3    0    0  0.41645653997E+02 -0.11847332089E+02  0.27717460804E+01  0.43386660977E+02  0.00000000000E+00 0. -1.
<mgrwt>
<rscale>  0 0.90122378E+02</rscale>
<asrwt>0</asrwt>
<pdfrwt beam="1">  1        1 0.55609502E-02 0.90122378E+02</pdfrwt>
<pdfrwt beam="2">  1       -1 0.86423048E-02 0.90122378E+02</pdfrwt>
<totfact> 0.92261204E+04</totfact>
</mgrwt>
</event>
<event>
 5    1  0.1239369E+001  0.9109758E+02  0.7546771E-02  0.1300215E+00
         -2   -1    0    0    0  501 -0.00000000000E+00  0.00000000000E+00  0.23720994712E+02  0.23720994712E+02  0.00000000000E+00 0.  1.
          2   -1    0    0  501    0  0.00000000000E+00 -0.00000000000E+00 -0.87462275690E+02  0.87462275690E+02  0.00000000000E+00 0. -1.
         23    2    1    2    0    0  0.00000000000E+00  0.00000000000E+00 -0.63741280978E+02  0.11118327040E+03  0.91097577995E+02 0.  0.
        -13    1    3    3    0    0 -0.44403243542E+01  0.17085111135E+02  0.19376302964E+02  0.26211803055E+02  0.00000000000E+00 0.  1.
         13    1    3    3    0    0  0.44403243542E+01 -0.17085111135E+02 -0.83117583942E+02  0.84971467347E+02  0.00000000000E+00 0. -1.
<mgrwt>
<rscale>  0 0.91097578E+02</rscale>
<asrwt>0</asrwt>
<pdfrwt beam="2">  1        2 0.13455735E-01 0.91097578E+02</pdfrwt>
<pdfrwt beam="1">  1       -2 0.36493838E-02 0.91097578E+02</pdfrwt>
<totfact> 0.11814560E+05</totfact>
</mgrwt>
</event>
<event>
 5    1  0.1239369E+001  0.9023922E+02  0.7546771E-02  0.1302273E+00
         -1   -1    0    0    0  501 -0.00000000000E+00  0.00000000000E+00  0.42861283743E+02  0.42861283743E+02  0.00000000000E+00 0.  1.
          1   -1    0    0  501    0  0.00000000000E+00 -0.00000000000E+00 -0.47496930497E+02  0.47496930497E+02  0.00000000000E+00 0. -1.
         23    2    1    2    0    0  0.00000000000E+00  0.00000000000E+00 -0.46356467541E+01  0.90358214240E+02  0.90239224618E+02 0.  0.
        -11    1    3    3    0    0  0.64354207877E+01 -0.13954620839E+02  0.40160199890E+02  0.42999857426E+02  0.00000000000E+00 0.  1.
         11    1    3    3    0    0 -0.64354207877E+01  0.13954620839E+02 -0.44795846644E+02  0.47358356813E+02  0.00000000000E+00 0. -1.
<mgrwt>
<rscale>  0 0.90239225E+02</rscale>
<asrwt>0</asrwt>
<pdfrwt beam="2">  1        1 0.73072201E-02 0.90239225E+02</pdfrwt>
<pdfrwt beam="1">  1       -1 0.65940437E-02 0.90239225E+02</pdfrwt>
<totfact> 0.95773491E+04</totfact>
</mgrwt>
</event>
<event>
 5    1  0.1239369E+001  0.9244705E+02  0.7546771E-02  0.1297032E+00
          1   -1    0    0  501    0  0.00000000000E+00  0.00000000000E+00  0.14739043813E+02  0.14739043813E+02  0.00000000000E+00 0. -1.
         -1   -1    0    0    0  501 -0.00000000000E+00 -0.00000000000E+00 -0.14496289334E+03  0.14496289334E+03  0.00000000000E+00 0.  1.
         23    2    1    2    0    0  0.00000000000E+00  0.00000000000E+00 -0.13022384952E+03  0.15970193715E+03  0.92447053736E+02 0.  0.
        -13    1    3    3    0    0  0.86595306322E+01  0.45404577091E+02 -0.65503363871E+02  0.80170155108E+02  0.00000000000E+00 0. -1.
         13    1    3    3    0    0 -0.86595306322E+01 -0.45404577091E+02 -0.64720485652E+02  0.79531782041E+02  0.00000000000E+00 0.  1.
<mgrwt>
<rscale>  0 0.92447054E+02</rscale>
<asrwt>0</asrwt>
<pdfrwt beam="1">  1        1 0.22675453E-02 0.92447054E+02</pdfrwt>
<pdfrwt beam="2">  1       -1 0.22301983E-01 0.92447054E+02</pdfrwt>
<totfact> 0.72721789E+04</totfact>
</mgrwt>
</event>
<event>
 5    1  0.1239369E+001  0.8928365E+02  0.7546771E-02  0.1304596E+00
         -2   -1    0    0    0  501 -0.00000000000E+00  0.00000000000E+00  0.29890319238E+02  0.29890319238E+02  0.00000000000E+00 0.  1.
          2   -1    0    0  501    0  0.00000000000E+00 -0.00000000000E+00 -0.66673518270E+02  0.66673518270E+02  0.00000000000E+00 0. -1.
         23    2    1    2    0    0  0.00000000000E+00  0.00000000000E+00 -0.36783199032E+02  0.96563837509E+02  0.89283654626E+02 0.  0.
        -13    1    3    3    0    0  0.30408875112E+02 -0.30465048430E+02 -0.55912701710E+01  0.43406003773E+02  0.00000000000E+00 0.  1.
         13    1    3    3    0    0 -0.30408875112E+02  0.30465048430E+02 -0.31191928861E+02  0.53157833736E+02  0.00000000000E+00 0. -1.
<mgrwt>
<rscale>  0 0.89283655E+02</rscale>
<asrwt>0</asrwt>
<pdfrwt beam="2">  1        2 0.10257464E-01 0.89283655E+02</pdfrwt>
<pdfrwt beam="1">  1       -2 0.45985107E-02 0.89283655E+02</pdfrwt>
<totfact> 0.11574359E+05</totfact>
</mgrwt>
</event>
<event>
 5    1  0.1239369E+001  0.9109422E+02  0.7546771E-02  0.1300223E+00
         -1   -1    0    0    0  501 -0.00000000000E+00  0.00000000000E+00  0.43908941385E+02  0.43908941385E+02  0.00000000000E+00 0.  1.
          1   -1    0    0  501    0  0.00000000000E+00 -0.00000000000E+00 -0.47246396904E+02  0.47246396904E+02  0.00000000000E+00 0. -1.
         23    2    1    2    0    0  0.00000000000E+00  0.00000000000E+00 -0.33374555188E+01  0.91155338289E+02  0.91094220944E+02 0.  0.
        -13    1    3    3    0    0 -0.94070989659E+01 -0.29294075575E+02 -0.35275525891E+02  0.46808109358E+02  0.00000000000E+00 0. -1.
         13    1    3    3    0    0  0.94070989659E+01  0.29294075575E+02  0.31938070373E+02  0.44347228931E+02  0.00000000000E+00 0.  1.
<mgrwt>
<rscale>  0 0.91094221E+02</rscale>
<asrwt>0</asrwt>
<pdfrwt beam="2">  1        1 0.72686764E-02 0.91094221E+02</pdfrwt>
<pdfrwt beam="1">  1       -1 0.67552218E-02 0.91094221E+02</pdfrwt>
<totfact> 0.93206691E+04</totfact>
</mgrwt>
</event>
<event>
 5    1  0.1239369E+001  0.9147374E+02  0.7546771E-02  0.1299322E+00
          2   -1    0    0  501    0  0.00000000000E+00  0.00000000000E+00  0.54495128625E+02  0.54495128625E+02  0.00000000000E+00 0. -1.
         -2   -1    0    0    0  501 -0.00000000000E+00 -0.00000000000E+00 -0.38386203131E+02  0.38386203131E+02  0.00000000000E+00 0.  1.
         23    2    1    2    0    0  0.00000000000E+00  0.00000000000E+00  0.16108925493E+02  0.92881331756E+02  0.91473735620E+02 0.  0.
        -13    1    3    3    0    0  0.31141516599E+02  0.23300857808E+02  0.32490045006E+02  0.50678664694E+02  0.00000000000E+00 0.  1.
         13    1    3    3    0    0 -0.31141516599E+02 -0.23300857808E+02 -0.16381119513E+02  0.42202667062E+02  0.00000000000E+00 0. -1.
<mgrwt>
<rscale>  0 0.91473736E+02</rscale>
<asrwt>0</asrwt>
<pdfrwt beam="1">  1        2 0.83838659E-02 0.91473736E+02</pdfrwt>
<pdfrwt beam="2">  1       -2 0.59055698E-02 0.91473736E+02</pdfrwt>
<totfact> 0.10243825E+05</totfact>
</mgrwt>
</event>
<event>
 5    1  0.1239369E+001  0.6785270E+02  0.7546771E-02  0.1367551E+00
         -1   -1    0    0    0  501 -0.00000000000E+00  0.00000000000E+00  0.77245730743E+01  0.77245730743E+01  0.00000000000E+00 0.  1.
          1   -1    0    0  501    0  0.00000000000E+00 -0.00000000000E+00 -0.14900462083E+03  0.14900462083E+03  0.00000000000E+00 0. -1.
         23    2    1    2    0    0  0.00000000000E+00  0.00000000000E+00 -0.14128004775E+03  0.15672919390E+03  0.67852695805E+02 0.  0.
        -13    1    3    3    0    0 -0.26089005606E+02  0.19188981700E+02 -0.47295291255E+02  0.57321006683E+02  0.00000000000E+00 0. -1.
         13    1    3    3    0    0  0.26089005606E+02 -0.19188981700E+02 -0.93984756500E+02  0.99408187221E+02  0.00000000000E+00 0.  1.
<mgrwt>
<rscale>  0 0.67852696E+02</rscale>
<asrwt>0</asrwt>
<pdfrwt beam="2">  1        1 0.22923788E-01 0.67852696E+02</pdfrwt>
<pdfrwt beam="1">  1       -1 0.11883958E-02 0.67852696E+02</pdfrwt>
<totfact> 0.24508298E+05</totfact>
</mgrwt>
</event>
<event>
 5    1  0.1239369E+001  0.9031131E+02  0.7546771E-02  0.1302100E+00
         -1   -1    0    0    0  501 -0.00000000000E+00  0.00000000000E+00  0.39477334655E+03  0.39477334655E+03  0.00000000000E+00 0.  1.
          1   -1    0    0  501    0  0.00000000000E+00 -0.00000000000E+00 -0.51650732703E+01  0.51650732703E+01  0.00000000000E+00 0. -1.
         23    2    1    2    0    0  0.00000000000E+00  0.00000000000E+00  0.38960827327E+03  0.39993841982E+03  0.90311311807E+02 0.  0.
        -11    1    3    3    0    0  0.33495192700E+02 -0.30275977022E+02  0.19784187176E+03  0.20292848233E+03  0.00000000000E+00 0.  1.
         11    1    3    3    0    0 -0.33495192700E+02  0.30275977022E+02  0.19176640152E+03  0.19700993749E+03  0.00000000000E+00 0. -1.
<mgrwt>
<rscale>  0 0.90311312E+02</rscale>
<asrwt>0</asrwt>
<pdfrwt beam="2">  1        1 0.79462697E-03 0.90311312E+02</pdfrwt>
<pdfrwt beam="1">  1       -1 0.60734337E-01 0.90311312E+02</pdfrwt>
<totfact> 0.54999364E+04</totfact>
</mgrwt>
</event>
<event>
 5    1  0.1239369E+001  0.9230168E+02  0.7546771E-02  0.1297372E+00
         -2   -1    0    0    0  501 -0.00000000000E+00  0.00000000000E+00  0.89715425331E+02  0.89715425331E+02  0.00000000000E+00 0.  1.
          2   -1    0    0  501    0  0.00000000000E+00 -0.00000000000E+00 -0.23740621701E+02  0.23740621701E+02  0.00000000000E+00 0. -1.
         23    2    1    2    0    0  0.00000000000E+00  0.00000000000E+00  0.65974803631E+02  0.11345604703E+03  0.92301678717E+02 0.  0.
        -11    1    3    3    0    0 -0.92082279891E+01 -0.24010306710E+02  0.80092925177E+02  0.84119931969E+02  0.00000000000E+00 0.  1.
         11    1    3    3    0    0  0.92082279891E+01  0.24010306710E+02 -0.14118121546E+02  0.29336115063E+02  0.00000000000E+00 0. -1.
<mgrwt>
<rscale>  0 0.92301679E+02</rscale>
<asrwt>0</asrwt>
<pdfrwt beam="2">  1        2 0.36524034E-02 0.92301679E+02</pdfrwt>
<pdfrwt beam="1">  1       -2 0.13802373E-01 0.92301679E+02</pdfrwt>
<totfact> 0.79915991E+04</totfact>
</mgrwt>
</event>
<event>
 5    1  0.1239369E+001  0.9020482E+02  0.7546771E-02  0.1302356E+00
         -3   -1    0    0    0  501 -0.00000000000E+00  0.00000000000E+00  0.20542408519E+03  0.20542408519E+03  0.00000000000E+00 0.  1.
          3   -1    0    0  501    0  0.00000000000E+00 -0.00000000000E+00 -0.99025746253E+01  0.99025746253E+01  0.00000000000E+00 0. -1.
         23    2    1    2    0    0  0.00000000000E+00  0.00000000000E+00  0.19552151057E+03  0.21532665982E+03  0.90204818795E+02 0.  0.
        -13    1    3    3    0    0 -0.33973416441E+02  0.21380767690E+02  0.48671616911E+02  0.63089274401E+02  0.00000000000E+00 0.  1.
         13    1    3    3    0    0  0.33973416441E+02 -0.21380767690E+02  0.14684989366E+03  0.15223738542E+03  0.00000000000E+00 0. -1.
<mgrwt>
<rscale>  0 0.90204819E+02</rscale>
<asrwt>0</asrwt>
<pdfrwt beam="2">  1        3 0.15234732E-02 0.90204819E+02</pdfrwt>
<pdfrwt beam="1">  1       -3 0.31603702E-01 0.90204819E+02</pdfrwt>
<totfact> 0.28534154E+04</totfact>
</mgrwt>
</event>
<event>
 5    1  0.1239369E+001  0.9098076E+02  0.7546771E-02  0.1300494E+00
         -2   -1    0    0    0  501 -0.00000000000E+00  0.00000000000E+00  0.26836605922E+02  0.26836605922E+02  0.00000000000E+00 0. -1.
          2   -1    0    0  501    0  0.00000000000E+00 -0.00000000000E+00 -0.77110154835E+02  0.77110154835E+02  0.00000000000E+00 0.  1.
         23    2    1    2    0    0  0.00000000000E+00  0.00000000000E+00 -0.50273548913E+02  0.10394676076E+03  0.90980763634E+02 0.  0.
        -11    1    3    3    0    0 -0.39980396242E+02  0.27558534810E+01 -0.49729974417E+02  0.63867810105E+02  0.00000000000E+00 0.  1.
         11    1    3    3    0    0  0.39980396242E+02 -0.27558534810E+01 -0.54357449590E+00  0.40078950651E+02  0.00000000000E+00 0. -1.
<mgrwt>
<rscale>  0 0.90980764E+02</rscale>
<asrwt>0</asrwt>
<pdfrwt beam="2">  1        2 0.11863101E-01 0.90980764E+02</pdfrwt>
<pdfrwt beam="1">  1       -2 0.41287086E-02 0.90980764E+02</pdfrwt>
<totfact> 0.11434245E+05</totfact>
</mgrwt>
</event>
<event>
 5    1  0.1239369E+001  0.8978518E+02  0.7546771E-02  0.1303373E+00
          1   -1    0    0  501    0  0.00000000000E+00  0.00000000000E+00  0.75132971572E+01  0.75132971572E+01  0.00000000000E+00 0. -1.
         -1   -1    0    0    0  501 -0.00000000000E+00 -0.00000000000E+00 -0.26823704465E+03  0.26823704465E+03  0.00000000000E+00 0.  1.
         23    2    1    2    0    0  0.00000000000E+00  0.00000000000E+00 -0.26072374749E+03  0.27575034180E+03  0.89785179735E+02 0.  0.
        -13    1    3    3    0    0 -0.43077853943E+02 -0.77795096679E+01 -0.16093903803E+03  0.16678607926E+03  0.00000000000E+00 0.  1.
         13    1    3    3    0    0  0.43077853943E+02  0.77795096679E+01 -0.99784709458E+02  0.10896426255E+03  0.00000000000E+00 0. -1.
<mgrwt>
<rscale>  0 0.89785180E+02</rscale>
<asrwt>0</asrwt>
<pdfrwt beam="1">  1        1 0.11558918E-02 0.89785180E+02</pdfrwt>
<pdfrwt beam="2">  1       -1 0.41267241E-01 0.89785180E+02</pdfrwt>
<totfact> 0.65780475E+04</totfact>
</mgrwt>
</event>
<event>
 5    1  0.1239369E+001  0.9049965E+02  0.7546771E-02  0.1301646E+00
          3   -1    0    0  501    0  0.00000000000E+00  0.00000000000E+00  0.16235415272E+03  0.16235415272E+03  0.00000000000E+00 0. -1.
         -3   -1    0    0    0  501 -0.00000000000E+00 -0.00000000000E+00 -0.12611606697E+02  0.12611606697E+02  0.00000000000E+00 0.  1.
         23    2    1    2    0    0  0.00000000000E+00  0.00000000000E+00  0.14974254602E+03  0.17496575941E+03  0.90499651262E+02 0.  0.
        -13    1    3    3    0    0 -0.30911031599E+02  0.40009545408E+01  0.11451917698E+02  0.33206112851E+02  0.00000000000E+00 0.  1.
         13    1    3    3    0    0  0.30911031599E+02 -0.40009545408E+01  0.13829062832E+03  0.14175964656E+03  0.00000000000E+00 0. -1.
<mgrwt>
<rscale>  0 0.90499651E+02</rscale>
<asrwt>0</asrwt>
<pdfrwt beam="1">  1        3 0.24977561E-01 0.90499651E+02</pdfrwt>
<pdfrwt beam="2">  1       -3 0.19402473E-02 0.90499651E+02</pdfrwt>
<totfact> 0.30452407E+04</totfact>
</mgrwt>
</event>
<event>
 5    1  0.1239369E+001  0.9285034E+02  0.7546771E-02  0.1296092E+00
          2   -1    0    0  501    0  0.00000000000E+00  0.00000000000E+00  0.53974495363E+03  0.53974495363E+03  0.00000000000E+00 0. -1.
         -2   -1    0    0    0  501 -0.00000000000E+00 -0.00000000000E+00 -0.39931753349E+01  0.39931753349E+01  0.00000000000E+00 0.  1.
         23    2    1    2    0    0  0.00000000000E+00  0.00000000000E+00  0.53575177830E+03  0.54373812897E+03  0.92850336262E+02 0.  0.
        -11    1    3    3    0    0  0.10772255415E+02 -0.45118707004E+02  0.25683129089E+03  0.26098668776E+03  0.00000000000E+00 0.  1.
         11    1    3    3    0    0 -0.10772255415E+02  0.45118707004E+02  0.27892048741E+03  0.28275144121E+03  0.00000000000E+00 0. -1.
<mgrwt>
<rscale>  0 0.92850336E+02</rscale>
<asrwt>0</asrwt>
<pdfrwt beam="1">  1        2 0.83037627E-01 0.92850336E+02</pdfrwt>
<pdfrwt beam="2">  1       -2 0.61433510E-03 0.92850336E+02</pdfrwt>
<totfact> 0.21041062E+05</totfact>
</mgrwt>
</event>
<event>
 5    1  0.1239369E+001  0.9168182E+02  0.7546771E-02  0.1298829E+00
         -1   -1    0    0    0  501 -0.00000000000E+00  0.00000000000E+00  0.83567144539E+01  0.83567144539E+01  0.00000000000E+00 0.  1.
          1   -1    0    0  501    0  0.00000000000E+00 -0.00000000000E+00 -0.25146117050E+03  0.25146117050E+03  0.00000000000E+00 0. -1.
         23    2    1    2    0    0  0.00000000000E+00  0.00000000000E+00 -0.24310445605E+03  0.25981788496E+03  0.91681823676E+02 0.  0.
        -13    1    3    3    0    0 -0.15255844105E+02 -0.33080538617E+02 -0.20041060389E+03  0.20369455802E+03  0.00000000000E+00 0. -1.
         13    1    3    3    0    0  0.15255844105E+02  0.33080538617E+02 -0.42693852158E+02  0.56123326938E+02  0.00000000000E+00 0.  1.
<mgrwt>
<rscale>  0 0.91681824E+02</rscale>
<asrwt>0</asrwt>
<pdfrwt beam="2">  1        1 0.38686326E-01 0.91681824E+02</pdfrwt>
<pdfrwt beam="1">  1       -1 0.12856486E-02 0.91681824E+02</pdfrwt>
<totfact> 0.12199529E+05</totfact>
</mgrwt>
</event>
<event>
 5    1  0.1239369E+001  0.9687563E+02  0.7546771E-02  0.1287007E+00
          1   -1    0    0  501    0  0.00000000000E+00  0.00000000000E+00  0.12646331527E+03  0.12646331527E+03  0.00000000000E+00 0. -1.
         -1   -1    0    0    0  501 -0.00000000000E+00 -0.00000000000E+00 -0.18552587578E+02  0.18552587578E+02  0.00000000000E+00 0.  1.
         23    2    1    2    0    0  0.00000000000E+00  0.00000000000E+00  0.10791072769E+03  0.14501590285E+03  0.96875626076E+02 0.  0.
        -11    1    3    3    0    0  0.39489558157E+02 -0.66939083035E+01  0.13179836681E+02  0.42165646049E+02  0.00000000000E+00 0. -1.
         11    1    3    3    0    0 -0.39489558157E+02  0.66939083035E+01  0.94730891011E+02  0.10285025680E+03  0.00000000000E+00 0.  1.
<mgrwt>
<rscale>  0 0.96875626E+02</rscale>
<asrwt>0</asrwt>
<pdfrwt beam="1">  1        1 0.19455894E-01 0.96875626E+02</pdfrwt>
<pdfrwt beam="2">  1       -1 0.28542443E-02 0.96875626E+02</pdfrwt>
<totfact> 0.92200291E+04</totfact>
</mgrwt>
</event>
<event>
 5    1  0.1239369E+001  0.8577431E+02  0.7546771E-02  0.1313420E+00
         -2   -1    0    0    0  501 -0.00000000000E+00  0.00000000000E+00  0.10282739721E+02  0.10282739721E+02  0.00000000000E+00 0.  1.
          2   -1    0    0  501    0  0.00000000000E+00 -0.00000000000E+00 -0.17887332814E+03  0.17887332814E+03  0.00000000000E+00 0. -1.
         23    2    1    2    0    0  0.00000000000E+00  0.00000000000E+00 -0.16859058842E+03  0.18915606786E+03  0.85774305623E+02 0.  0.
        -13    1    3    3    0    0  0.10341934054E+02  0.26030611530E+02 -0.15591619806E+03  0.15841214964E+03  0.00000000000E+00 0. -1.
         13    1    3    3    0    0 -0.10341934054E+02 -0.26030611530E+02 -0.12674390362E+02  0.30743918222E+02  0.00000000000E+00 0.  1.
<mgrwt>
<rscale>  0 0.85774306E+02</rscale>
<asrwt>0</asrwt>
<pdfrwt beam="2">  1        2 0.27518973E-01 0.85774306E+02</pdfrwt>
<pdfrwt beam="1">  1       -2 0.15819600E-02 0.85774306E+02</pdfrwt>
<totfact> 0.17513706E+05</totfact>
</mgrwt>
</event>
<event>
 5    1  0.1239369E+001  0.8512648E+02  0.7546771E-02  0.1315102E+00
         -3   -1    0    0    0  501 -0.00000000000E+00  0.00000000000E+00  0.18591013541E+02  0.18591013541E+02  0.00000000000E+00 0.  1.
          3   -1    0    0  501    0  0.00000000000E+00 -0.00000000000E+00 -0.97446508306E+02  0.97446508306E+02  0.00000000000E+00 0. -1.
         23    2    1    2    0    0  0.00000000000E+00  0.00000000000E+00 -0.78855494764E+02  0.11603752185E+03  0.85126478970E+02 0.  0.
        -11    1    3    3    0    0  0.13187353746E+02  0.87265567993E+01 -0.93293724216E+02  0.94624405258E+02  0.00000000000E+00 0. -1.
         11    1    3    3    0    0 -0.13187353746E+02 -0.87265567993E+01  0.14438229451E+02  0.21413116589E+02  0.00000000000E+00 0.  1.
<mgrwt>
<rscale>  0 0.85126479E+02</rscale>
<asrwt>0</asrwt>
<pdfrwt beam="2">  1        3 0.14991771E-01 0.85126479E+02</pdfrwt>
<pdfrwt beam="1">  1       -3 0.28601559E-02 0.85126479E+02</pdfrwt>
<totfact> 0.40352794E+04</totfact>
</mgrwt>
</event>
<event>
 5    1  0.1239369E+001  0.9633210E+02  0.7546771E-02  0.1288204E+00
         -1   -1    0    0    0  501 -0.00000000000E+00  0.00000000000E+00  0.35336741640E+02  0.35336741640E+02  0.00000000000E+00 0.  1.
          1   -1    0    0  501    0  0.00000000000E+00 -0.00000000000E+00 -0.65653144891E+02  0.65653144891E+02  0.00000000000E+00 0. -1.
         23    2    1    2    0    0  0.00000000000E+00  0.00000000000E+00 -0.30316403251E+02  0.10098988653E+03  0.96332096808E+02 0.  0.
        -11    1    3    3    0    0 -0.22338181047E+02  0.12020331287E+02  0.27766449536E+02  0.37609286308E+02  0.00000000000E+00 0.  1.
         11    1    3    3    0    0  0.22338181047E+02 -0.12020331287E+02 -0.58082852787E+02  0.63380600223E+02  0.00000000000E+00 0. -1.
<mgrwt>
<rscale>  0 0.96332097E+02</rscale>
<asrwt>0</asrwt>
<pdfrwt beam="2">  1        1 0.10100484E-01 0.96332097E+02</pdfrwt>
<pdfrwt beam="1">  1       -1 0.54364219E-02 0.96332097E+02</pdfrwt>
<totfact> 0.83857819E+04</totfact>
</mgrwt>
</event>
<event>
 5    1  0.1239369E+001  0.8927348E+02  0.7546771E-02  0.1304621E+00
         -1   -1    0    0    0  501 -0.00000000000E+00  0.00000000000E+00  0.12794015630E+02  0.12794015630E+02  0.00000000000E+00 0.  1.
          1   -1    0    0  501    0  0.00000000000E+00 -0.00000000000E+00 -0.15573205603E+03  0.15573205603E+03  0.00000000000E+00 0. -1.
         23    2    1    2    0    0  0.00000000000E+00  0.00000000000E+00 -0.14293804040E+03  0.16852607166E+03  0.89273475546E+02 0.  0.
        -11    1    3    3    0    0  0.11932607476E+02 -0.42887218669E+02 -0.65283153674E+02  0.79016395766E+02  0.00000000000E+00 0.  1.
         11    1    3    3    0    0 -0.11932607476E+02  0.42887218669E+02 -0.77654886730E+02  0.89509675898E+02  0.00000000000E+00 0. -1.
<mgrwt>
<rscale>  0 0.89273476E+02</rscale>
<asrwt>0</asrwt>
<pdfrwt beam="2">  1        1 0.23958777E-01 0.89273476E+02</pdfrwt>
<pdfrwt beam="1">  1       -1 0.19683101E-02 0.89273476E+02</pdfrwt>
<totfact> 0.11950499E+05</totfact>
</mgrwt>
</event>
<event>
 5    1  0.1239369E+001  0.7917985E+02  0.7546771E-02  0.1331395E+00
          1   -1    0    0  501    0  0.00000000000E+00  0.00000000000E+00  0.30581670334E+02  0.30581670334E+02  0.00000000000E+00 0. -1.
         -1   -1    0    0    0  501 -0.00000000000E+00 -0.00000000000E+00 -0.51251682541E+02  0.51251682541E+02  0.00000000000E+00 0.  1.
         23    2    1    2    0    0  0.00000000000E+00  0.00000000000E+00 -0.20670012207E+02  0.81833352875E+02  0.79179847424E+02 0.  0.
        -13    1    3    3    0    0 -0.17618193827E+02  0.34396117310E+02 -0.14523041741E+01  0.38673024541E+02  0.00000000000E+00 0. -1.
         13    1    3    3    0    0  0.17618193827E+02 -0.34396117310E+02 -0.19217708033E+02  0.43160328333E+02  0.00000000000E+00 0.  1.
<mgrwt>
<rscale>  0 0.79179847E+02</rscale>
<asrwt>0</asrwt>
<pdfrwt beam="1">  1        1 0.47048724E-02 0.79179847E+02</pdfrwt>
<pdfrwt beam="2">  1       -1 0.78848742E-02 0.79179847E+02</pdfrwt>
<totfact> 0.12959436E+05</totfact>
</mgrwt>
</event>
<event>
 5    1  0.1239369E+001  0.9150640E+02  0.7546771E-02  0.1299244E+00
         -1   -1    0    0    0  501 -0.00000000000E+00  0.00000000000E+00  0.50406657516E+01  0.50406657516E+01  0.00000000000E+00 0.  1.
          1   -1    0    0  501    0  0.00000000000E+00 -0.00000000000E+00 -0.41529342612E+03  0.41529342612E+03  0.00000000000E+00 0. -1.
         23    2    1    2    0    0  0.00000000000E+00  0.00000000000E+00 -0.41025276037E+03  0.42033409188E+03  0.91506400867E+02 0.  0.
        -11    1    3    3    0    0  0.45187353191E+02  0.66582094387E+01 -0.21738912362E+03  0.22213567860E+03  0.00000000000E+00 0. -1.
         11    1    3    3    0    0 -0.45187353191E+02 -0.66582094387E+01 -0.19286363676E+03  0.19819841328E+03  0.00000000000E+00 0.  1.
<mgrwt>
<rscale>  0 0.91506401E+02</rscale>
<asrwt>0</asrwt>
<pdfrwt beam="2">  1        1 0.63891313E-01 0.91506401E+02</pdfrwt>
<pdfrwt beam="1">  1       -1 0.77548683E-03 0.91506401E+02</pdfrwt>
<totfact> 0.13441358E+05</totfact>
</mgrwt>
</event>
<event>
 5    1  0.1239369E+001  0.8830856E+02  0.7546771E-02  0.1307000E+00
         -2   -1    0    0    0  501 -0.00000000000E+00  0.00000000000E+00  0.80263632128E+01  0.80263632128E+01  0.00000000000E+00 0.  1.
          2   -1    0    0  501    0  0.00000000000E+00 -0.00000000000E+00 -0.24289962475E+03  0.24289962475E+03  0.00000000000E+00 0. -1.
         23    2    1    2    0    0  0.00000000000E+00  0.00000000000E+00 -0.23487326153E+03  0.25092598796E+03  0.88308563854E+02 0.  0.
        -11    1    3    3    0    0  0.36021720347E+02  0.22526101342E+02 -0.15160651730E+03  0.15744689792E+03  0.00000000000E+00 0. -1.
         11    1    3    3    0    0 -0.36021720347E+02 -0.22526101342E+02 -0.83266744237E+02  0.93479090037E+02  0.00000000000E+00 0.  1.
<mgrwt>
<rscale>  0 0.88308564E+02</rscale>
<asrwt>0</asrwt>
<pdfrwt beam="2">  1        2 0.37369174E-01 0.88308564E+02</pdfrwt>
<pdfrwt beam="1">  1       -2 0.12348251E-02 0.88308564E+02</pdfrwt>
<totfact> 0.18089652E+05</totfact>
</mgrwt>
</event>
<event>
 5    1  0.1239369E+001  0.9272241E+02  0.7546771E-02  0.1296390E+00
          1   -1    0    0  501    0  0.00000000000E+00  0.00000000000E+00  0.32448688385E+03  0.32448688385E+03  0.00000000000E+00 0. -1.
         -1   -1    0    0    0  501 -0.00000000000E+00 -0.00000000000E+00 -0.66238776902E+01  0.66238776902E+01  0.00000000000E+00 0.  1.
         23    2    1    2    0    0  0.00000000000E+00  0.00000000000E+00  0.31786300616E+03  0.33111076154E+03  0.92722412192E+02 0.  0.
        -13    1    3    3    0    0  0.16925025224E+02  0.42594963486E+02  0.18381954196E+03  0.18944764817E+03  0.00000000000E+00 0. -1.
         13    1    3    3    0    0 -0.16925025224E+02 -0.42594963486E+02  0.13404346420E+03  0.14166311337E+03  0.00000000000E+00 0.  1.
<mgrwt>
<rscale>  0 0.92722412E+02</rscale>
<asrwt>0</asrwt>
<pdfrwt beam="1">  1        1 0.49921047E-01 0.92722412E+02</pdfrwt>
<pdfrwt beam="2">  1       -1 0.10190584E-02 0.92722412E+02</pdfrwt>
<totfact> 0.12432994E+05</totfact>
</mgrwt>
</event>
<event>
 5    1  0.1239369E+001  0.8728154E+02  0.7546771E-02  0.1309572E+00
         -3   -1    0    0    0  501 -0.00000000000E+00  0.00000000000E+00  0.23381946034E+02  0.23381946034E+02  0.00000000000E+00 0.  1.
          3   -1    0    0  501    0  0.00000000000E+00 -0.00000000000E+00 -0.81452449300E+02  0.81452449300E+02  0.00000000000E+00 0. -1.
         23    2    1    2    0    0  0.00000000000E+00  0.00000000000E+00 -0.58070503266E+02  0.10483439533E+03  0.87281539258E+02 0.  0.
        -11    1    3    3    0    0  0.61900319651E+01  0.33510071707E+02  0.37105984708E+01  0.34278418029E+02  0.00000000000E+00 0.  1.
         11    1    3    3    0    0 -0.61900319651E+01 -0.33510071707E+02 -0.61781101737E+02  0.70555977304E+02  0.00000000000E+00 0. -1.
<mgrwt>
<rscale>  0 0.87281539E+02</rscale>
<asrwt>0</asrwt>
<pdfrwt beam="2">  1        3 0.12531146E-01 0.87281539E+02</pdfrwt>
<pdfrwt beam="1">  1       -3 0.35972225E-02 0.87281539E+02</pdfrwt>
<totfact> 0.38625033E+04</totfact>
</mgrwt>
</event>
<event>
 5    1  0.1239369E+001  0.8832135E+02  0.7546771E-02  0.1306968E+00
         -1   -1    0    0    0  501 -0.00000000000E+00  0.00000000000E+00  0.85495590724E+01  0.85495590724E+01  0.00000000000E+00 0.  1.
          1   -1    0    0  501    0  0.00000000000E+00 -0.00000000000E+00 -0.22810127825E+03  0.22810127825E+03  0.00000000000E+00 0. -1.
         23    2    1    2    0    0  0.00000000000E+00  0.00000000000E+00 -0.21955171917E+03  0.23665083732E+03  0.88321353088E+02 0.  0.
        -11    1    3    3    0    0 -0.16286195631E+02  0.28284389305E+02 -0.30069317158E+02  0.44378042778E+02  0.00000000000E+00 0.  1.
         11    1    3    3    0    0  0.16286195631E+02 -0.28284389305E+02 -0.18948240202E+03  0.19227279454E+03  0.00000000000E+00 0. -1.
<mgrwt>
<rscale>  0 0.88321353E+02</rscale>
<asrwt>0</asrwt>
<pdfrwt beam="2">  1        1 0.35092511E-01 0.88321353E+02</pdfrwt>
<pdfrwt beam="1">  1       -1 0.13153165E-02 0.88321353E+02</pdfrwt>
<totfact> 0.13224639E+05</totfact>
</mgrwt>
</event>
<event>
 5    1  0.1239369E+001  0.7957176E+02  0.7546771E-02  0.1330271E+00
         -2   -1    0    0    0  501 -0.00000000000E+00  0.00000000000E+00  0.13793999463E+02  0.13793999463E+02  0.00000000000E+00 0.  1.
          2   -1    0    0  501    0  0.00000000000E+00 -0.00000000000E+00 -0.11475396490E+03  0.11475396490E+03  0.00000000000E+00 0. -1.
         23    2    1    2    0    0  0.00000000000E+00  0.00000000000E+00 -0.10095996543E+03  0.12854796436E+03  0.79571757053E+02 0.  0.
        -13    1    3    3    0    0 -0.17497092529E+02 -0.26615404823E+02 -0.88994880326E+02  0.94523101648E+02  0.00000000000E+00 0. -1.
         13    1    3    3    0    0  0.17497092529E+02  0.26615404823E+02 -0.11965085108E+02  0.34024862711E+02  0.00000000000E+00 0.  1.
<mgrwt>
<rscale>  0 0.79571757E+02</rscale>
<asrwt>0</asrwt>
<pdfrwt beam="2">  1        2 0.17654456E-01 0.79571757E+02</pdfrwt>
<pdfrwt beam="1">  1       -2 0.21221538E-02 0.79571757E+02</pdfrwt>
<totfact> 0.18519251E+05</totfact>
</mgrwt>
</event>
<event>
 5    1  0.1239369E+001  0.9068059E+02  0.7546771E-02  0.1301212E+00
          3   -1    0    0  501    0  0.00000000000E+00  0.00000000000E+00  0.19479698574E+02  0.19479698574E+02  0.00000000000E+00 0. -1.
         -3   -1    0    0    0  501 -0.00000000000E+00 -0.00000000000E+00 -0.10553256173E+03  0.10553256173E+03  0.00000000000E+00 0.  1.
         23    2    1    2    0    0  0.00000000000E+00  0.00000000000E+00 -0.86052863153E+02  0.12501226030E+03  0.90680593121E+02 0.  0.
        -13    1    3    3    0    0 -0.31067757365E+01  0.40216036823E+02 -0.71572467066E+02  0.82155947534E+02  0.00000000000E+00 0.  1.
         13    1    3    3    0    0  0.31067757365E+01 -0.40216036823E+02 -0.14480396087E+02  0.42856312768E+02  0.00000000000E+00 0. -1.
<mgrwt>
<rscale>  0 0.90680593E+02</rscale>
<asrwt>0</asrwt>
<pdfrwt beam="1">  1        3 0.29968767E-02 0.90680593E+02</pdfrwt>
<pdfrwt beam="2">  1       -3 0.16235779E-01 0.90680593E+02</pdfrwt>
<totfact> 0.33399309E+04</totfact>
</mgrwt>
</event>
<event>
 5    1  0.1239369E+001  0.8637723E+02  0.7546771E-02  0.1311870E+00
         -4   -1    0    0    0  501 -0.00000000000E+00  0.00000000000E+00  0.99880281041E+02  0.99880281041E+02  0.00000000000E+00 0.  1.
          4   -1    0    0  501    0  0.00000000000E+00 -0.00000000000E+00 -0.18674921027E+02  0.18674921027E+02  0.00000000000E+00 0. -1.
         23    2    1    2    0    0  0.00000000000E+00  0.00000000000E+00  0.81205360014E+02  0.11855520207E+03  0.86377227569E+02 0.  0.
        -13    1    3    3    0    0 -0.19839381941E+02  0.67435102909E+01  0.92435946593E+02  0.94781222979E+02  0.00000000000E+00 0.  1.
         13    1    3    3    0    0  0.19839381941E+02 -0.67435102909E+01 -0.11230586580E+02  0.23773979090E+02  0.00000000000E+00 0. -1.
<mgrwt>
<rscale>  0 0.86377228E+02</rscale>
<asrwt>0</asrwt>
<pdfrwt beam="2">  1        4 0.28730648E-02 0.86377228E+02</pdfrwt>
<pdfrwt beam="1">  1       -4 0.15366197E-01 0.86377228E+02</pdfrwt>
<totfact> 0.29321073E+04</totfact>
</mgrwt>
</event>
<event>
 5    1  0.1239369E+001  0.9160926E+02  0.7546771E-02  0.1299001E+00
         -2   -1    0    0    0  501 -0.00000000000E+00  0.00000000000E+00  0.82676642325E+01  0.82676642325E+01  0.00000000000E+00 0.  1.
          2   -1    0    0  501    0  0.00000000000E+00 -0.00000000000E+00 -0.25376747334E+03  0.25376747334E+03  0.00000000000E+00 0. -1.
         23    2    1    2    0    0  0.00000000000E+00  0.00000000000E+00 -0.24549980911E+03  0.26203513757E+03  0.91609262910E+02 0.  0.
        -11    1    3    3    0    0  0.36567202934E+02  0.79025454625E+01 -0.47155620787E+02  0.60193547221E+02  0.00000000000E+00 0.  1.
         11    1    3    3    0    0 -0.36567202934E+02 -0.79025454625E+01 -0.19834418832E+03  0.20184159035E+03  0.00000000000E+00 0. -1.
<mgrwt>
<rscale>  0 0.91609263E+02</rscale>
<asrwt>0</asrwt>
<pdfrwt beam="2">  1        2 0.39041143E-01 0.91609263E+02</pdfrwt>
<pdfrwt beam="1">  1       -2 0.12719486E-02 0.91609263E+02</pdfrwt>
<totfact> 0.16666584E+05</totfact>
</mgrwt>
</event>
<event>
 5    1  0.1239369E+001  0.9157189E+02  0.7546771E-02  0.1299089E+00
         -1   -1    0    0    0  501 -0.00000000000E+00  0.00000000000E+00  0.47678689334E+02  0.47678689334E+02  0.00000000000E+00 0.  1.
          1   -1    0    0  501    0  0.00000000000E+00 -0.00000000000E+00 -0.43968343251E+02  0.43968343251E+02  0.00000000000E+00 0. -1.
         23    2    1    2    0    0  0.00000000000E+00  0.00000000000E+00  0.37103460827E+01  0.91647032585E+02  0.91571894780E+02 0.  0.
        -13    1    3    3    0    0 -0.15120368391E+02  0.30753449046E+02  0.32243763283E+02  0.47053803663E+02  0.00000000000E+00 0.  1.
         13    1    3    3    0    0  0.15120368391E+02 -0.30753449046E+02 -0.28533417200E+02  0.44593228922E+02  0.00000000000E+00 0. -1.
<mgrwt>
<rscale>  0 0.91571895E+02</rscale>
<asrwt>0</asrwt>
<pdfrwt beam="2">  1        1 0.67643605E-02 0.91571895E+02</pdfrwt>
<pdfrwt beam="1">  1       -1 0.73351830E-02 0.91571895E+02</pdfrwt>
<totfact> 0.90857329E+04</totfact>
</mgrwt>
</event>
<event>
 5    1  0.1239369E+001  0.9400268E+02  0.7546771E-02  0.1293438E+00
          1   -1    0    0  501    0  0.00000000000E+00  0.00000000000E+00  0.63207592134E+01  0.63207592134E+01  0.00000000000E+00 0. -1.
         -1   -1    0    0    0  501 -0.00000000000E+00 -0.00000000000E+00 -0.34950329389E+03  0.34950329389E+03  0.00000000000E+00 0.  1.
         23    2    1    2    0    0  0.00000000000E+00  0.00000000000E+00 -0.34318253468E+03  0.35582405311E+03  0.94002684323E+02 0.  0.
        -13    1    3    3    0    0 -0.24606111252E+02  0.35173833463E+02 -0.99128916353E+02  0.10802407754E+03  0.00000000000E+00 0.  1.
         13    1    3    3    0    0  0.24606111252E+02 -0.35173833463E+02 -0.24405361833E+03  0.24779997556E+03  0.00000000000E+00 0. -1.
<mgrwt>
<rscale>  0 0.94002684E+02</rscale>
<asrwt>0</asrwt>
<pdfrwt beam="1">  1        1 0.97242448E-03 0.94002684E+02</pdfrwt>
<pdfrwt beam="2">  1       -1 0.53769739E-01 0.94002684E+02</pdfrwt>
<totfact> 0.52452581E+04</totfact>
</mgrwt>
</event>
<event>
 5    1  0.1239369E+001  0.8949355E+02  0.7546771E-02  0.1304083E+00
         -4   -1    0    0    0  501 -0.00000000000E+00  0.00000000000E+00  0.38920838068E+02  0.38920838068E+02  0.00000000000E+00 0. -1.
          4   -1    0    0  501    0  0.00000000000E+00 -0.00000000000E+00 -0.51444782465E+02  0.51444782465E+02  0.00000000000E+00 0.  1.
         23    2    1    2    0    0  0.00000000000E+00  0.00000000000E+00 -0.12523944397E+02  0.90365620533E+02  0.89493553907E+02 0.  0.
        -11    1    3    3    0    0  0.12100899806E+02 -0.11576039545E+02  0.35637405381E+02  0.39375895291E+02  0.00000000000E+00 0. -1.
         11    1    3    3    0    0 -0.12100899806E+02  0.11576039545E+02 -0.48161349779E+02  0.50989725241E+02  0.00000000000E+00 0.  1.
<mgrwt>
<rscale>  0 0.89493554E+02</rscale>
<asrwt>0</asrwt>
<pdfrwt beam="2">  1        4 0.79145818E-02 0.89493554E+02</pdfrwt>
<pdfrwt beam="1">  1       -4 0.59878213E-02 0.89493554E+02</pdfrwt>
<totfact> 0.28469274E+04</totfact>
</mgrwt>
</event>
<event>
 5    1  0.1239369E+001  0.9493219E+02  0.7546771E-02  0.1291329E+00
         -1   -1    0    0    0  501 -0.00000000000E+00  0.00000000000E+00  0.19200916912E+03  0.19200916912E+03  0.00000000000E+00 0.  1.
          1   -1    0    0  501    0  0.00000000000E+00 -0.00000000000E+00 -0.11733970589E+02  0.11733970589E+02  0.00000000000E+00 0. -1.
         23    2    1    2    0    0  0.00000000000E+00  0.00000000000E+00  0.18027519853E+03  0.20374313971E+03  0.94932185126E+02 0.  0.
        -13    1    3    3    0    0  0.20664244269E+02 -0.27263914471E+02  0.19518338338E+02  0.39386514887E+02  0.00000000000E+00 0. -1.
         13    1    3    3    0    0 -0.20664244269E+02  0.27263914471E+02  0.16075686019E+03  0.16435662482E+03  0.00000000000E+00 0.  1.
<mgrwt>
<rscale>  0 0.94932185E+02</rscale>
<asrwt>0</asrwt>
<pdfrwt beam="2">  1        1 0.18052264E-02 0.94932185E+02</pdfrwt>
<pdfrwt beam="1">  1       -1 0.29539870E-01 0.94932185E+02</pdfrwt>
<totfact> 0.63207835E+04</totfact>
</mgrwt>
</event>
<event>
 5    1  0.1239369E+001  0.8611502E+02  0.7546771E-02  0.1312542E+00
         -2   -1    0    0    0  501 -0.00000000000E+00  0.00000000000E+00  0.38756090442E+01  0.38756090442E+01  0.00000000000E+00 0. -1.
          2   -1    0    0  501    0  0.00000000000E+00 -0.00000000000E+00 -0.47836335795E+03  0.47836335795E+03  0.00000000000E+00 0.  1.
         23    2    1    2    0    0  0.00000000000E+00  0.00000000000E+00 -0.47448774890E+03  0.48223896699E+03  0.86115024391E+02 0.  0.
        -11    1    3    3    0    0  0.13590812288E+01 -0.43021446377E+02 -0.24352331836E+03  0.24729799541E+03  0.00000000000E+00 0.  1.
         11    1    3    3    0    0 -0.13590812288E+01  0.43021446377E+02 -0.23096443054E+03  0.23494097158E+03  0.00000000000E+00 0. -1.
<mgrwt>
<rscale>  0 0.86115024E+02</rscale>
<asrwt>0</asrwt>
<pdfrwt beam="2">  1        2 0.73594341E-01 0.86115024E+02</pdfrwt>
<pdfrwt beam="1">  1       -2 0.59624772E-03 0.86115024E+02</pdfrwt>
<totfact> 0.24693837E+05</totfact>
</mgrwt>
</event>
<event>
 5    1  0.1239369E+001  0.9026760E+02  0.7546771E-02  0.1302205E+00
         -3   -1    0    0    0  501 -0.00000000000E+00  0.00000000000E+00  0.15140386025E+02  0.15140386025E+02  0.00000000000E+00 0.  1.
          3   -1    0    0  501    0  0.00000000000E+00 -0.00000000000E+00 -0.13454479159E+03  0.13454479159E+03  0.00000000000E+00 0. -1.
         23    2    1    2    0    0  0.00000000000E+00  0.00000000000E+00 -0.11940440556E+03  0.14968517761E+03  0.90267603984E+02 0.  0.
        -13    1    3    3    0    0 -0.36567185123E+02  0.25808087775E+02 -0.69349053161E+02  0.82537916116E+02  0.00000000000E+00 0.  1.
         13    1    3    3    0    0  0.36567185123E+02 -0.25808087775E+02 -0.50055352404E+02  0.67147261498E+02  0.00000000000E+00 0. -1.
<mgrwt>
<rscale>  0 0.90267604E+02</rscale>
<asrwt>0</asrwt>
<pdfrwt beam="2">  1        3 0.20699200E-01 0.90267604E+02</pdfrwt>
<pdfrwt beam="1">  1       -3 0.23292900E-02 0.90267604E+02</pdfrwt>
<totfact> 0.32186611E+04</totfact>
</mgrwt>
</event>
<event>
 5    1  0.1239369E+001  0.9208280E+02  0.7546771E-02  0.1297885E+00
          1   -1    0    0  501    0  0.00000000000E+00  0.00000000000E+00  0.15876125053E+03  0.15876125053E+03  0.00000000000E+00 0. -1.
         -1   -1    0    0    0  501 -0.00000000000E+00 -0.00000000000E+00 -0.13352190496E+02  0.13352190496E+02  0.00000000000E+00 0.  1.
         23    2    1    2    0    0  0.00000000000E+00  0.00000000000E+00  0.14540906004E+03  0.17211344103E+03  0.92082798837E+02 0.  0.
        -11    1    3    3    0    0  0.30823117906E+02 -0.42417968697E+01  0.13613763302E+03  0.13964781617E+03  0.00000000000E+00 0. -1.
         11    1    3    3    0    0 -0.30823117906E+02  0.42417968697E+01  0.92714270158E+01  0.32465624852E+02  0.00000000000E+00 0.  1.
<mgrwt>
<rscale>  0 0.92082799E+02</rscale>
<asrwt>0</asrwt>
<pdfrwt beam="1">  1        1 0.24424807E-01 0.92082799E+02</pdfrwt>
<pdfrwt beam="2">  1       -1 0.20541833E-02 0.92082799E+02</pdfrwt>
<totfact> 0.11033304E+05</totfact>
</mgrwt>
</event>
<event>
 5    1  0.1239369E+001  0.8940491E+02  0.7546771E-02  0.1304299E+00
          2   -1    0    0  501    0  0.00000000000E+00  0.00000000000E+00  0.35759533898E+02  0.35759533898E+02  0.00000000000E+00 0. -1.
         -2   -1    0    0    0  501 -0.00000000000E+00 -0.00000000000E+00 -0.55881861632E+02  0.55881861632E+02  0.00000000000E+00 0.  1.
         23    2    1    2    0    0  0.00000000000E+00  0.00000000000E+00 -0.20122327733E+02  0.91641395530E+02  0.89404906472E+02 0.  0.
        -13    1    3    3    0    0 -0.14854682472E+02  0.23008653877E+02 -0.46275543945E+02  0.53772536782E+02  0.00000000000E+00 0.  1.
         13    1    3    3    0    0  0.14854682472E+02 -0.23008653877E+02  0.26153216212E+02  0.37868858747E+02  0.00000000000E+00 0. -1.
<mgrwt>
<rscale>  0 0.89404906E+02</rscale>
<asrwt>0</asrwt>
<pdfrwt beam="1">  1        2 0.55014668E-02 0.89404906E+02</pdfrwt>
<pdfrwt beam="2">  1       -2 0.85972095E-02 0.89404906E+02</pdfrwt>
<totfact> 0.98107346E+04</totfact>
</mgrwt>
</event>
<event>
 5    1  0.1239369E+001  0.9186735E+02  0.7546771E-02  0.1298392E+00
          3   -1    0    0  501    0  0.00000000000E+00  0.00000000000E+00  0.25065984799E+03  0.25065984799E+03  0.00000000000E+00 0. -1.
         -3   -1    0    0    0  501 -0.00000000000E+00 -0.00000000000E+00 -0.84173935251E+01  0.84173935251E+01  0.00000000000E+00 0.  1.
         23    2    1    2    0    0  0.00000000000E+00  0.00000000000E+00  0.24224245446E+03  0.25907724151E+03  0.91867351795E+02 0.  0.
        -13    1    3    3    0    0 -0.29441607254E+02  0.34620548377E+02  0.10230612886E+03  0.11194612370E+03  0.00000000000E+00 0.  1.
         13    1    3    3    0    0  0.29441607254E+02 -0.34620548377E+02  0.13993632560E+03  0.14713111781E+03  0.00000000000E+00 0. -1.
<mgrwt>
<rscale>  0 0.91867352E+02</rscale>
<asrwt>0</asrwt>
<pdfrwt beam="1">  1        3 0.38563048E-01 0.91867352E+02</pdfrwt>
<pdfrwt beam="2">  1       -3 0.12949838E-02 0.91867352E+02</pdfrwt>
<totfact> 0.25188721E+04</totfact>
</mgrwt>
</event>
<event>
 5    1  0.1239369E+001  0.9057369E+02  0.7546771E-02  0.1301468E+00
          3   -1    0    0  501    0  0.00000000000E+00  0.00000000000E+00  0.17741154085E+03  0.17741154085E+03  0.00000000000E+00 0. -1.
         -3   -1    0    0    0  501 -0.00000000000E+00 -0.00000000000E+00 -0.11560117536E+02  0.11560117536E+02  0.00000000000E+00 0.  1.
         23    2    1    2    0    0  0.00000000000E+00  0.00000000000E+00  0.16585142331E+03  0.18897165839E+03  0.90573688552E+02 0.  0.
        -13    1    3    3    0    0 -0.30797646349E+02 -0.25785327749E+02  0.39284818225E+02  0.56184295766E+02  0.00000000000E+00 0.  1.
         13    1    3    3    0    0  0.30797646349E+02  0.25785327749E+02  0.12656660509E+03  0.13278736262E+03  0.00000000000E+00 0. -1.
<mgrwt>
<rscale>  0 0.90573689E+02</rscale>
<asrwt>0</asrwt>
<pdfrwt beam="1">  1        3 0.27294081E-01 0.90573689E+02</pdfrwt>
<pdfrwt beam="2">  1       -3 0.17784798E-02 0.90573689E+02</pdfrwt>
<totfact> 0.29604069E+04</totfact>
</mgrwt>
</event>
<event>
 5    1  0.1239369E+001  0.9443716E+02  0.7546771E-02  0.1292449E+00
         -1   -1    0    0    0  501 -0.00000000000E+00  0.00000000000E+00  0.18787436996E+02  0.18787436996E+02  0.00000000000E+00 0.  1.
          1   -1    0    0  501    0  0.00000000000E+00 -0.00000000000E+00 -0.11867475768E+03  0.11867475768E+03  0.00000000000E+00 0. -1.
         23    2    1    2    0    0  0.00000000000E+00  0.00000000000E+00 -0.99887320683E+02  0.13746219467E+03  0.94437164991E+02 0.  0.
        -13    1    3    3    0    0  0.19598180463E+02  0.41401258222E+02 -0.33255561186E+02  0.56604639471E+02  0.00000000000E+00 0. -1.
         13    1    3    3    0    0 -0.19598180463E+02 -0.41401258222E+02 -0.66631759497E+02  0.80857555203E+02  0.00000000000E+00 0.  1.
<mgrwt>
<rscale>  0 0.94437165E+02</rscale>
<asrwt>0</asrwt>
<pdfrwt beam="2">  1        1 0.18257655E-01 0.94437165E+02</pdfrwt>
<pdfrwt beam="1">  1       -1 0.28903749E-02 0.94437165E+02</pdfrwt>
<totfact> 0.97727353E+04</totfact>
</mgrwt>
</event>
<event>
 5    1  0.1239369E+001  0.9081939E+02  0.7546771E-02  0.1300879E+00
          3   -1    0    0  501    0  0.00000000000E+00  0.00000000000E+00  0.12543890400E+03  0.12543890400E+03  0.00000000000E+00 0. -1.
         -3   -1    0    0    0  501 -0.00000000000E+00 -0.00000000000E+00 -0.16438603559E+02  0.16438603559E+02  0.00000000000E+00 0.  1.
         23    2    1    2    0    0  0.00000000000E+00  0.00000000000E+00  0.10900030044E+03  0.14187750755E+03  0.90819390300E+02 0.  0.
        -13    1    3    3    0    0  0.27453777433E+02 -0.30037285868E+02  0.23019247851E+02  0.46752905892E+02  0.00000000000E+00 0.  1.
         13    1    3    3    0    0 -0.27453777433E+02  0.30037285868E+02  0.85981052586E+02  0.95124601663E+02  0.00000000000E+00 0. -1.
<mgrwt>
<rscale>  0 0.90819390E+02</rscale>
<asrwt>0</asrwt>
<pdfrwt beam="1">  1        3 0.19298292E-01 0.90819390E+02</pdfrwt>
<pdfrwt beam="2">  1       -3 0.25290160E-02 0.90819390E+02</pdfrwt>
<totfact> 0.32151621E+04</totfact>
</mgrwt>
</event>
<event>
 5    1  0.1239369E+001  0.9179572E+02  0.7546771E-02  0.1298560E+00
          1   -1    0    0  501    0  0.00000000000E+00  0.00000000000E+00  0.51325117130E+02  0.51325117130E+02  0.00000000000E+00 0.  1.
         -1   -1    0    0    0  501 -0.00000000000E+00 -0.00000000000E+00 -0.41044493650E+02  0.41044493650E+02  0.00000000000E+00 0. -1.
         23    2    1    2    0    0  0.00000000000E+00  0.00000000000E+00  0.10280623480E+02  0.92369610780E+02  0.91795717637E+02 0.  0.
        -13    1    3    3    0    0  0.59022201517E+01 -0.45073503578E+02 -0.12362226802E+01  0.45475104992E+02  0.00000000000E+00 0. -1.
         13    1    3    3    0    0 -0.59022201517E+01  0.45073503578E+02  0.11516846160E+02  0.46894505787E+02  0.00000000000E+00 0.  1.
<mgrwt>
<rscale>  0 0.91795718E+02</rscale>
<asrwt>0</asrwt>
<pdfrwt beam="1">  1        1 0.78961718E-02 0.91795718E+02</pdfrwt>
<pdfrwt beam="2">  1       -1 0.63145375E-02 0.91795718E+02</pdfrwt>
<totfact> 0.92368856E+04</totfact>
</mgrwt>
</event>
<event>
 5    1  0.1239369E+001  0.9182976E+02  0.7546771E-02  0.1298480E+00
          3   -1    0    0  501    0  0.00000000000E+00  0.00000000000E+00  0.20664507084E+02  0.20664507084E+02  0.00000000000E+00 0. -1.
         -3   -1    0    0    0  501 -0.00000000000E+00 -0.00000000000E+00 -0.10201917762E+03  0.10201917762E+03  0.00000000000E+00 0.  1.
         23    2    1    2    0    0  0.00000000000E+00  0.00000000000E+00 -0.81354670537E+02  0.12268368470E+03  0.91829755932E+02 0.  0.
        -13    1    3    3    0    0  0.21874554919E+02  0.36587918969E+02 -0.17886885359E+02  0.46228915575E+02  0.00000000000E+00 0. -1.
         13    1    3    3    0    0 -0.21874554919E+02 -0.36587918969E+02 -0.63467785178E+02  0.76454769130E+02  0.00000000000E+00 0.  1.
<mgrwt>
<rscale>  0 0.91829756E+02</rscale>
<asrwt>0</asrwt>
<pdfrwt beam="1">  1        3 0.31791550E-02 0.91829756E+02</pdfrwt>
<pdfrwt beam="2">  1       -3 0.15695258E-01 0.91829756E+02</pdfrwt>
<totfact> 0.32429686E+04</totfact>
</mgrwt>
</event>
<event>
 5    1  0.1239369E+001  0.9035362E+02  0.7546771E-02  0.1301998E+00
         -1   -1    0    0    0  501 -0.00000000000E+00  0.00000000000E+00  0.11770754973E+03  0.11770754973E+03  0.00000000000E+00 0.  1.
          1   -1    0    0  501    0  0.00000000000E+00 -0.00000000000E+00 -0.17339109357E+02  0.17339109357E+02  0.00000000000E+00 0. -1.
         23    2    1    2    0    0  0.00000000000E+00  0.00000000000E+00  0.10036844037E+03  0.13504665908E+03  0.90353618120E+02 0.  0.
        -11    1    3    3    0    0  0.39514341141E+02 -0.21605333722E+02  0.44842983340E+02  0.63553652577E+02  0.00000000000E+00 0.  1.
         11    1    3    3    0    0 -0.39514341141E+02  0.21605333722E+02  0.55525457030E+02  0.71493006507E+02  0.00000000000E+00 0. -1.
<mgrwt>
<rscale>  0 0.90353618E+02</rscale>
<asrwt>0</asrwt>
<pdfrwt beam="2">  1        1 0.26675554E-02 0.90353618E+02</pdfrwt>
<pdfrwt beam="1">  1       -1 0.18108853E-01 0.90353618E+02</pdfrwt>
<totfact> 0.80707466E+04</totfact>
</mgrwt>
</event>
<event>
 5    1  0.1239369E+001  0.8908193E+02  0.7546771E-02  0.1305090E+00
          1   -1    0    0  501    0  0.00000000000E+00  0.00000000000E+00  0.18663187743E+02  0.18663187743E+02  0.00000000000E+00 0. -1.
         -1   -1    0    0    0  501 -0.00000000000E+00 -0.00000000000E+00 -0.10630004520E+03  0.10630004520E+03  0.00000000000E+00 0.  1.
         23    2    1    2    0    0  0.00000000000E+00  0.00000000000E+00 -0.87636857455E+02  0.12496323294E+03  0.89081933086E+02 0.  0.
        -13    1    3    3    0    0 -0.31429082463E+02  0.16084687076E+02 -0.57256881936E+01  0.35767134189E+02  0.00000000000E+00 0. -1.
         13    1    3    3    0    0  0.31429082463E+02 -0.16084687076E+02 -0.81911169262E+02  0.89196098752E+02  0.00000000000E+00 0.  1.
<mgrwt>
<rscale>  0 0.89081933E+02</rscale>
<asrwt>0</asrwt>
<pdfrwt beam="1">  1        1 0.28712597E-02 0.89081933E+02</pdfrwt>
<pdfrwt beam="2">  1       -1 0.16353853E-01 0.89081933E+02</pdfrwt>
<totfact> 0.85400017E+04</totfact>
</mgrwt>
</event>
<event>
 5    1  0.1239369E+001  0.9211632E+02  0.7546771E-02  0.1297806E+00
          2   -1    0    0  501    0  0.00000000000E+00  0.00000000000E+00  0.15825129757E+03  0.15825129757E+03  0.00000000000E+00 0.  1.
         -2   -1    0    0    0  501 -0.00000000000E+00 -0.00000000000E+00 -0.13404971776E+02  0.13404971776E+02  0.00000000000E+00 0. -1.
         23    2    1    2    0    0  0.00000000000E+00  0.00000000000E+00  0.14484632579E+03  0.17165626934E+03  0.92116321625E+02 0.  0.
        -13    1    3    3    0    0  0.63244805984E+01 -0.34917475807E+02  0.12713838962E+03  0.13199772455E+03  0.00000000000E+00 0.  1.
         13    1    3    3    0    0 -0.63244805984E+01  0.34917475807E+02  0.17707936170E+02  0.39658544791E+02  0.00000000000E+00 0. -1.
<mgrwt>
<rscale>  0 0.92116322E+02</rscale>
<asrwt>0</asrwt>
<pdfrwt beam="1">  1        2 0.24346352E-01 0.92116322E+02</pdfrwt>
<pdfrwt beam="2">  1       -2 0.20623035E-02 0.92116322E+02</pdfrwt>
<totfact> 0.13848895E+05</totfact>
</mgrwt>
</event>
<event>
 5    1  0.1239369E+001  0.9175510E+02  0.7546771E-02  0.1298656E+00
         -2   -1    0    0    0  501 -0.00000000000E+00  0.00000000000E+00  0.10447433520E+02  0.10447433520E+02  0.00000000000E+00 0.  1.
          2   -1    0    0  501    0  0.00000000000E+00 -0.00000000000E+00 -0.20146091691E+03  0.20146091691E+03  0.00000000000E+00 0. -1.
         23    2    1    2    0    0  0.00000000000E+00  0.00000000000E+00 -0.19101348339E+03  0.21190835043E+03  0.91755098741E+02 0.  0.
        -13    1    3    3    0    0  0.32175628731E+02  0.50281001452E+01 -0.20877502553E+02  0.38683626874E+02  0.00000000000E+00 0.  1.
         13    1    3    3    0    0 -0.32175628731E+02 -0.50281001452E+01 -0.17013598084E+03  0.17322472356E+03  0.00000000000E+00 0. -1.
<mgrwt>
<rscale>  0 0.91755099E+02</rscale>
<asrwt>0</asrwt>
<pdfrwt beam="2">  1        2 0.30993988E-01 0.91755099E+02</pdfrwt>
<pdfrwt beam="1">  1       -2 0.16072974E-02 0.91755099E+02</pdfrwt>
<totfact> 0.15246746E+05</totfact>
</mgrwt>
</event>
<event>
 5    1  0.1239369E+001  0.9149674E+02  0.7546771E-02  0.1299267E+00
         -4   -1    0    0    0  501 -0.00000000000E+00  0.00000000000E+00  0.34628326966E+02  0.34628326966E+02  0.00000000000E+00 0.  1.
          4   -1    0    0  501    0  0.00000000000E+00 -0.00000000000E+00 -0.60439343385E+02  0.60439343385E+02  0.00000000000E+00 0. -1.
         23    2    1    2    0    0  0.00000000000E+00  0.00000000000E+00 -0.25811016419E+02  0.95067670351E+02  0.91496739708E+02 0.  0.
        -11    1    3    3    0    0 -0.22655147995E+02  0.29922707292E+02 -0.40085359476E+02  0.54913205940E+02  0.00000000000E+00 0. -1.
         11    1    3    3    0    0  0.22655147995E+02 -0.29922707292E+02  0.14274343056E+02  0.40154464410E+02  0.00000000000E+00 0.  1.
<mgrwt>
<rscale>  0 0.91496740E+02</rscale>
<asrwt>0</asrwt>
<pdfrwt beam="2">  1        4 0.92983605E-02 0.91496740E+02</pdfrwt>
<pdfrwt beam="1">  1       -4 0.53274349E-02 0.91496740E+02</pdfrwt>
<totfact> 0.26513885E+04</totfact>
</mgrwt>
</event>
<event>
 5    1  0.1239369E+001  0.8989074E+02  0.7546771E-02  0.1303117E+00
          1   -1    0    0  501    0  0.00000000000E+00  0.00000000000E+00  0.19207247569E+03  0.19207247569E+03  0.00000000000E+00 0. -1.
         -1   -1    0    0    0  501 -0.00000000000E+00 -0.00000000000E+00 -0.10517311944E+02  0.10517311944E+02  0.00000000000E+00 0.  1.
         23    2    1    2    0    0  0.00000000000E+00  0.00000000000E+00  0.18155516375E+03  0.20258978764E+03  0.89890736847E+02 0.  0.
        -13    1    3    3    0    0  0.19415104157E+02 -0.31446418861E+02  0.14842484070E+03  0.15295671566E+03  0.00000000000E+00 0. -1.
         13    1    3    3    0    0 -0.19415104157E+02  0.31446418861E+02  0.33130323050E+02  0.49633071978E+02  0.00000000000E+00 0.  1.
<mgrwt>
<rscale>  0 0.89890737E+02</rscale>
<asrwt>0</asrwt>
<pdfrwt beam="1">  1        1 0.29549609E-01 0.89890737E+02</pdfrwt>
<pdfrwt beam="2">  1       -1 0.16180481E-02 0.89890737E+02</pdfrwt>
<totfact> 0.12204211E+05</totfact>
</mgrwt>
</event>
<event>
 5    1  0.1239369E+001  0.9000543E+02  0.7546771E-02  0.1302839E+00
         -4   -1    0    0    0  501 -0.00000000000E+00  0.00000000000E+00  0.95779249215E+01  0.95779249215E+01  0.00000000000E+00 0. -1.
          4   -1    0    0  501    0  0.00000000000E+00 -0.00000000000E+00 -0.21144917065E+03  0.21144917065E+03  0.00000000000E+00 0.  1.
         23    2    1    2    0    0  0.00000000000E+00  0.00000000000E+00 -0.20187124573E+03  0.22102709557E+03  0.90005428308E+02 0.  0.
        -13    1    3    3    0    0  0.27519142382E+02 -0.23105057971E+02 -0.34400088228E+02  0.49744476793E+02  0.00000000000E+00 0. -1.
         13    1    3    3    0    0 -0.27519142382E+02  0.23105057971E+02 -0.16747115750E+03  0.17128261878E+03  0.00000000000E+00 0.  1.
<mgrwt>
<rscale>  0 0.90005428E+02</rscale>
<asrwt>0</asrwt>
<pdfrwt beam="2">  1        4 0.32530646E-01 0.90005428E+02</pdfrwt>
<pdfrwt beam="1">  1       -4 0.14735267E-02 0.90005428E+02</pdfrwt>
<totfact> 0.21259234E+04</totfact>
</mgrwt>
</event>
<event>
 5    1  0.1239369E+001  0.8800355E+02  0.7546771E-02  0.1307760E+00
          2   -1    0    0  501    0  0.00000000000E+00  0.00000000000E+00  0.29025032207E+03  0.29025032207E+03  0.00000000000E+00 0. -1.
         -2   -1    0    0    0  501 -0.00000000000E+00 -0.00000000000E+00 -0.66706433029E+01  0.66706433029E+01  0.00000000000E+00 0.  1.
         23    2    1    2    0    0  0.00000000000E+00  0.00000000000E+00  0.28357967877E+03  0.29692096538E+03  0.88003553726E+02 0.  0.
        -11    1    3    3    0    0 -0.79103752980E+01  0.42217973724E+02  0.17401518975E+03  0.17923787995E+03  0.00000000000E+00 0. -1.
         11    1    3    3    0    0  0.79103752980E+01 -0.42217973724E+02  0.10956448902E+03  0.11768308543E+03  0.00000000000E+00 0.  1.
<mgrwt>
<rscale>  0 0.88003554E+02</rscale>
<asrwt>0</asrwt>
<pdfrwt beam="1">  1        2 0.44653886E-01 0.88003554E+02</pdfrwt>
<pdfrwt beam="2">  1       -2 0.10262530E-02 0.88003554E+02</pdfrwt>
<totfact> 0.19501820E+05</totfact>
</mgrwt>
</event>
<event>
 5    1  0.1239369E+001  0.9097034E+02  0.7546771E-02  0.1300519E+00
          2   -1    0    0  501    0  0.00000000000E+00  0.00000000000E+00  0.17428859140E+03  0.17428859140E+03  0.00000000000E+00 0.  1.
         -2   -1    0    0    0  501 -0.00000000000E+00 -0.00000000000E+00 -0.11870546289E+02  0.11870546289E+02  0.00000000000E+00 0. -1.
         23    2    1    2    0    0  0.00000000000E+00  0.00000000000E+00  0.16241804511E+03  0.18615913769E+03  0.90970342242E+02 0.  0.
        -13    1    3    3    0    0  0.38747574397E+02  0.18898377591E+02  0.51527630006E+02  0.67183479005E+02  0.00000000000E+00 0. -1.
         13    1    3    3    0    0 -0.38747574397E+02 -0.18898377591E+02  0.11089041510E+03  0.11897565868E+03  0.00000000000E+00 0.  1.
<mgrwt>
<rscale>  0 0.90970342E+02</rscale>
<asrwt>0</asrwt>
<pdfrwt beam="1">  1        2 0.26813628E-01 0.90970342E+02</pdfrwt>
<pdfrwt beam="2">  1       -2 0.18262380E-02 0.90970342E+02</pdfrwt>
<totfact> 0.14816416E+05</totfact>
</mgrwt>
</event>
<event>
 5    1  0.1239369E+001  0.8837820E+02  0.7546771E-02  0.1306827E+00
          4   -1    0    0  501    0  0.00000000000E+00  0.00000000000E+00  0.18981112642E+02  0.18981112642E+02  0.00000000000E+00 0. -1.
         -4   -1    0    0    0  501 -0.00000000000E+00 -0.00000000000E+00 -0.10287470817E+03  0.10287470817E+03  0.00000000000E+00 0.  1.
         23    2    1    2    0    0  0.00000000000E+00  0.00000000000E+00 -0.83893595525E+02  0.12185582081E+03  0.88378196944E+02 0.  0.
        -13    1    3    3    0    0  0.21728731560E+02  0.91208878347E+01 -0.93487868857E+02  0.96412187993E+02  0.00000000000E+00 0.  1.
         13    1    3    3    0    0 -0.21728731560E+02 -0.91208878347E+01  0.95942733325E+01  0.25443632816E+02  0.00000000000E+00 0. -1.
<mgrwt>
<rscale>  0 0.88378197E+02</rscale>
<asrwt>0</asrwt>
<pdfrwt beam="1">  1        4 0.29201712E-02 0.88378197E+02</pdfrwt>
<pdfrwt beam="2">  1       -4 0.15826878E-01 0.88378197E+02</pdfrwt>
<totfact> 0.27370025E+04</totfact>
</mgrwt>
</event>
<event>
 5    1  0.1239369E+001  0.9084905E+02  0.7546771E-02  0.1300809E+00
          2   -1    0    0  501    0  0.00000000000E+00  0.00000000000E+00  0.45731655852E+03  0.45731655852E+03  0.00000000000E+00 0. -1.
         -2   -1    0    0    0  501 -0.00000000000E+00 -0.00000000000E+00 -0.45119460495E+01  0.45119460495E+01  0.00000000000E+00 0.  1.
         23    2    1    2    0    0  0.00000000000E+00  0.00000000000E+00  0.45280461247E+03  0.46182850457E+03  0.90849053701E+02 0.  0.
        -11    1    3    3    0    0  0.32494166870E+02  0.31573028550E+02  0.20980446124E+03  0.21464072067E+03  0.00000000000E+00 0. -1.
         11    1    3    3    0    0 -0.32494166870E+02 -0.31573028550E+02  0.24300015123E+03  0.24718778390E+03  0.00000000000E+00 0.  1.
<mgrwt>
<rscale>  0 0.90849054E+02</rscale>
<asrwt>0</asrwt>
<pdfrwt beam="1">  1        2 0.70356357E-01 0.90849054E+02</pdfrwt>
<pdfrwt beam="2">  1       -2 0.69414591E-03 0.90849054E+02</pdfrwt>
<totfact> 0.21119466E+05</totfact>
</mgrwt>
</event>
<event>
 5    1  0.1239369E+001  0.9305801E+02  0.7546771E-02  0.1295611E+00
          1   -1    0    0  501    0  0.00000000000E+00  0.00000000000E+00  0.12190476305E+02  0.12190476305E+02  0.00000000000E+00 0. -1.
         -1   -1    0    0    0  501 -0.00000000000E+00 -0.00000000000E+00 -0.17759340561E+03  0.17759340561E+03  0.00000000000E+00 0.  1.
         23    2    1    2    0    0  0.00000000000E+00  0.00000000000E+00 -0.16540292931E+03  0.18978388192E+03  0.93058007780E+02 0.  0.
        -11    1    3    3    0    0 -0.26072658622E+02 -0.18356916913E+02 -0.15180688755E+03  0.15511960236E+03  0.00000000000E+00 0.  1.
         11    1    3    3    0    0  0.26072658622E+02  0.18356916913E+02 -0.13596041755E+02  0.34664279562E+02  0.00000000000E+00 0. -1.
<mgrwt>
<rscale>  0 0.93058008E+02</rscale>
<asrwt>0</asrwt>
<pdfrwt beam="1">  1        1 0.18754578E-02 0.93058008E+02</pdfrwt>
<pdfrwt beam="2">  1       -1 0.27322064E-01 0.93058008E+02</pdfrwt>
<totfact> 0.68007623E+04</totfact>
</mgrwt>
</event>
<event>
 5    1  0.1239369E+001  0.9449623E+02  0.7546771E-02  0.1292315E+00
         -4   -1    0    0    0  501 -0.00000000000E+00  0.00000000000E+00  0.12661117832E+03  0.12661117832E+03  0.00000000000E+00 0.  1.
          4   -1    0    0  501    0  0.00000000000E+00 -0.00000000000E+00 -0.17631812277E+02  0.17631812277E+02  0.00000000000E+00 0. -1.
         23    2    1    2    0    0  0.00000000000E+00  0.00000000000E+00  0.10897936605E+03  0.14424299060E+03  0.94496233328E+02 0.  0.
        -13    1    3    3    0    0  0.10708360221E+02 -0.26124247937E+02 -0.33388755310E+01  0.28430501204E+02  0.00000000000E+00 0. -1.
         13    1    3    3    0    0 -0.10708360221E+02  0.26124247937E+02  0.11231824158E+03  0.11581248939E+03  0.00000000000E+00 0.  1.
<mgrwt>
<rscale>  0 0.94496233E+02</rscale>
<asrwt>0</asrwt>
<pdfrwt beam="2">  1        4 0.27125866E-02 0.94496233E+02</pdfrwt>
<pdfrwt beam="1">  1       -4 0.19478642E-01 0.94496233E+02</pdfrwt>
<totfact> 0.21756829E+04</totfact>
</mgrwt>
</event>
<event>
 5    1  0.1239369E+001  0.9120709E+02  0.7546771E-02  0.1299955E+00
         -1   -1    0    0    0  501 -0.00000000000E+00  0.00000000000E+00  0.19199392585E+02  0.19199392585E+02  0.00000000000E+00 0.  1.
          1   -1    0    0  501    0  0.00000000000E+00 -0.00000000000E+00 -0.10832027309E+03  0.10832027309E+03  0.00000000000E+00 0. -1.
         23    2    1    2    0    0  0.00000000000E+00  0.00000000000E+00 -0.89120880507E+02  0.12751966568E+03  0.91207092881E+02 0.  0.
        -11    1    3    3    0    0 -0.20178297583E+02  0.18275856116E+02  0.65912303885E+01  0.28010978708E+02  0.00000000000E+00 0.  1.
         11    1    3    3    0    0  0.20178297583E+02 -0.18275856116E+02 -0.95712110895E+02  0.99508686968E+02  0.00000000000E+00 0. -1.
<mgrwt>
<rscale>  0 0.91207093E+02</rscale>
<asrwt>0</asrwt>
<pdfrwt beam="2">  1        1 0.16664658E-01 0.91207093E+02</pdfrwt>
<pdfrwt beam="1">  1       -1 0.29537527E-02 0.91207093E+02</pdfrwt>
<totfact> 0.10576718E+05</totfact>
</mgrwt>
</event>
<event>
 5    1  0.1239369E+001  0.9152633E+02  0.7546771E-02  0.1299197E+00
          1   -1    0    0  501    0  0.00000000000E+00  0.00000000000E+00  0.24868213057E+03  0.24868213057E+03  0.00000000000E+00 0. -1.
         -1   -1    0    0    0  501 -0.00000000000E+00 -0.00000000000E+00 -0.84214620920E+01  0.84214620920E+01  0.00000000000E+00 0.  1.
         23    2    1    2    0    0  0.00000000000E+00  0.00000000000E+00  0.24026066848E+03  0.25710359266E+03  0.91526327044E+02 0.  0.
        -13    1    3    3    0    0  0.11861409531E+02  0.35617456524E+02  0.46611575067E+02  0.59849270468E+02  0.00000000000E+00 0.  1.
         13    1    3    3    0    0 -0.11861409531E+02 -0.35617456524E+02  0.19364909341E+03  0.19725432219E+03  0.00000000000E+00 0. -1.
<mgrwt>
<rscale>  0 0.91526327E+02</rscale>
<asrwt>0</asrwt>
<pdfrwt beam="1">  1        1 0.38258784E-01 0.91526327E+02</pdfrwt>
<pdfrwt beam="2">  1       -1 0.12956097E-02 0.91526327E+02</pdfrwt>
<totfact> 0.12228527E+05</totfact>
</mgrwt>
</event>
<event>
 5    1  0.1239369E+001  0.9038703E+02  0.7546771E-02  0.1301917E+00
         -1   -1    0    0    0  501 -0.00000000000E+00  0.00000000000E+00  0.29810159561E+02  0.29810159561E+02  0.00000000000E+00 0.  1.
          1   -1    0    0  501    0  0.00000000000E+00 -0.00000000000E+00 -0.68515365308E+02  0.68515365308E+02  0.00000000000E+00 0. -1.
         23    2    1    2    0    0  0.00000000000E+00  0.00000000000E+00 -0.38705205746E+02  0.98325524869E+02  0.90387033854E+02 0.  0.
        -11    1    3    3    0    0 -0.34581544960E+02  0.21153866097E+02 -0.41084250836E+02  0.57717284841E+02  0.00000000000E+00 0. -1.
         11    1    3    3    0    0  0.34581544960E+02 -0.21153866097E+02  0.23790450896E+01  0.40608240028E+02  0.00000000000E+00 0.  1.
<mgrwt>
<rscale>  0 0.90387034E+02</rscale>
<asrwt>0</asrwt>
<pdfrwt beam="2">  1        1 0.10540825E-01 0.90387034E+02</pdfrwt>
<pdfrwt beam="1">  1       -1 0.45861785E-02 0.90387034E+02</pdfrwt>
<totfact> 0.10072849E+05</totfact>
</mgrwt>
</event>
<event>
 5    1  0.1239369E+001  0.9831279E+02  0.7546771E-02  0.1283884E+00
          3   -1    0    0  501    0  0.00000000000E+00  0.00000000000E+00  0.87234222514E+02  0.87234222514E+02  0.00000000000E+00 0. -1.
         -3   -1    0    0    0  501 -0.00000000000E+00 -0.00000000000E+00 -0.27699576081E+02  0.27699576081E+02  0.00000000000E+00 0.  1.
         23    2    1    2    0    0  0.00000000000E+00  0.00000000000E+00  0.59534646433E+02  0.11493379860E+03  0.98312786217E+02 0.  0.
        -11    1    3    3    0    0 -0.36626985511E+02  0.64239325164E+01  0.67351330454E+02  0.76935068015E+02  0.00000000000E+00 0.  1.
         11    1    3    3    0    0  0.36626985511E+02 -0.64239325164E+01 -0.78166840210E+01  0.37998730580E+02  0.00000000000E+00 0. -1.
<mgrwt>
<rscale>  0 0.98312786E+02</rscale>
<asrwt>0</asrwt>
<pdfrwt beam="1">  1        3 0.13420649E-01 0.98312786E+02</pdfrwt>
<pdfrwt beam="2">  1       -3 0.42614733E-02 0.98312786E+02</pdfrwt>
<totfact> 0.27344717E+04</totfact>
</mgrwt>
</event>
<event>
 5    1  0.1239369E+001  0.9439144E+02  0.7546771E-02  0.1292553E+00
         -2   -1    0    0    0  501 -0.00000000000E+00  0.00000000000E+00  0.57115420145E+01  0.57115420145E+01  0.00000000000E+00 0. -1.
          2   -1    0    0  501    0  0.00000000000E+00 -0.00000000000E+00 -0.38998850991E+03  0.38998850991E+03  0.00000000000E+00 0.  1.
         23    2    1    2    0    0  0.00000000000E+00  0.00000000000E+00 -0.38427696790E+03  0.39570005193E+03  0.94391435195E+02 0.  0.
        -13    1    3    3    0    0 -0.44268319662E+02 -0.58647633054E+00 -0.26069053533E+03  0.26442311413E+03  0.00000000000E+00 0.  1.
         13    1    3    3    0    0  0.44268319662E+02  0.58647633054E+00 -0.12358643257E+03  0.13127693779E+03  0.00000000000E+00 0. -1.
<mgrwt>
<rscale>  0 0.94391435E+02</rscale>
<asrwt>0</asrwt>
<pdfrwt beam="2">  1        2 0.59998221E-01 0.94391435E+02</pdfrwt>
<pdfrwt beam="1">  1       -2 0.87869893E-03 0.94391435E+02</pdfrwt>
<totfact> 0.18038735E+05</totfact>
</mgrwt>
</event>
<event>
 5    1  0.1239369E+001  0.9411092E+02  0.7546771E-02  0.1293191E+00
          1   -1    0    0  501    0  0.00000000000E+00  0.00000000000E+00  0.41926243607E+03  0.41926243607E+03  0.00000000000E+00 0. -1.
         -1   -1    0    0    0  501 -0.00000000000E+00 -0.00000000000E+00 -0.52812184805E+01  0.52812184805E+01  0.00000000000E+00 0.  1.
         23    2    1    2    0    0  0.00000000000E+00  0.00000000000E+00  0.41398121759E+03  0.42454365455E+03  0.94110924457E+02 0.  0.
        -13    1    3    3    0    0 -0.14977469856E+01 -0.47030752911E+02  0.20570229592E+03  0.21101556699E+03  0.00000000000E+00 0.  1.
         13    1    3    3    0    0  0.14977469856E+01  0.47030752911E+02  0.20827892166E+03  0.21352808756E+03  0.00000000000E+00 0. -1.
<mgrwt>
<rscale>  0 0.94110924E+02</rscale>
<asrwt>0</asrwt>
<pdfrwt beam="1">  1        1 0.64501887E-01 0.94110924E+02</pdfrwt>
<pdfrwt beam="2">  1       -1 0.81249548E-03 0.94110924E+02</pdfrwt>
<totfact> 0.12493141E+05</totfact>
</mgrwt>
</event>
<event>
 5    1  0.1239369E+001  0.9075610E+02  0.7546771E-02  0.1301031E+00
         -2   -1    0    0    0  501 -0.00000000000E+00  0.00000000000E+00  0.15906414028E+02  0.15906414028E+02  0.00000000000E+00 0.  1.
          2   -1    0    0  501    0  0.00000000000E+00 -0.00000000000E+00 -0.12945514975E+03  0.12945514975E+03  0.00000000000E+00 0. -1.
         23    2    1    2    0    0  0.00000000000E+00  0.00000000000E+00 -0.11354873573E+03  0.14536156378E+03  0.90756095333E+02 0.  0.
        -11    1    3    3    0    0  0.83837574345E+01  0.44566753122E+02 -0.54150195602E+02  0.70630917850E+02  0.00000000000E+00 0.  1.
         11    1    3    3    0    0 -0.83837574345E+01 -0.44566753122E+02 -0.59398540124E+02  0.74730645932E+02  0.00000000000E+00 0. -1.
<mgrwt>
<rscale>  0 0.90756095E+02</rscale>
<asrwt>0</asrwt>
<pdfrwt beam="2">  1        2 0.19916177E-01 0.90756095E+02</pdfrwt>
<pdfrwt beam="1">  1       -2 0.24471407E-02 0.90756095E+02</pdfrwt>
<totfact> 0.13478551E+05</totfact>
</mgrwt>
</event>
<event>
 5    1  0.1239369E+001  0.9097621E+02  0.7546771E-02  0.1300505E+00
         -3   -1    0    0    0  501 -0.00000000000E+00  0.00000000000E+00  0.13543433399E+02  0.13543433399E+02  0.00000000000E+00 0.  1.
          3   -1    0    0  501    0  0.00000000000E+00 -0.00000000000E+00 -0.15278014020E+03  0.15278014020E+03  0.00000000000E+00 0. -1.
         23    2    1    2    0    0  0.00000000000E+00  0.00000000000E+00 -0.13923670680E+03  0.16632357360E+03  0.90976209055E+02 0.  0.
        -13    1    3    3    0    0  0.22609860754E+02  0.12883906447E+02 -0.13782715369E+03  0.14026234400E+03  0.00000000000E+00 0. -1.
         13    1    3    3    0    0 -0.22609860754E+02 -0.12883906447E+02 -0.14095531149E+01  0.26061229607E+02  0.00000000000E+00 0.  1.
<mgrwt>
<rscale>  0 0.90976209E+02</rscale>
<asrwt>0</asrwt>
<pdfrwt beam="2">  1        3 0.23504636E-01 0.90976209E+02</pdfrwt>
<pdfrwt beam="1">  1       -3 0.20836052E-02 0.90976209E+02</pdfrwt>
<totfact> 0.30518704E+04</totfact>
</mgrwt>
</event>
<event>
 5    1  0.1239369E+001  0.9358305E+02  0.7546771E-02  0.1294400E+00
          2   -1    0    0  501    0  0.00000000000E+00  0.00000000000E+00  0.37149982206E+02  0.37149982206E+02  0.00000000000E+00 0. -1.
         -2   -1    0    0    0  501 -0.00000000000E+00 -0.00000000000E+00 -0.58935341327E+02  0.58935341327E+02  0.00000000000E+00 0.  1.
         23    2    1    2    0    0  0.00000000000E+00  0.00000000000E+00 -0.21785359122E+02  0.96085323533E+02  0.93583051491E+02 0.  0.
        -13    1    3    3    0    0 -0.25280114417E+02  0.14049300975E+02 -0.48659073340E+02  0.56605410175E+02  0.00000000000E+00 0.  1.
         13    1    3    3    0    0  0.25280114417E+02 -0.14049300975E+02  0.26873714219E+02  0.39479913358E+02  0.00000000000E+00 0. -1.
<mgrwt>
<rscale>  0 0.93583051E+02</rscale>
<asrwt>0</asrwt>
<pdfrwt beam="1">  1        2 0.57153819E-02 0.93583051E+02</pdfrwt>
<pdfrwt beam="2">  1       -2 0.90669756E-02 0.93583051E+02</pdfrwt>
<totfact> 0.86714267E+04</totfact>
</mgrwt>
</event>
<event>
 5    1  0.1239369E+001  0.8889073E+02  0.7546771E-02  0.1305560E+00
          1   -1    0    0  501    0  0.00000000000E+00  0.00000000000E+00  0.63534479043E+01  0.63534479043E+01  0.00000000000E+00 0. -1.
         -1   -1    0    0    0  501 -0.00000000000E+00 -0.00000000000E+00 -0.31091628339E+03  0.31091628339E+03  0.00000000000E+00 0.  1.
         23    2    1    2    0    0  0.00000000000E+00  0.00000000000E+00 -0.30456283549E+03  0.31726973130E+03  0.88890728631E+02 0.  0.
        -13    1    3    3    0    0  0.14067122698E+02 -0.36276253790E+02 -0.75602355908E+02  0.85026858985E+02  0.00000000000E+00 0. -1.
         13    1    3    3    0    0 -0.14067122698E+02  0.36276253790E+02 -0.22896047958E+03  0.23224287231E+03  0.00000000000E+00 0.  1.
<mgrwt>
<rscale>  0 0.88890729E+02</rscale>
<asrwt>0</asrwt>
<pdfrwt beam="1">  1        1 0.97745349E-03 0.88890729E+02</pdfrwt>
<pdfrwt beam="2">  1       -1 0.47833276E-01 0.88890729E+02</pdfrwt>
<totfact> 0.63823421E+04</totfact>
</mgrwt>
</event>
<event>
 5    1  0.1239369E+001  0.9248019E+02  0.7546771E-02  0.1296954E+00
         -2   -1    0    0    0  501 -0.00000000000E+00  0.00000000000E+00  0.16733188267E+02  0.16733188267E+02  0.00000000000E+00 0. -1.
          2   -1    0    0  501    0  0.00000000000E+00 -0.00000000000E+00 -0.12777877180E+03  0.12777877180E+03  0.00000000000E+00 0.  1.
         23    2    1    2    0    0  0.00000000000E+00  0.00000000000E+00 -0.11104558353E+03  0.14451196007E+03  0.92480186959E+02 0.  0.
        -13    1    3    3    0    0 -0.61110382850E+01  0.36823695535E+02 -0.98168944168E+02  0.10502604887E+03  0.00000000000E+00 0.  1.
         13    1    3    3    0    0  0.61110382850E+01 -0.36823695535E+02 -0.12876639365E+02  0.39485911198E+02  0.00000000000E+00 0. -1.
<mgrwt>
<rscale>  0 0.92480187E+02</rscale>
<asrwt>0</asrwt>
<pdfrwt beam="2">  1        2 0.19658274E-01 0.92480187E+02</pdfrwt>
<pdfrwt beam="1">  1       -2 0.25743365E-02 0.92480187E+02</pdfrwt>
<totfact> 0.12748814E+05</totfact>
</mgrwt>
</event>
<event>
 5    1  0.1239369E+001  0.9369652E+02  0.7546771E-02  0.1294139E+00
         -1   -1    0    0    0  501 -0.00000000000E+00  0.00000000000E+00  0.10817269929E+02  0.10817269929E+02  0.00000000000E+00 0.  1.
          1   -1    0    0  501    0  0.00000000000E+00 -0.00000000000E+00 -0.20289402485E+03  0.20289402485E+03  0.00000000000E+00 0. -1.
         23    2    1    2    0    0  0.00000000000E+00  0.00000000000E+00 -0.19207675492E+03  0.21371129478E+03  0.93696519336E+02 0.  0.
        -11    1    3    3    0    0 -0.25058904561E+02 -0.37143695590E+02 -0.64834640565E+02  0.78810744427E+02  0.00000000000E+00 0.  1.
         11    1    3    3    0    0  0.25058904561E+02  0.37143695590E+02 -0.12724211436E+03  0.13490055036E+03  0.00000000000E+00 0. -1.
<mgrwt>
<rscale>  0 0.93696519E+02</rscale>
<asrwt>0</asrwt>
<pdfrwt beam="2">  1        1 0.31214466E-01 0.93696519E+02</pdfrwt>
<pdfrwt beam="1">  1       -1 0.16641953E-02 0.93696519E+02</pdfrwt>
<totfact> 0.11034992E+05</totfact>
</mgrwt>
</event>
<event>
 5    1  0.1239369E+001  0.9099258E+02  0.7546771E-02  0.1300466E+00
         -1   -1    0    0    0  501 -0.00000000000E+00  0.00000000000E+00  0.11627468442E+02  0.11627468442E+02  0.00000000000E+00 0.  1.
          1   -1    0    0  501    0  0.00000000000E+00 -0.00000000000E+00 -0.17801918099E+03  0.17801918099E+03  0.00000000000E+00 0. -1.
         23    2    1    2    0    0  0.00000000000E+00  0.00000000000E+00 -0.16639171255E+03  0.18964664943E+03  0.90992580114E+02 0.  0.
        -13    1    3    3    0    0  0.43910429911E+02  0.49707901708E+01 -0.10574741003E+03  0.11460955169E+03  0.00000000000E+00 0.  1.
         13    1    3    3    0    0 -0.43910429911E+02 -0.49707901708E+01 -0.60644302517E+02  0.75037097743E+02  0.00000000000E+00 0. -1.
<mgrwt>
<rscale>  0 0.90992580E+02</rscale>
<asrwt>0</asrwt>
<pdfrwt beam="2">  1        1 0.27387563E-01 0.90992580E+02</pdfrwt>
<pdfrwt beam="1">  1       -1 0.17888415E-02 0.90992580E+02</pdfrwt>
<totfact> 0.11641254E+05</totfact>
</mgrwt>
</event>
<event>
 5    1  0.1239369E+001  0.9142389E+02  0.7546771E-02  0.1299440E+00
          1   -1    0    0  501    0  0.00000000000E+00  0.00000000000E+00  0.35374762155E+02  0.35374762155E+02  0.00000000000E+00 0. -1.
         -1   -1    0    0    0  501 -0.00000000000E+00 -0.00000000000E+00 -0.59069850369E+02  0.59069850369E+02  0.00000000000E+00 0.  1.
         23    2    1    2    0    0  0.00000000000E+00  0.00000000000E+00 -0.23695088214E+02  0.94444612524E+02  0.91423889818E+02 0.  0.
        -13    1    3    3    0    0  0.44390706211E+02 -0.10910847036E+02 -0.11871245329E+02  0.47228252632E+02  0.00000000000E+00 0.  1.
         13    1    3    3    0    0 -0.44390706211E+02  0.10910847036E+02 -0.11823842885E+02  0.47216359893E+02  0.00000000000E+00 0. -1.
<mgrwt>
<rscale>  0 0.91423890E+02</rscale>
<asrwt>0</asrwt>
<pdfrwt beam="1">  1        1 0.54422711E-02 0.91423890E+02</pdfrwt>
<pdfrwt beam="2">  1       -1 0.90876692E-02 0.91423890E+02</pdfrwt>
<totfact> 0.88288185E+04</totfact>
</mgrwt>
</event>
<event>
 5    1  0.1239369E+001  0.9035214E+02  0.7546771E-02  0.1302001E+00
         -1   -1    0    0    0  501 -0.00000000000E+00  0.00000000000E+00  0.25170973058E+02  0.25170973058E+02  0.00000000000E+00 0. -1.
          1   -1    0    0  501    0  0.00000000000E+00 -0.00000000000E+00 -0.81080590403E+02  0.81080590403E+02  0.00000000000E+00 0.  1.
         23    2    1    2    0    0  0.00000000000E+00  0.00000000000E+00 -0.55909617344E+02  0.10625156346E+03  0.90352141238E+02 0.  0.
        -13    1    3    3    0    0 -0.12783407529E+01  0.35435176127E+02  0.49638201203E+01  0.35803985426E+02  0.00000000000E+00 0. -1.
         13    1    3    3    0    0  0.12783407529E+01 -0.35435176127E+02 -0.60873437465E+02  0.70447578035E+02  0.00000000000E+00 0.  1.
<mgrwt>
<rscale>  0 0.90352141E+02</rscale>
<asrwt>0</asrwt>
<pdfrwt beam="2">  1        1 0.12473937E-01 0.90352141E+02</pdfrwt>
<pdfrwt beam="1">  1       -1 0.38724573E-02 0.90352141E+02</pdfrwt>
<totfact> 0.10350314E+05</totfact>
</mgrwt>
</event>
<event>
 5    1  0.1239369E+001  0.1157387E+03  0.7546771E-02  0.1250297E+00
          2   -1    0    0  501    0  0.00000000000E+00  0.00000000000E+00  0.16398257534E+03  0.16398257534E+03  0.00000000000E+00 0.  1.
         -2   -1    0    0    0  501 -0.00000000000E+00 -0.00000000000E+00 -0.20422043609E+02  0.20422043609E+02  0.00000000000E+00 0. -1.
         23    2    1    2    0    0  0.00000000000E+00  0.00000000000E+00  0.14356053173E+03  0.18440461895E+03  0.11573865914E+03 0.  0.
        -11    1    3    3    0    0 -0.55510025797E+02  0.14896883478E+02  0.61023623904E+02  0.83828174117E+02  0.00000000000E+00 0. -1.
         11    1    3    3    0    0  0.55510025797E+02 -0.14896883478E+02  0.82536907822E+02  0.10057644483E+03  0.00000000000E+00 0.  1.
<mgrwt>
<rscale>  0 0.11573866E+03</rscale>
<asrwt>0</asrwt>
<pdfrwt beam="1">  1        2 0.25228088E-01 0.11573866E+03</pdfrwt>
<pdfrwt beam="2">  1       -2 0.31418530E-02 0.11573866E+03</pdfrwt>
<totfact> 0.74791387E+04</totfact>
</mgrwt>
</event>
<event>
 5    1  0.1239369E+001  0.8996703E+02  0.7546771E-02  0.1302932E+00
         -2   -1    0    0    0  501 -0.00000000000E+00  0.00000000000E+00  0.11572000012E+02  0.11572000012E+02  0.00000000000E+00 0.  1.
          2   -1    0    0  501    0  0.00000000000E+00 -0.00000000000E+00 -0.17486316703E+03  0.17486316703E+03  0.00000000000E+00 0. -1.
         23    2    1    2    0    0  0.00000000000E+00  0.00000000000E+00 -0.16329116702E+03  0.18643516704E+03  0.89967028873E+02 0.  0.
        -11    1    3    3    0    0 -0.20127266668E+02 -0.19714318112E+02 -0.15431535951E+03  0.15686615755E+03  0.00000000000E+00 0. -1.
         11    1    3    3    0    0  0.20127266668E+02  0.19714318112E+02 -0.89758075050E+01  0.29569009495E+02  0.00000000000E+00 0.  1.
<mgrwt>
<rscale>  0 0.89967029E+02</rscale>
<asrwt>0</asrwt>
<pdfrwt beam="2">  1        2 0.26902026E-01 0.89967029E+02</pdfrwt>
<pdfrwt beam="1">  1       -2 0.17803077E-02 0.89967029E+02</pdfrwt>
<totfact> 0.15283943E+05</totfact>
</mgrwt>
</event>
<event>
 5    1  0.1239369E+001  0.9026248E+02  0.7546771E-02  0.1302217E+00
         -2   -1    0    0    0  501 -0.00000000000E+00  0.00000000000E+00  0.14352628643E+02  0.14352628643E+02  0.00000000000E+00 0.  1.
          2   -1    0    0  501    0  0.00000000000E+00 -0.00000000000E+00 -0.14191329607E+03  0.14191329607E+03  0.00000000000E+00 0. -1.
         23    2    1    2    0    0  0.00000000000E+00  0.00000000000E+00 -0.12756066743E+03  0.15626592471E+03  0.90262480312E+02 0.  0.
        -13    1    3    3    0    0 -0.10431602157E+02  0.38901214396E+02 -0.28524807626E+02  0.49353697482E+02  0.00000000000E+00 0.  1.
         13    1    3    3    0    0  0.10431602157E+02 -0.38901214396E+02 -0.99035859802E+02  0.10691222723E+03  0.00000000000E+00 0. -1.
<mgrwt>
<rscale>  0 0.90262480E+02</rscale>
<asrwt>0</asrwt>
<pdfrwt beam="2">  1        2 0.21832815E-01 0.90262480E+02</pdfrwt>
<pdfrwt beam="1">  1       -2 0.22080967E-02 0.90262480E+02</pdfrwt>
<totfact> 0.14102328E+05</totfact>
</mgrwt>
</event>
<event>
 5    1  0.1239369E+001  0.9302600E+02  0.7546771E-02  0.1295685E+00
          1   -1    0    0  501    0  0.00000000000E+00  0.00000000000E+00  0.43684794956E+02  0.43684794956E+02  0.00000000000E+00 0. -1.
         -1   -1    0    0    0  501 -0.00000000000E+00 -0.00000000000E+00 -0.49524309800E+02  0.49524309800E+02  0.00000000000E+00 0.  1.
         23    2    1    2    0    0  0.00000000000E+00  0.00000000000E+00 -0.58395148442E+01  0.93209104756E+02  0.93026003224E+02 0.  0.
        -11    1    3    3    0    0 -0.13790040377E+02 -0.22665103252E+01  0.41531479261E+02  0.43819699363E+02  0.00000000000E+00 0. -1.
         11    1    3    3    0    0  0.13790040377E+02  0.22665103252E+01 -0.47370994105E+02  0.49389405393E+02  0.00000000000E+00 0.  1.
<mgrwt>
<rscale>  0 0.93026003E+02</rscale>
<asrwt>0</asrwt>
<pdfrwt beam="1">  1        1 0.67207377E-02 0.93026003E+02</pdfrwt>
<pdfrwt beam="2">  1       -1 0.76191246E-02 0.93026003E+02</pdfrwt>
<totfact> 0.86822775E+04</totfact>
</mgrwt>
</event>
<event>
 5    1  0.1239369E+001  0.9329883E+02  0.7546771E-02  0.1295054E+00
         -2   -1    0    0    0  501 -0.00000000000E+00  0.00000000000E+00  0.12629055798E+02  0.12629055798E+02  0.00000000000E+00 0.  1.
          2   -1    0    0  501    0  0.00000000000E+00 -0.00000000000E+00 -0.17231438047E+03  0.17231438047E+03  0.00000000000E+00 0. -1.
         23    2    1    2    0    0  0.00000000000E+00  0.00000000000E+00 -0.15968532467E+03  0.18494343626E+03  0.93298830124E+02 0.  0.
        -11    1    3    3    0    0 -0.17107279978E+02 -0.25230490556E+02 -0.98449288393E+01  0.32033721385E+02  0.00000000000E+00 0.  1.
         11    1    3    3    0    0  0.17107279978E+02  0.25230490556E+02 -0.14984039583E+03  0.15290971488E+03  0.00000000000E+00 0. -1.
<mgrwt>
<rscale>  0 0.93298830E+02</rscale>
<asrwt>0</asrwt>
<pdfrwt beam="2">  1        2 0.26509905E-01 0.93298830E+02</pdfrwt>
<pdfrwt beam="1">  1       -2 0.19429316E-02 0.93298830E+02</pdfrwt>
<totfact> 0.13780929E+05</totfact>
</mgrwt>
</event>
<event>
 5    1  0.1239369E+001  0.9078787E+02  0.7546771E-02  0.1300955E+00
         -2   -1    0    0    0  501 -0.00000000000E+00  0.00000000000E+00  0.11698142433E+02  0.11698142433E+02  0.00000000000E+00 0.  1.
          2   -1    0    0  501    0  0.00000000000E+00 -0.00000000000E+00 -0.17614843279E+03  0.17614843279E+03  0.00000000000E+00 0. -1.
         23    2    1    2    0    0  0.00000000000E+00  0.00000000000E+00 -0.16445029036E+03  0.18784657522E+03  0.90787872672E+02 0.  0.
        -11    1    3    3    0    0 -0.71014638869E+01 -0.43012819663E+02 -0.56047018266E+02  0.71005645558E+02  0.00000000000E+00 0.  1.
         11    1    3    3    0    0  0.71014638869E+01  0.43012819663E+02 -0.10840327209E+03  0.11684092967E+03  0.00000000000E+00 0. -1.
<mgrwt>
<rscale>  0 0.90787873E+02</rscale>
<asrwt>0</asrwt>
<pdfrwt beam="2">  1        2 0.27099758E-01 0.90787873E+02</pdfrwt>
<pdfrwt beam="1">  1       -2 0.17997143E-02 0.90787873E+02</pdfrwt>
<totfact> 0.14952605E+05</totfact>
</mgrwt>
</event>
<event>
 5    1  0.1239369E+001  0.9210648E+02  0.7546771E-02  0.1297829E+00
         -4   -1    0    0    0  501 -0.00000000000E+00  0.00000000000E+00  0.58549520134E+02  0.58549520134E+02  0.00000000000E+00 0.  1.
          4   -1    0    0  501    0  0.00000000000E+00 -0.00000000000E+00 -0.36224052593E+02  0.36224052593E+02  0.00000000000E+00 0. -1.
         23    2    1    2    0    0  0.00000000000E+00  0.00000000000E+00  0.22325467541E+02  0.94773572727E+02  0.92106479612E+02 0.  0.
        -11    1    3    3    0    0 -0.20325807845E+02 -0.38925819136E+02  0.25440523367E+02  0.50750153588E+02  0.00000000000E+00 0.  1.
         11    1    3    3    0    0  0.20325807845E+02  0.38925819136E+02 -0.31150558267E+01  0.44023419140E+02  0.00000000000E+00 0. -1.
<mgrwt>
<rscale>  0 0.92106480E+02</rscale>
<asrwt>0</asrwt>
<pdfrwt beam="2">  1        4 0.55729312E-02 0.92106480E+02</pdfrwt>
<pdfrwt beam="1">  1       -4 0.90076185E-02 0.92106480E+02</pdfrwt>
<totfact> 0.26057473E+04</totfact>
</mgrwt>
</event>
<event>
 5    1  0.1239369E+001  0.9533847E+02  0.7546771E-02  0.1290416E+00
          1   -1    0    0  501    0  0.00000000000E+00  0.00000000000E+00  0.18520280041E+02  0.18520280041E+02  0.00000000000E+00 0. -1.
         -1   -1    0    0    0  501 -0.00000000000E+00 -0.00000000000E+00 -0.12269554446E+03  0.12269554446E+03  0.00000000000E+00 0.  1.
         23    2    1    2    0    0  0.00000000000E+00  0.00000000000E+00 -0.10417526442E+03  0.14121582451E+03  0.95338467436E+02 0.  0.
        -13    1    3    3    0    0 -0.18487662704E+02 -0.43551279161E+02 -0.60705172813E+02  0.76965093354E+02  0.00000000000E+00 0.  1.
         13    1    3    3    0    0  0.18487662704E+02  0.43551279161E+02 -0.43470091611E+02  0.64250731151E+02  0.00000000000E+00 0. -1.
<mgrwt>
<rscale>  0 0.95338467E+02</rscale>
<asrwt>0</asrwt>
<pdfrwt beam="1">  1        1 0.28492739E-02 0.95338467E+02</pdfrwt>
<pdfrwt beam="2">  1       -1 0.18876238E-01 0.95338467E+02</pdfrwt>
<totfact> 0.69636152E+04</totfact>
</mgrwt>
</event>
<event>
 5    1  0.1239369E+001  0.8887579E+02  0.7546771E-02  0.1305597E+00
         -1   -1    0    0    0  501 -0.00000000000E+00  0.00000000000E+00  0.77636519160E+02  0.77636519160E+02  0.00000000000E+00 0.  1.
          1   -1    0    0  501    0  0.00000000000E+00 -0.00000000000E+00 -0.25435536232E+02  0.25435536232E+02  0.00000000000E+00 0. -1.
         23    2    1    2    0    0  0.00000000000E+00  0.00000000000E+00  0.52200982928E+02  0.10307205539E+03  0.88875789640E+02 0.  0.
        -13    1    3    3    0    0  0.31108062894E+02  0.11961086885E+02  0.60188458008E+02  0.68799924810E+02  0.00000000000E+00 0.  1.
         13    1    3    3    0    0 -0.31108062894E+02 -0.11961086885E+02 -0.79874750799E+01  0.34272130582E+02  0.00000000000E+00 0. -1.
<mgrwt>
<rscale>  0 0.88875790E+02</rscale>
<asrwt>0</asrwt>
<pdfrwt beam="2">  1        1 0.39131595E-02 0.88875790E+02</pdfrwt>
<pdfrwt beam="1">  1       -1 0.11944080E-01 0.88875790E+02</pdfrwt>
<totfact> 0.90819381E+04</totfact>
</mgrwt>
</event>
<event>
 5    1  0.1239369E+001  0.9129433E+02  0.7546771E-02  0.1299747E+00
          1   -1    0    0  501    0  0.00000000000E+00  0.00000000000E+00  0.14002319333E+03  0.14002319333E+03  0.00000000000E+00 0. -1.
         -1   -1    0    0    0  501 -0.00000000000E+00 -0.00000000000E+00 -0.14880847209E+02  0.14880847209E+02  0.00000000000E+00 0.  1.
         23    2    1    2    0    0  0.00000000000E+00  0.00000000000E+00  0.12514234612E+03  0.15490404054E+03  0.91294331602E+02 0.  0.
        -13    1    3    3    0    0 -0.39214333234E+02  0.96458249727E+00  0.22961159639E+02  0.45452273896E+02  0.00000000000E+00 0.  1.
         13    1    3    3    0    0  0.39214333234E+02 -0.96458249727E+00  0.10218118648E+03  0.10945176664E+03  0.00000000000E+00 0. -1.
<mgrwt>
<rscale>  0 0.91294332E+02</rscale>
<asrwt>0</asrwt>
<pdfrwt beam="1">  1        1 0.21542029E-01 0.91294332E+02</pdfrwt>
<pdfrwt beam="2">  1       -1 0.22893612E-02 0.91294332E+02</pdfrwt>
<totfact> 0.11034833E+05</totfact>
</mgrwt>
</event>
<event>
 5    1  0.1239369E+001  0.9073546E+02  0.7546771E-02  0.1301080E+00
          1   -1    0    0  501    0  0.00000000000E+00  0.00000000000E+00  0.36299976270E+02  0.36299976270E+02  0.00000000000E+00 0. -1.
         -1   -1    0    0    0  501 -0.00000000000E+00 -0.00000000000E+00 -0.56700612993E+02  0.56700612993E+02  0.00000000000E+00 0.  1.
         23    2    1    2    0    0  0.00000000000E+00  0.00000000000E+00 -0.20400636723E+02  0.93000589263E+02  0.90735459576E+02 0.  0.
        -13    1    3    3    0    0  0.42231821066E+02 -0.16212614074E+02 -0.13729432237E+02  0.47274442093E+02  0.00000000000E+00 0. -1.
         13    1    3    3    0    0 -0.42231821066E+02  0.16212614074E+02 -0.66712044866E+01  0.45726147170E+02  0.00000000000E+00 0.  1.
<mgrwt>
<rscale>  0 0.90735460E+02</rscale>
<asrwt>0</asrwt>
<pdfrwt beam="1">  1        1 0.55846118E-02 0.90735460E+02</pdfrwt>
<pdfrwt beam="2">  1       -1 0.87231712E-02 0.90735460E+02</pdfrwt>
<totfact> 0.90565202E+04</totfact>
</mgrwt>
</event>
<event>
 5    1  0.1239369E+001  0.9130965E+02  0.7546771E-02  0.1299711E+00
          1   -1    0    0  501    0  0.00000000000E+00  0.00000000000E+00  0.77062339114E+01  0.77062339114E+01  0.00000000000E+00 0. -1.
         -1   -1    0    0    0  501 -0.00000000000E+00 -0.00000000000E+00 -0.27047754113E+03  0.27047754113E+03  0.00000000000E+00 0.  1.
         23    2    1    2    0    0  0.00000000000E+00  0.00000000000E+00 -0.26277130721E+03  0.27818377504E+03  0.91309653371E+02 0.  0.
        -13    1    3    3    0    0 -0.24848275611E+02 -0.38272745013E+02 -0.13582510990E+03  0.14328538059E+03  0.00000000000E+00 0.  1.
         13    1    3    3    0    0  0.24848275611E+02  0.38272745013E+02 -0.12694619731E+03  0.13489839444E+03  0.00000000000E+00 0. -1.
<mgrwt>
<rscale>  0 0.91309653E+02</rscale>
<asrwt>0</asrwt>
<pdfrwt beam="1">  1        1 0.11855743E-02 0.91309653E+02</pdfrwt>
<pdfrwt beam="2">  1       -1 0.41611934E-01 0.91309653E+02</pdfrwt>
<totfact> 0.62763377E+04</totfact>
</mgrwt>
</event>
<event>
 5    1  0.1239369E+001  0.8788702E+02  0.7546771E-02  0.1308051E+00
         -2   -1    0    0    0  501 -0.00000000000E+00  0.00000000000E+00  0.11498020587E+02  0.11498020587E+02  0.00000000000E+00 0. -1.
          2   -1    0    0  501    0  0.00000000000E+00 -0.00000000000E+00 -0.16794474992E+03  0.16794474992E+03  0.00000000000E+00 0.  1.
         23    2    1    2    0    0  0.00000000000E+00  0.00000000000E+00 -0.15644672933E+03  0.17944277051E+03  0.87887022753E+02 0.  0.
        -13    1    3    3    0    0  0.37734540985E+02 -0.18364793483E+02 -0.10483434019E+03  0.11292209751E+03  0.00000000000E+00 0.  1.
         13    1    3    3    0    0 -0.37734540985E+02  0.18364793483E+02 -0.51612389147E+02  0.66520673001E+02  0.00000000000E+00 0. -1.
<mgrwt>
<rscale>  0 0.87887023E+02</rscale>
<asrwt>0</asrwt>
<pdfrwt beam="2">  1        2 0.25837652E-01 0.87887023E+02</pdfrwt>
<pdfrwt beam="1">  1       -2 0.17689264E-02 0.87887023E+02</pdfrwt>
<totfact> 0.16050346E+05</totfact>
</mgrwt>
</event>
<event>
 5    1  0.1239369E+001  0.9042234E+02  0.7546771E-02  0.1301832E+00
          2   -1    0    0  501    0  0.00000000000E+00  0.00000000000E+00  0.74558095302E+02  0.74558095302E+02  0.00000000000E+00 0. -1.
         -2   -1    0    0    0  501 -0.00000000000E+00 -0.00000000000E+00 -0.27415534174E+02  0.27415534174E+02  0.00000000000E+00 0.  1.
         23    2    1    2    0    0  0.00000000000E+00  0.00000000000E+00  0.47142561128E+02  0.10197362948E+03  0.90422342586E+02 0.  0.
        -13    1    3    3    0    0  0.53862175759E+01 -0.42085204553E+02  0.59598320912E+01  0.42845015820E+02  0.00000000000E+00 0.  1.
         13    1    3    3    0    0 -0.53862175759E+01  0.42085204553E+02  0.41182729036E+02  0.59128613656E+02  0.00000000000E+00 0. -1.
<mgrwt>
<rscale>  0 0.90422343E+02</rscale>
<asrwt>0</asrwt>
<pdfrwt beam="1">  1        2 0.11470476E-01 0.90422343E+02</pdfrwt>
<pdfrwt beam="2">  1       -2 0.42177745E-02 0.90422343E+02</pdfrwt>
<totfact> 0.11522046E+05</totfact>
</mgrwt>
</event>
<event>
 5    1  0.1239369E+001  0.9309905E+02  0.7546771E-02  0.1295516E+00
         -1   -1    0    0    0  501 -0.00000000000E+00  0.00000000000E+00  0.12788358429E+03  0.12788358429E+03  0.00000000000E+00 0.  1.
          1   -1    0    0  501    0  0.00000000000E+00 -0.00000000000E+00 -0.16943992444E+02  0.16943992444E+02  0.00000000000E+00 0. -1.
         23    2    1    2    0    0  0.00000000000E+00  0.00000000000E+00  0.11093959185E+03  0.14482757673E+03  0.93099054472E+02 0.  0.
        -11    1    3    3    0    0  0.30835646779E+02 -0.13835253995E+02  0.10526467461E+03  0.11055723896E+03  0.00000000000E+00 0.  1.
         11    1    3    3    0    0 -0.30835646779E+02  0.13835253995E+02  0.56749172327E+01  0.34270337772E+02  0.00000000000E+00 0. -1.
<mgrwt>
<rscale>  0 0.93099054E+02</rscale>
<asrwt>0</asrwt>
<pdfrwt beam="2">  1        1 0.26067682E-02 0.93099054E+02</pdfrwt>
<pdfrwt beam="1">  1       -1 0.19674397E-01 0.93099054E+02</pdfrwt>
<totfact> 0.73416510E+04</totfact>
</mgrwt>
</event>
<event>
 5    1  0.1239369E+001  0.8982104E+02  0.7546771E-02  0.1303286E+00
         -4   -1    0    0    0  501 -0.00000000000E+00  0.00000000000E+00  0.15519673279E+03  0.15519673279E+03  0.00000000000E+00 0.  1.
          4   -1    0    0  501    0  0.00000000000E+00 -0.00000000000E+00 -0.12996115252E+02  0.12996115252E+02  0.00000000000E+00 0. -1.
         23    2    1    2    0    0  0.00000000000E+00  0.00000000000E+00  0.14220061754E+03  0.16819284805E+03  0.89821035979E+02 0.  0.
        -13    1    3    3    0    0 -0.21786939833E+02  0.24950753709E+02  0.14311482617E+02  0.36083644393E+02  0.00000000000E+00 0. -1.
         13    1    3    3    0    0  0.21786939833E+02 -0.24950753709E+02  0.12788913493E+03  0.13210920365E+03  0.00000000000E+00 0.  1.
<mgrwt>
<rscale>  0 0.89821036E+02</rscale>
<asrwt>0</asrwt>
<pdfrwt beam="2">  1        4 0.19994025E-02 0.89821036E+02</pdfrwt>
<pdfrwt beam="1">  1       -4 0.23876419E-01 0.89821036E+02</pdfrwt>
<totfact> 0.23724987E+04</totfact>
</mgrwt>
</event>
<event>
 5    1  0.1239369E+001  0.9169476E+02  0.7546771E-02  0.1298799E+00
          2   -1    0    0  501    0  0.00000000000E+00  0.00000000000E+00  0.62369194316E+02  0.62369194316E+02  0.00000000000E+00 0. -1.
         -2   -1    0    0    0  501 -0.00000000000E+00 -0.00000000000E+00 -0.33702250495E+02  0.33702250495E+02  0.00000000000E+00 0.  1.
         23    2    1    2    0    0  0.00000000000E+00  0.00000000000E+00  0.28666943821E+02  0.96071444811E+02  0.91694759066E+02 0.  0.
        -13    1    3    3    0    0 -0.74312402216E+01 -0.43133920262E+02  0.35731673724E-01  0.43769392104E+02  0.00000000000E+00 0.  1.
         13    1    3    3    0    0  0.74312402216E+01  0.43133920262E+02  0.28631212148E+02  0.52302052708E+02  0.00000000000E+00 0. -1.
<mgrwt>
<rscale>  0 0.91694759E+02</rscale>
<asrwt>0</asrwt>
<pdfrwt beam="1">  1        2 0.95952607E-02 0.91694759E+02</pdfrwt>
<pdfrwt beam="2">  1       -2 0.51849616E-02 0.91694759E+02</pdfrwt>
<totfact> 0.10548353E+05</totfact>
</mgrwt>
</event>
<event>
 5    1  0.1239369E+001  0.9081260E+02  0.7546771E-02  0.1300896E+00
          1   -1    0    0  501    0  0.00000000000E+00  0.00000000000E+00  0.16550339167E+03  0.16550339167E+03  0.00000000000E+00 0. -1.
         -1   -1    0    0    0  501 -0.00000000000E+00 -0.00000000000E+00 -0.12457339877E+02  0.12457339877E+02  0.00000000000E+00 0.  1.
         23    2    1    2    0    0  0.00000000000E+00  0.00000000000E+00  0.15304605179E+03  0.17796073154E+03  0.90812598261E+02 0.  0.
        -11    1    3    3    0    0  0.42776696748E+02 -0.14644723125E+02  0.84701663633E+02  0.96013986076E+02  0.00000000000E+00 0.  1.
         11    1    3    3    0    0 -0.42776696748E+02  0.14644723125E+02  0.68344388158E+02  0.81946745467E+02  0.00000000000E+00 0. -1.
<mgrwt>
<rscale>  0 0.90812598E+02</rscale>
<asrwt>0</asrwt>
<pdfrwt beam="1">  1        1 0.25462059E-01 0.90812598E+02</pdfrwt>
<pdfrwt beam="2">  1       -1 0.19165140E-02 0.90812598E+02</pdfrwt>
<totfact> 0.11543566E+05</totfact>
</mgrwt>
</event>
<event>
 5    1  0.1239369E+001  0.9074950E+02  0.7546771E-02  0.1301047E+00
          3   -1    0    0  501    0  0.00000000000E+00  0.00000000000E+00  0.66765290026E+02  0.66765290026E+02  0.00000000000E+00 0. -1.
         -3   -1    0    0    0  501 -0.00000000000E+00 -0.00000000000E+00 -0.30837397667E+02  0.30837397667E+02  0.00000000000E+00 0.  1.
         23    2    1    2    0    0  0.00000000000E+00  0.00000000000E+00  0.35927892359E+02  0.97602687692E+02  0.90749496943E+02 0.  0.
        -11    1    3    3    0    0  0.24456549573E+02  0.45899196688E+01  0.58772403494E+02  0.63823080403E+02  0.00000000000E+00 0. -1.
         11    1    3    3    0    0 -0.24456549573E+02 -0.45899196688E+01 -0.22844511136E+02  0.33779607289E+02  0.00000000000E+00 0.  1.
<mgrwt>
<rscale>  0 0.90749497E+02</rscale>
<asrwt>0</asrwt>
<pdfrwt beam="1">  1        3 0.10271583E-01 0.90749497E+02</pdfrwt>
<pdfrwt beam="2">  1       -3 0.47442150E-02 0.90749497E+02</pdfrwt>
<totfact> 0.35297925E+04</totfact>
</mgrwt>
</event>
<event>
 5    1  0.1239369E+001  0.9462345E+02  0.7546771E-02  0.1292026E+00
         -4   -1    0    0    0  501 -0.00000000000E+00  0.00000000000E+00  0.33894083259E+02  0.33894083259E+02  0.00000000000E+00 0.  1.
          4   -1    0    0  501    0  0.00000000000E+00 -0.00000000000E+00 -0.66041011776E+02  0.66041011776E+02  0.00000000000E+00 0. -1.
         23    2    1    2    0    0  0.00000000000E+00  0.00000000000E+00 -0.32146928517E+02  0.99935095035E+02  0.94623454844E+02 0.  0.
        -13    1    3    3    0    0  0.23385541800E+02  0.23967423427E+02  0.19225429507E+02  0.38612667491E+02  0.00000000000E+00 0.  1.
         13    1    3    3    0    0 -0.23385541800E+02 -0.23967423427E+02 -0.51372358024E+02  0.61322427544E+02  0.00000000000E+00 0. -1.
<mgrwt>
<rscale>  0 0.94623455E+02</rscale>
<asrwt>0</asrwt>
<pdfrwt beam="2">  1        4 0.10160155E-01 0.94623455E+02</pdfrwt>
<pdfrwt beam="1">  1       -4 0.52144744E-02 0.94623455E+02</pdfrwt>
<totfact> 0.23920011E+04</totfact>
</mgrwt>
</event>
<event>
 5    1  0.1239369E+001  0.9151012E+02  0.7546771E-02  0.1299235E+00
         -1   -1    0    0    0  501 -0.00000000000E+00  0.00000000000E+00  0.33937169433E+02  0.33937169433E+02  0.00000000000E+00 0.  1.
          1   -1    0    0  501    0  0.00000000000E+00 -0.00000000000E+00 -0.61688273020E+02  0.61688273020E+02  0.00000000000E+00 0. -1.
         23    2    1    2    0    0  0.00000000000E+00  0.00000000000E+00 -0.27751103586E+02  0.95625442453E+02  0.91510116894E+02 0.  0.
        -13    1    3    3    0    0 -0.87276788036E+01  0.35480539615E+02  0.14903577262E+02  0.39460837344E+02  0.00000000000E+00 0. -1.
         13    1    3    3    0    0  0.87276788036E+01 -0.35480539615E+02 -0.42654680849E+02  0.56164605108E+02  0.00000000000E+00 0.  1.
<mgrwt>
<rscale>  0 0.91510117E+02</rscale>
<asrwt>0</asrwt>
<pdfrwt beam="2">  1        1 0.94905035E-02 0.91510117E+02</pdfrwt>
<pdfrwt beam="1">  1       -1 0.52211030E-02 0.91510117E+02</pdfrwt>
<totfact> 0.95802717E+04</totfact>
</mgrwt>
</event>
<event>
 5    1  0.1239369E+001  0.9183758E+02  0.7546771E-02  0.1298462E+00
         -3   -1    0    0    0  501 -0.00000000000E+00  0.00000000000E+00  0.31000206680E+03  0.31000206680E+03  0.00000000000E+00 0.  1.
          3   -1    0    0  501    0  0.00000000000E+00 -0.00000000000E+00 -0.68016806779E+01  0.68016806779E+01  0.00000000000E+00 0. -1.
         23    2    1    2    0    0  0.00000000000E+00  0.00000000000E+00  0.30320038613E+03  0.31680374748E+03  0.91837575489E+02 0.  0.
        -11    1    3    3    0    0  0.45907551120E+02  0.44299833136E+00  0.15475346518E+03  0.16141974626E+03  0.00000000000E+00 0.  1.
         11    1    3    3    0    0 -0.45907551120E+02 -0.44299833136E+00  0.14844692095E+03  0.15538400123E+03  0.00000000000E+00 0. -1.
<mgrwt>
<rscale>  0 0.91837575E+02</rscale>
<asrwt>0</asrwt>
<pdfrwt beam="2">  1        3 0.10464127E-02 0.91837575E+02</pdfrwt>
<pdfrwt beam="1">  1       -3 0.47692614E-01 0.91837575E+02</pdfrwt>
<totfact> 0.22937110E+04</totfact>
</mgrwt>
</event>
<event>
 5    1  0.1239369E+001  0.9208660E+02  0.7546771E-02  0.1297876E+00
         -2   -1    0    0    0  501 -0.00000000000E+00  0.00000000000E+00  0.22774459911E+02  0.22774459911E+02  0.00000000000E+00 0.  1.
          2   -1    0    0  501    0  0.00000000000E+00 -0.00000000000E+00 -0.93086102111E+02  0.93086102111E+02  0.00000000000E+00 0. -1.
         23    2    1    2    0    0  0.00000000000E+00  0.00000000000E+00 -0.70311642200E+02  0.11586056202E+03  0.92086604906E+02 0.  0.
        -11    1    3    3    0    0  0.45800281710E+02 -0.23644141736E+01 -0.30009701293E+02  0.54807284469E+02  0.00000000000E+00 0.  1.
         11    1    3    3    0    0 -0.45800281710E+02  0.23644141736E+01 -0.40301940907E+02  0.61053277553E+02  0.00000000000E+00 0. -1.
<mgrwt>
<rscale>  0 0.92086605E+02</rscale>
<asrwt>0</asrwt>
<pdfrwt beam="2">  1        2 0.14320939E-01 0.92086605E+02</pdfrwt>
<pdfrwt beam="1">  1       -2 0.35037629E-02 0.92086605E+02</pdfrwt>
<totfact> 0.11680318E+05</totfact>
</mgrwt>
</event>
<event>
 5    1  0.1239369E+001  0.9318021E+02  0.7546771E-02  0.1295328E+00
         -2   -1    0    0    0  501 -0.00000000000E+00  0.00000000000E+00  0.10044387255E+03  0.10044387255E+03  0.00000000000E+00 0.  1.
          2   -1    0    0  501    0  0.00000000000E+00 -0.00000000000E+00 -0.21610454618E+02  0.21610454618E+02  0.00000000000E+00 0. -1.
         23    2    1    2    0    0  0.00000000000E+00  0.00000000000E+00  0.78833417937E+02  0.12205432717E+03  0.93180207115E+02 0.  0.
        -11    1    3    3    0    0  0.11015843460E+01 -0.42895651136E+02  0.63189653893E+02  0.76381822009E+02  0.00000000000E+00 0.  1.
         11    1    3    3    0    0 -0.11015843460E+01  0.42895651136E+02  0.15643764045E+02  0.45672505163E+02  0.00000000000E+00 0. -1.
<mgrwt>
<rscale>  0 0.93180207E+02</rscale>
<asrwt>0</asrwt>
<pdfrwt beam="2">  1        2 0.33246854E-02 0.93180207E+02</pdfrwt>
<pdfrwt beam="1">  1       -2 0.15452903E-01 0.93180207E+02</pdfrwt>
<totfact> 0.75500836E+04</totfact>
</mgrwt>
</event>
<event>
 5    1  0.1239369E+001  0.8996254E+02  0.7546771E-02  0.1302942E+00
         -1   -1    0    0    0  501 -0.00000000000E+00  0.00000000000E+00  0.31385646888E+02  0.31385646888E+02  0.00000000000E+00 0.  1.
          1   -1    0    0  501    0  0.00000000000E+00 -0.00000000000E+00 -0.64466237842E+02  0.64466237842E+02  0.00000000000E+00 0. -1.
         23    2    1    2    0    0  0.00000000000E+00  0.00000000000E+00 -0.33080590954E+02  0.95851884729E+02  0.89962538361E+02 0.  0.
        -11    1    3    3    0    0 -0.17978239254E+02  0.26969961968E+02  0.16689875471E+02  0.36457480419E+02  0.00000000000E+00 0.  1.
         11    1    3    3    0    0  0.17978239254E+02 -0.26969961968E+02 -0.49770466425E+02  0.59394404311E+02  0.00000000000E+00 0. -1.
<mgrwt>
<rscale>  0 0.89962538E+02</rscale>
<asrwt>0</asrwt>
<pdfrwt beam="2">  1        1 0.99178826E-02 0.89962538E+02</pdfrwt>
<pdfrwt beam="1">  1       -1 0.48285611E-02 0.89962538E+02</pdfrwt>
<totfact> 0.10110291E+05</totfact>
</mgrwt>
</event>
<event>
 5    1  0.1239369E+001  0.9335480E+02  0.7546771E-02  0.1294925E+00
         -1   -1    0    0    0  501 -0.00000000000E+00  0.00000000000E+00  0.65799201376E+01  0.65799201376E+01  0.00000000000E+00 0.  1.
          1   -1    0    0  501    0  0.00000000000E+00 -0.00000000000E+00 -0.33112551847E+03  0.33112551847E+03  0.00000000000E+00 0. -1.
         23    2    1    2    0    0  0.00000000000E+00  0.00000000000E+00 -0.32454559833E+03  0.33770543861E+03  0.93354795636E+02 0.  0.
        -13    1    3    3    0    0 -0.24747014321E+02  0.32993669483E+02 -0.83201922822E+02  0.92863108418E+02  0.00000000000E+00 0.  1.
         13    1    3    3    0    0  0.24747014321E+02 -0.32993669483E+02 -0.24134367551E+03  0.24484233019E+03  0.00000000000E+00 0. -1.
<mgrwt>
<rscale>  0 0.93354796E+02</rscale>
<asrwt>0</asrwt>
<pdfrwt beam="2">  1        1 0.50942383E-01 0.93354796E+02</pdfrwt>
<pdfrwt beam="1">  1       -1 0.10122955E-02 0.93354796E+02</pdfrwt>
<totfact> 0.12255438E+05</totfact>
</mgrwt>
</event>
<event>
 5    1  0.1239369E+001  0.9092999E+02  0.7546771E-02  0.1300615E+00
          2   -1    0    0  501    0  0.00000000000E+00  0.00000000000E+00  0.89966766504E+02  0.89966766504E+02  0.00000000000E+00 0. -1.
         -2   -1    0    0    0  501 -0.00000000000E+00 -0.00000000000E+00 -0.22975883523E+02  0.22975883523E+02  0.00000000000E+00 0.  1.
         23    2    1    2    0    0  0.00000000000E+00  0.00000000000E+00  0.66990882981E+02  0.11294265003E+03  0.90929993910E+02 0.  0.
        -11    1    3    3    0    0 -0.25707345515E+02 -0.20419488486E+02  0.72561740160E+02  0.79643136920E+02  0.00000000000E+00 0. -1.
         11    1    3    3    0    0  0.25707345515E+02  0.20419488486E+02 -0.55708571786E+01  0.33299513107E+02  0.00000000000E+00 0.  1.
<mgrwt>
<rscale>  0 0.90929994E+02</rscale>
<asrwt>0</asrwt>
<pdfrwt beam="1">  1        2 0.13841041E-01 0.90929994E+02</pdfrwt>
<pdfrwt beam="2">  1       -2 0.35347514E-02 0.90929994E+02</pdfrwt>
<totfact> 0.11973952E+05</totfact>
</mgrwt>
</event>
<event>
 5    1  0.1239369E+001  0.9120615E+02  0.7546771E-02  0.1299957E+00
          1   -1    0    0  501    0  0.00000000000E+00  0.00000000000E+00  0.22042442062E+02  0.22042442062E+02  0.00000000000E+00 0. -1.
         -1   -1    0    0    0  501 -0.00000000000E+00 -0.00000000000E+00 -0.94347097640E+02  0.94347097640E+02  0.00000000000E+00 0.  1.
         23    2    1    2    0    0  0.00000000000E+00  0.00000000000E+00 -0.72304655578E+02  0.11638953970E+03  0.91206149649E+02 0.  0.
        -13    1    3    3    0    0  0.33620020897E+02 -0.26968708463E+02 -0.55167015429E+02  0.70007261285E+02  0.00000000000E+00 0.  1.
         13    1    3    3    0    0 -0.33620020897E+02  0.26968708463E+02 -0.17137640149E+02  0.46382278417E+02  0.00000000000E+00 0. -1.
<mgrwt>
<rscale>  0 0.91206150E+02</rscale>
<asrwt>0</asrwt>
<pdfrwt beam="1">  1        1 0.33911449E-02 0.91206150E+02</pdfrwt>
<pdfrwt beam="2">  1       -1 0.14514938E-01 0.91206150E+02</pdfrwt>
<totfact> 0.82175964E+04</totfact>
</mgrwt>
</event>
<event>
 5    1  0.1239369E+001  0.9661722E+02  0.7546771E-02  0.1287575E+00
          1   -1    0    0  501    0  0.00000000000E+00  0.00000000000E+00  0.71714574440E+01  0.71714574440E+01  0.00000000000E+00 0. -1.
         -1   -1    0    0    0  501 -0.00000000000E+00 -0.00000000000E+00 -0.32541808910E+03  0.32541808910E+03  0.00000000000E+00 0.  1.
         23    2    1    2    0    0  0.00000000000E+00  0.00000000000E+00 -0.31824663165E+03  0.33258954654E+03  0.96617223671E+02 0.  0.
        -13    1    3    3    0    0  0.19283871687E+02 -0.43356569238E+02 -0.19030686555E+03  0.19613353328E+03  0.00000000000E+00 0. -1.
         13    1    3    3    0    0 -0.19283871687E+02  0.43356569238E+02 -0.12793976611E+03  0.13645601326E+03  0.00000000000E+00 0.  1.
<mgrwt>
<rscale>  0 0.96617224E+02</rscale>
<asrwt>0</asrwt>
<pdfrwt beam="1">  1        1 0.11033008E-02 0.96617224E+02</pdfrwt>
<pdfrwt beam="2">  1       -1 0.50064337E-01 0.96617224E+02</pdfrwt>
<totfact> 0.50345500E+04</totfact>
</mgrwt>
</event>
<event>
 5    1  0.1239369E+001  0.9095954E+02  0.7546771E-02  0.1300545E+00
         -1   -1    0    0    0  501 -0.00000000000E+00  0.00000000000E+00  0.34655668891E+02  0.34655668891E+02  0.00000000000E+00 0.  1.
          1   -1    0    0  501    0  0.00000000000E+00 -0.00000000000E+00 -0.59684598790E+02  0.59684598790E+02  0.00000000000E+00 0. -1.
         23    2    1    2    0    0  0.00000000000E+00  0.00000000000E+00 -0.25028929900E+02  0.94340267681E+02  0.90959544712E+02 0.  0.
        -13    1    3    3    0    0 -0.21136056122E+02 -0.33769545851E+02  0.10239355146E+02  0.41133435174E+02  0.00000000000E+00 0.  1.
         13    1    3    3    0    0  0.21136056122E+02  0.33769545851E+02 -0.35268285046E+02  0.53206832507E+02  0.00000000000E+00 0. -1.
<mgrwt>
<rscale>  0 0.90959545E+02</rscale>
<asrwt>0</asrwt>
<pdfrwt beam="2">  1        1 0.91822459E-02 0.90959545E+02</pdfrwt>
<pdfrwt beam="1">  1       -1 0.53316414E-02 0.90959545E+02</pdfrwt>
<totfact> 0.96934119E+04</totfact>
</mgrwt>
</event>
<event>
 4    1  0.1239369E+001  0.1619757E+03  0.7546771E-02  0.1186484E+00
          1   -1    0    0  501    0  0.00000000000E+00  0.00000000000E+00  0.15660713216E+03  0.15660713216E+03  0.00000000000E+00 0. -1.
         -1   -1    0    0    0  501 -0.00000000000E+00 -0.00000000000E+00 -0.41882087338E+02  0.41882087338E+02  0.00000000000E+00 0.  1.
        -13    1    1    2    0    0  0.45266089405E+02  0.18694072170E+02 -0.21680253879E+02  0.53558571607E+02  0.00000000000E+00 0.  1.
         13    1    1    2    0    0 -0.45266089405E+02 -0.18694072170E+02  0.13640529870E+03  0.14493064789E+03  0.00000000000E+00 0. -1.
<mgrwt>
<rscale>  0 0.16197572E+03</rscale>
<asrwt>0</asrwt>
<pdfrwt beam="1">  1        1 0.24093405E-01 0.16197572E+03</pdfrwt>
<pdfrwt beam="2">  1       -1 0.64433981E-02 0.16197572E+03</pdfrwt>
<totfact> 0.22669963E+04</totfact>
</mgrwt>
</event>
<event>
 5    1  0.1239369E+001  0.9127367E+02  0.7546771E-02  0.1299796E+00
          4   -1    0    0  501    0  0.00000000000E+00  0.00000000000E+00  0.16433740282E+02  0.16433740282E+02  0.00000000000E+00 0. -1.
         -4   -1    0    0    0  501 -0.00000000000E+00 -0.00000000000E+00 -0.12673441998E+03  0.12673441998E+03  0.00000000000E+00 0.  1.
         23    2    1    2    0    0  0.00000000000E+00  0.00000000000E+00 -0.11030067970E+03  0.14316816026E+03  0.91273666359E+02 0.  0.
        -11    1    3    3    0    0 -0.30387928700E+01 -0.42945300844E+02 -0.78896660737E+02  0.89878897424E+02  0.00000000000E+00 0. -1.
         11    1    3    3    0    0  0.30387928700E+01  0.42945300844E+02 -0.31404018959E+02  0.53289262835E+02  0.00000000000E+00 0.  1.
<mgrwt>
<rscale>  0 0.91273666E+02</rscale>
<asrwt>0</asrwt>
<pdfrwt beam="1">  1        4 0.25282677E-02 0.91273666E+02</pdfrwt>
<pdfrwt beam="2">  1       -4 0.19497603E-01 0.91273666E+02</pdfrwt>
<totfact> 0.23952071E+04</totfact>
</mgrwt>
</event>
<event>
 4    1  0.1239369E+001  0.1403114E+03  0.7546771E-02  0.1212911E+00
          1   -1    0    0  501    0  0.00000000000E+00  0.00000000000E+00  0.12924207712E+02  0.12924207712E+02  0.00000000000E+00 0. -1.
         -1   -1    0    0    0  501 -0.00000000000E+00 -0.00000000000E+00 -0.38082222912E+03  0.38082222912E+03  0.00000000000E+00 0.  1.
        -13    1    1    2    0    0  0.59145000534E+02  0.12776177057E+02 -0.28357868720E+03  0.28996246934E+03  0.00000000000E+00 0.  1.
         13    1    1    2    0    0 -0.59145000534E+02 -0.12776177057E+02 -0.84319334209E+02  0.10378396750E+03  0.00000000000E+00 0. -1.
<mgrwt>
<rscale>  0 0.14031145E+03</rscale>
<asrwt>0</asrwt>
<pdfrwt beam="1">  1        1 0.19883397E-02 0.14031145E+03</pdfrwt>
<pdfrwt beam="2">  1       -1 0.58588034E-01 0.14031145E+03</pdfrwt>
<totfact> 0.17372101E+04</totfact>
</mgrwt>
</event>
<event>
 5    1  0.1239369E+001  0.9214793E+02  0.7546771E-02  0.1297732E+00
          2   -1    0    0  501    0  0.00000000000E+00  0.00000000000E+00  0.15884768567E+03  0.15884768567E+03  0.00000000000E+00 0. -1.
         -2   -1    0    0    0  501 -0.00000000000E+00 -0.00000000000E+00 -0.13363809722E+02  0.13363809722E+02  0.00000000000E+00 0.  1.
         23    2    1    2    0    0  0.00000000000E+00  0.00000000000E+00  0.14548387595E+03  0.17221149539E+03  0.92147929896E+02 0.  0.
        -11    1    3    3    0    0 -0.25811538242E+01  0.45987321937E+02  0.74884299465E+02  0.87915609765E+02  0.00000000000E+00 0.  1.
         11    1    3    3    0    0  0.25811538242E+01 -0.45987321937E+02  0.70599576485E+02  0.84295885628E+02  0.00000000000E+00 0. -1.
<mgrwt>
<rscale>  0 0.92147930E+02</rscale>
<asrwt>0</asrwt>
<pdfrwt beam="1">  1        2 0.24438104E-01 0.92147930E+02</pdfrwt>
<pdfrwt beam="2">  1       -2 0.20559708E-02 0.92147930E+02</pdfrwt>
<totfact> 0.13853986E+05</totfact>
</mgrwt>
</event>
<event>
 5    1  0.1239369E+001  0.9108127E+02  0.7546771E-02  0.1300254E+00
         -2   -1    0    0    0  501 -0.00000000000E+00  0.00000000000E+00  0.28615010482E+02  0.28615010482E+02  0.00000000000E+00 0.  1.
          2   -1    0    0  501    0  0.00000000000E+00 -0.00000000000E+00 -0.72477681139E+02  0.72477681139E+02  0.00000000000E+00 0. -1.
         23    2    1    2    0    0  0.00000000000E+00  0.00000000000E+00 -0.43862670657E+02  0.10109269162E+03  0.91081273717E+02 0.  0.
        -11    1    3    3    0    0  0.23614212444E+02 -0.17261358208E+02 -0.60673083112E+02  0.67355835166E+02  0.00000000000E+00 0. -1.
         11    1    3    3    0    0 -0.23614212444E+02  0.17261358208E+02  0.16810412455E+02  0.33736856455E+02  0.00000000000E+00 0.  1.
<mgrwt>
<rscale>  0 0.91081274E+02</rscale>
<asrwt>0</asrwt>
<pdfrwt beam="2">  1        2 0.11150412E-01 0.91081274E+02</pdfrwt>
<pdfrwt beam="1">  1       -2 0.44023094E-02 0.91081274E+02</pdfrwt>
<totfact> 0.11202289E+05</totfact>
</mgrwt>
</event>
<event>
 5    1  0.1239369E+001  0.8986095E+02  0.7546771E-02  0.1303189E+00
          2   -1    0    0  501    0  0.00000000000E+00  0.00000000000E+00  0.61028208059E+01  0.61028208059E+01  0.00000000000E+00 0. -1.
         -2   -1    0    0    0  501 -0.00000000000E+00 -0.00000000000E+00 -0.33078927912E+03  0.33078927912E+03  0.00000000000E+00 0.  1.
         23    2    1    2    0    0  0.00000000000E+00  0.00000000000E+00 -0.32468645832E+03  0.33689209993E+03  0.89860952476E+02 0.  0.
        -11    1    3    3    0    0  0.12704620515E+02 -0.41721162319E+02 -0.12184582470E+03  0.12941587138E+03  0.00000000000E+00 0.  1.
         11    1    3    3    0    0 -0.12704620515E+02  0.41721162319E+02 -0.20284063361E+03  0.20747622855E+03  0.00000000000E+00 0. -1.
<mgrwt>
<rscale>  0 0.89860952E+02</rscale>
<asrwt>0</asrwt>
<pdfrwt beam="1">  1        2 0.93889535E-03 0.89860952E+02</pdfrwt>
<pdfrwt beam="2">  1       -2 0.50890667E-01 0.89860952E+02</pdfrwt>
<totfact> 0.50027760E+04</totfact>
</mgrwt>
</event>
<event>
 5    1  0.1239369E+001  0.9121386E+02  0.7546771E-02  0.1299939E+00
          1   -1    0    0  501    0  0.00000000000E+00  0.00000000000E+00  0.10050710669E+03  0.10050710669E+03  0.00000000000E+00 0. -1.
         -1   -1    0    0    0  501 -0.00000000000E+00 -0.00000000000E+00 -0.20694974838E+02  0.20694974838E+02  0.00000000000E+00 0.  1.
         23    2    1    2    0    0  0.00000000000E+00  0.00000000000E+00  0.79812131850E+02  0.12120208153E+03  0.91213859560E+02 0.  0.
        -11    1    3    3    0    0  0.20414719042E+02  0.21189681505E+02  0.86208038213E+02  0.91091103893E+02  0.00000000000E+00 0. -1.
         11    1    3    3    0    0 -0.20414719042E+02 -0.21189681505E+02 -0.63959063625E+01  0.30110977634E+02  0.00000000000E+00 0.  1.
<mgrwt>
<rscale>  0 0.91213860E+02</rscale>
<asrwt>0</asrwt>
<pdfrwt beam="1">  1        1 0.15462631E-01 0.91213860E+02</pdfrwt>
<pdfrwt beam="2">  1       -1 0.31838423E-02 0.91213860E+02</pdfrwt>
<totfact> 0.10442394E+05</totfact>
</mgrwt>
</event>
<event>
 5    1  0.1239369E+001  0.9451132E+02  0.7546771E-02  0.1292281E+00
          1   -1    0    0  501    0  0.00000000000E+00  0.00000000000E+00  0.89820950602E+02  0.89820950602E+02  0.00000000000E+00 0. -1.
         -1   -1    0    0    0  501 -0.00000000000E+00 -0.00000000000E+00 -0.24861652113E+02  0.24861652113E+02  0.00000000000E+00 0.  1.
         23    2    1    2    0    0  0.00000000000E+00  0.00000000000E+00  0.64959298489E+02  0.11468260271E+03  0.94511316282E+02 0.  0.
        -13    1    3    3    0    0 -0.13201512665E+02  0.13630023059E+02  0.84995115694E+02  0.87087468428E+02  0.00000000000E+00 0. -1.
         13    1    3    3    0    0  0.13201512665E+02 -0.13630023059E+02 -0.20035817205E+02  0.27595134287E+02  0.00000000000E+00 0.  1.
<mgrwt>
<rscale>  0 0.94511316E+02</rscale>
<asrwt>0</asrwt>
<pdfrwt beam="1">  1        1 0.13818608E-01 0.94511316E+02</pdfrwt>
<pdfrwt beam="2">  1       -1 0.38248696E-02 0.94511316E+02</pdfrwt>
<totfact> 0.92995819E+04</totfact>
</mgrwt>
</event>
<event>
 5    1  0.1239369E+001  0.1094336E+03  0.7546771E-02  0.1261622E+00
         -1   -1    0    0    0  501 -0.00000000000E+00  0.00000000000E+00  0.70454508722E+02  0.70454508722E+02  0.00000000000E+00 0.  1.
          1   -1    0    0  501    0  0.00000000000E+00 -0.00000000000E+00 -0.42494495309E+02  0.42494495309E+02  0.00000000000E+00 0. -1.
         23    2    1    2    0    0  0.00000000000E+00  0.00000000000E+00  0.27960013413E+02  0.11294900403E+03  0.10943361075E+03 0.  0.
        -11    1    3    3    0    0 -0.56529764342E+01 -0.14120738570E+02  0.68228652740E+02  0.69903508174E+02  0.00000000000E+00 0.  1.
         11    1    3    3    0    0  0.56529764342E+01  0.14120738570E+02 -0.40268639327E+02  0.43045495857E+02  0.00000000000E+00 0. -1.
<mgrwt>
<rscale>  0 0.10943361E+03</rscale>
<asrwt>0</asrwt>
<pdfrwt beam="2">  1        1 0.65376147E-02 0.10943361E+03</pdfrwt>
<pdfrwt beam="1">  1       -1 0.10839155E-01 0.10943361E+03</pdfrwt>
<totfact> 0.54259116E+04</totfact>
</mgrwt>
</event>
<event>
 5    1  0.1239369E+001  0.9077899E+02  0.7546771E-02  0.1300976E+00
          1   -1    0    0  501    0  0.00000000000E+00  0.00000000000E+00  0.48023154091E+02  0.48023154091E+02  0.00000000000E+00 0. -1.
         -1   -1    0    0    0  501 -0.00000000000E+00 -0.00000000000E+00 -0.42900271220E+02  0.42900271220E+02  0.00000000000E+00 0.  1.
         23    2    1    2    0    0  0.00000000000E+00  0.00000000000E+00  0.51228828711E+01  0.90923425310E+02  0.90778991740E+02 0.  0.
        -11    1    3    3    0    0 -0.12324658559E+02  0.11317884635E+02  0.44821161359E+02  0.47842744767E+02  0.00000000000E+00 0. -1.
         11    1    3    3    0    0  0.12324658559E+02 -0.11317884635E+02 -0.39698278488E+02  0.43080680544E+02  0.00000000000E+00 0.  1.
<mgrwt>
<rscale>  0 0.90778992E+02</rscale>
<asrwt>0</asrwt>
<pdfrwt beam="1">  1        1 0.73881775E-02 0.90778992E+02</pdfrwt>
<pdfrwt beam="2">  1       -1 0.66000418E-02 0.90778992E+02</pdfrwt>
<totfact> 0.94345434E+04</totfact>
</mgrwt>
</event>
<event>
 4    1  0.1239369E+001  0.4051209E+02  0.7546771E-02  0.1504477E+00
          3   -1    0    0  501    0  0.00000000000E+00  0.00000000000E+00  0.83752650017E+02  0.83752650017E+02  0.00000000000E+00 0.  1.
         -3   -1    0    0    0  501 -0.00000000000E+00 -0.00000000000E+00 -0.48990361849E+01  0.48990361849E+01  0.00000000000E+00 0. -1.
        -13    1    1    2    0    0 -0.19158894180E+02  0.39876230312E+01  0.50869406077E+02  0.54503769028E+02  0.00000000000E+00 0.  1.
         13    1    1    2    0    0  0.19158894180E+02 -0.39876230312E+01  0.27984207755E+02  0.34147917174E+02  0.00000000000E+00 0. -1.
<mgrwt>
<rscale>  0 0.40512085E+02</rscale>
<asrwt>0</asrwt>
<pdfrwt beam="1">  1        3 0.12885022E-01 0.40512085E+02</pdfrwt>
<pdfrwt beam="2">  1       -3 0.75369793E-03 0.40512085E+02</pdfrwt>
<totfact> 0.28854028E+05</totfact>
</mgrwt>
</event>
<event>
 5    1  0.1239369E+001  0.9221012E+02  0.7546771E-02  0.1297586E+00
          2   -1    0    0  501    0  0.00000000000E+00  0.00000000000E+00  0.13065403245E+03  0.13065403245E+03  0.00000000000E+00 0. -1.
         -2   -1    0    0    0  501 -0.00000000000E+00 -0.00000000000E+00 -0.16269505012E+02  0.16269505012E+02  0.00000000000E+00 0.  1.
         23    2    1    2    0    0  0.00000000000E+00  0.00000000000E+00  0.11438452744E+03  0.14692353746E+03  0.92210117356E+02 0.  0.
        -13    1    3    3    0    0  0.19857192662E+01 -0.43683930851E+02  0.80470945231E+02  0.91584943751E+02  0.00000000000E+00 0.  1.
         13    1    3    3    0    0 -0.19857192662E+01  0.43683930851E+02  0.33913582205E+02  0.55338593708E+02  0.00000000000E+00 0. -1.
<mgrwt>
<rscale>  0 0.92210117E+02</rscale>
<asrwt>0</asrwt>
<pdfrwt beam="1">  1        2 0.20100620E-01 0.92210117E+02</pdfrwt>
<pdfrwt beam="2">  1       -2 0.25030009E-02 0.92210117E+02</pdfrwt>
<totfact> 0.12945515E+05</totfact>
</mgrwt>
</event>
<event>
 5    1  0.1239369E+001  0.9181857E+02  0.7546771E-02  0.1298507E+00
         -2   -1    0    0    0  501 -0.00000000000E+00  0.00000000000E+00  0.76830815898E+02  0.76830815898E+02  0.00000000000E+00 0.  1.
          2   -1    0    0  501    0  0.00000000000E+00 -0.00000000000E+00 -0.27432513949E+02  0.27432513949E+02  0.00000000000E+00 0. -1.
         23    2    1    2    0    0  0.00000000000E+00  0.00000000000E+00  0.49398301950E+02  0.10426332985E+03  0.91818569556E+02 0.  0.
        -11    1    3    3    0    0  0.29234557238E+02 -0.28035072440E+02  0.49239293832E+02  0.63758393022E+02  0.00000000000E+00 0. -1.
         11    1    3    3    0    0 -0.29234557238E+02  0.28035072440E+02  0.15900811758E+00  0.40504936825E+02  0.00000000000E+00 0.  1.
<mgrwt>
<rscale>  0 0.91818570E+02</rscale>
<asrwt>0</asrwt>
<pdfrwt beam="2">  1        2 0.42203868E-02 0.91818570E+02</pdfrwt>
<pdfrwt beam="1">  1       -2 0.11820125E-01 0.91818570E+02</pdfrwt>
<totfact> 0.84561370E+04</totfact>
</mgrwt>
</event>
<event>
 5    1  0.1239369E+001  0.1039861E+03  0.7546771E-02  0.1272130E+00
          1   -1    0    0  501    0  0.00000000000E+00  0.00000000000E+00  0.14612934029E+03  0.14612934029E+03  0.00000000000E+00 0. -1.
         -1   -1    0    0    0  501 -0.00000000000E+00 -0.00000000000E+00 -0.18499220944E+02  0.18499220944E+02  0.00000000000E+00 0.  1.
         23    2    1    2    0    0  0.00000000000E+00  0.00000000000E+00  0.12763011935E+03  0.16462856124E+03  0.10398613278E+03 0.  0.
        -11    1    3    3    0    0 -0.46595726978E+02 -0.10224836254E+02  0.31078478708E+02  0.56934882874E+02  0.00000000000E+00 0.  1.
         11    1    3    3    0    0  0.46595726978E+02  0.10224836254E+02  0.96551640642E+02  0.10769367836E+03  0.00000000000E+00 0. -1.
<mgrwt>
<rscale>  0 0.10398613E+03</rscale>
<asrwt>0</asrwt>
<pdfrwt beam="1">  1        1 0.22481436E-01 0.10398613E+03</pdfrwt>
<pdfrwt beam="2">  1       -1 0.28460341E-02 0.10398613E+03</pdfrwt>
<totfact> 0.78028742E+04</totfact>
</mgrwt>
</event>
<event>
 5    1  0.1239369E+001  0.9056494E+02  0.7546771E-02  0.1301489E+00
         -2   -1    0    0    0  501 -0.00000000000E+00  0.00000000000E+00  0.20827752850E+02  0.20827752850E+02  0.00000000000E+00 0.  1.
          2   -1    0    0  501    0  0.00000000000E+00 -0.00000000000E+00 -0.98450466775E+02  0.98450466775E+02  0.00000000000E+00 0. -1.
         23    2    1    2    0    0  0.00000000000E+00  0.00000000000E+00 -0.77622713925E+02  0.11927821963E+03  0.90564937807E+02 0.  0.
        -13    1    3    3    0    0 -0.32259792790E+02 -0.22695184992E+01 -0.80556886258E+02  0.86805857341E+02  0.00000000000E+00 0. -1.
         13    1    3    3    0    0  0.32259792790E+02  0.22695184992E+01  0.29341723330E+01  0.32472362285E+02  0.00000000000E+00 0.  1.
<mgrwt>
<rscale>  0 0.90564938E+02</rscale>
<asrwt>0</asrwt>
<pdfrwt beam="2">  1        2 0.15146225E-01 0.90564938E+02</pdfrwt>
<pdfrwt beam="1">  1       -2 0.32042697E-02 0.90564938E+02</pdfrwt>
<totfact> 0.12437910E+05</totfact>
</mgrwt>
</event>
<event>
 5    1  0.1239369E+001  0.9070065E+02  0.7546771E-02  0.1301164E+00
          1   -1    0    0  501    0  0.00000000000E+00  0.00000000000E+00  0.28468507779E+02  0.28468507779E+02  0.00000000000E+00 0. -1.
         -1   -1    0    0    0  501 -0.00000000000E+00 -0.00000000000E+00 -0.72243058016E+02  0.72243058016E+02  0.00000000000E+00 0.  1.
         23    2    1    2    0    0  0.00000000000E+00  0.00000000000E+00 -0.43774550237E+02  0.10071156580E+03  0.90700651797E+02 0.  0.
        -11    1    3    3    0    0  0.43516082450E+02  0.71081986118E+01 -0.10111238662E+02  0.45237297296E+02  0.00000000000E+00 0.  1.
         11    1    3    3    0    0 -0.43516082450E+02 -0.71081986118E+01 -0.33663311575E+02  0.55474268499E+02  0.00000000000E+00 0. -1.
<mgrwt>
<rscale>  0 0.90700652E+02</rscale>
<asrwt>0</asrwt>
<pdfrwt beam="1">  1        1 0.43797704E-02 0.90700652E+02</pdfrwt>
<pdfrwt beam="2">  1       -1 0.11114317E-01 0.90700652E+02</pdfrwt>
<totfact> 0.87254522E+04</totfact>
</mgrwt>
</event>
<event>
 5    1  0.1239369E+001  0.8925645E+02  0.7546771E-02  0.1304662E+00
         -2   -1    0    0    0  501 -0.00000000000E+00  0.00000000000E+00  0.13486112893E+02  0.13486112893E+02  0.00000000000E+00 0.  1.
          2   -1    0    0  501    0  0.00000000000E+00 -0.00000000000E+00 -0.14768364440E+03  0.14768364440E+03  0.00000000000E+00 0. -1.
         23    2    1    2    0    0  0.00000000000E+00  0.00000000000E+00 -0.13419753150E+03  0.16116975729E+03  0.89256446283E+02 0.  0.
        -11    1    3    3    0    0 -0.58821607037E+01 -0.41992119483E+02 -0.92232327752E+02  0.10151226623E+03  0.00000000000E+00 0. -1.
         11    1    3    3    0    0  0.58821607037E+01  0.41992119483E+02 -0.41965203752E+02  0.59657491057E+02  0.00000000000E+00 0.  1.
<mgrwt>
<rscale>  0 0.89256446E+02</rscale>
<asrwt>0</asrwt>
<pdfrwt beam="2">  1        2 0.22720561E-01 0.89256446E+02</pdfrwt>
<pdfrwt beam="1">  1       -2 0.20747866E-02 0.89256446E+02</pdfrwt>
<totfact> 0.14733103E+05</totfact>
</mgrwt>
</event>
<event>
 5    1  0.1239369E+001  0.9284805E+02  0.7546771E-02  0.1296098E+00
         -1   -1    0    0    0  501 -0.00000000000E+00  0.00000000000E+00  0.53885003875E+02  0.53885003875E+02  0.00000000000E+00 0.  1.
          1   -1    0    0  501    0  0.00000000000E+00 -0.00000000000E+00 -0.39996099041E+02  0.39996099041E+02  0.00000000000E+00 0. -1.
         23    2    1    2    0    0  0.00000000000E+00  0.00000000000E+00  0.13888904834E+02  0.93881102916E+02  0.92848046868E+02 0.  0.
        -13    1    3    3    0    0 -0.44156278633E+02 -0.10918155029E+02  0.16332524690E+02  0.48329436317E+02  0.00000000000E+00 0.  1.
         13    1    3    3    0    0  0.44156278633E+02  0.10918155029E+02 -0.24436198559E+01  0.45551666599E+02  0.00000000000E+00 0. -1.
<mgrwt>
<rscale>  0 0.92848047E+02</rscale>
<asrwt>0</asrwt>
<pdfrwt beam="2">  1        1 0.61532460E-02 0.92848047E+02</pdfrwt>
<pdfrwt beam="1">  1       -1 0.82900006E-02 0.92848047E+02</pdfrwt>
<totfact> 0.86116915E+04</totfact>
</mgrwt>
</event>
<event>
 5    1  0.1239369E+001  0.9082513E+02  0.7546771E-02  0.1300866E+00
         -4   -1    0    0    0  501 -0.00000000000E+00  0.00000000000E+00  0.87644348054E+02  0.87644348054E+02  0.00000000000E+00 0.  1.
          4   -1    0    0  501    0  0.00000000000E+00 -0.00000000000E+00 -0.23530338316E+02  0.23530338316E+02  0.00000000000E+00 0. -1.
         23    2    1    2    0    0  0.00000000000E+00  0.00000000000E+00  0.64114009739E+02  0.11117468637E+03  0.90825132230E+02 0.  0.
        -11    1    3    3    0    0 -0.15129788854E+02  0.42787335295E+02  0.34043814647E+02  0.56733128665E+02  0.00000000000E+00 0.  1.
         11    1    3    3    0    0  0.15129788854E+02 -0.42787335295E+02  0.30070195092E+02  0.54441557705E+02  0.00000000000E+00 0. -1.
<mgrwt>
<rscale>  0 0.90825132E+02</rscale>
<asrwt>0</asrwt>
<pdfrwt beam="2">  1        4 0.36200521E-02 0.90825132E+02</pdfrwt>
<pdfrwt beam="1">  1       -4 0.13483746E-01 0.90825132E+02</pdfrwt>
<totfact> 0.26053984E+04</totfact>
</mgrwt>
</event>
<event>
 4    1  0.1239369E+001  0.1663028E+03  0.7546771E-02  0.1181759E+00
          1   -1    0    0  501    0  0.00000000000E+00  0.00000000000E+00  0.17283204380E+03  0.17283204380E+03  0.00000000000E+00 0.  1.
         -1   -1    0    0    0  501 -0.00000000000E+00 -0.00000000000E+00 -0.40005077154E+02  0.40005077154E+02  0.00000000000E+00 0. -1.
        -13    1    1    2    0    0 -0.23398138846E+02 -0.22304623714E+02 -0.31634074192E+02  0.45229236015E+02  0.00000000000E+00 0. -1.
         13    1    1    2    0    0  0.23398138846E+02  0.22304623714E+02  0.16446104084E+03  0.16760788494E+03  0.00000000000E+00 0.  1.
<mgrwt>
<rscale>  0 0.16630285E+03</rscale>
<asrwt>0</asrwt>
<pdfrwt beam="1">  1        1 0.26589545E-01 0.16630285E+03</pdfrwt>
<pdfrwt beam="2">  1       -1 0.61546273E-02 0.16630285E+03</pdfrwt>
<totfact> 0.21496641E+04</totfact>
</mgrwt>
</event>
<event>
 5    1  0.1239369E+001  0.9136555E+02  0.7546771E-02  0.1299578E+00
         -3   -1    0    0    0  501 -0.00000000000E+00  0.00000000000E+00  0.11494029755E+03  0.11494029755E+03  0.00000000000E+00 0.  1.
          3   -1    0    0  501    0  0.00000000000E+00 -0.00000000000E+00 -0.18156519092E+02  0.18156519092E+02  0.00000000000E+00 0. -1.
         23    2    1    2    0    0  0.00000000000E+00  0.00000000000E+00  0.96783778462E+02  0.13309681665E+03  0.91365545080E+02 0.  0.
        -11    1    3    3    0    0  0.19262307862E+02 -0.84003909532E+01  0.10748126951E+03  0.10951632922E+03  0.00000000000E+00 0. -1.
         11    1    3    3    0    0 -0.19262307862E+02  0.84003909532E+01 -0.10697491044E+02  0.23580487420E+02  0.00000000000E+00 0.  1.
<mgrwt>
<rscale>  0 0.91365545E+02</rscale>
<asrwt>0</asrwt>
<pdfrwt beam="2">  1        3 0.27933107E-02 0.91365545E+02</pdfrwt>
<pdfrwt beam="1">  1       -3 0.17683122E-01 0.91365545E+02</pdfrwt>
<totfact> 0.32193514E+04</totfact>
</mgrwt>
</event>
<event>
 5    1  0.1239369E+001  0.9150886E+02  0.7546771E-02  0.1299238E+00
          2   -1    0    0  501    0  0.00000000000E+00  0.00000000000E+00  0.18823695295E+03  0.18823695295E+03  0.00000000000E+00 0. -1.
         -2   -1    0    0    0  501 -0.00000000000E+00 -0.00000000000E+00 -0.11121450798E+02  0.11121450798E+02  0.00000000000E+00 0.  1.
         23    2    1    2    0    0  0.00000000000E+00  0.00000000000E+00  0.17711550215E+03  0.19935840374E+03  0.91508863188E+02 0.  0.
        -11    1    3    3    0    0 -0.44517378296E+02  0.58825431500E+01  0.10768290076E+03  0.11667051213E+03  0.00000000000E+00 0. -1.
         11    1    3    3    0    0  0.44517378296E+02 -0.58825431500E+01  0.69432601391E+02  0.82687891618E+02  0.00000000000E+00 0.  1.
<mgrwt>
<rscale>  0 0.91508863E+02</rscale>
<asrwt>0</asrwt>
<pdfrwt beam="1">  1        2 0.28959529E-01 0.91508863E+02</pdfrwt>
<pdfrwt beam="2">  1       -2 0.17109926E-02 0.91508863E+02</pdfrwt>
<totfact> 0.14986437E+05</totfact>
</mgrwt>
</event>
<event>
 5    1  0.1239369E+001  0.8597716E+02  0.7546771E-02  0.1312897E+00
          3   -1    0    0  501    0  0.00000000000E+00  0.00000000000E+00  0.29168453061E+03  0.29168453061E+03  0.00000000000E+00 0. -1.
         -3   -1    0    0    0  501 -0.00000000000E+00 -0.00000000000E+00 -0.63356735793E+01  0.63356735793E+01  0.00000000000E+00 0.  1.
         23    2    1    2    0    0  0.00000000000E+00  0.00000000000E+00  0.28534885703E+03  0.29802020419E+03  0.85977159155E+02 0.  0.
        -13    1    3    3    0    0 -0.39055264537E+02  0.17861676853E+02  0.14931013135E+03  0.15536366536E+03  0.00000000000E+00 0.  1.
         13    1    3    3    0    0  0.39055264537E+02 -0.17861676853E+02  0.13603872568E+03  0.14265653883E+03  0.00000000000E+00 0. -1.
<mgrwt>
<rscale>  0 0.85977159E+02</rscale>
<asrwt>0</asrwt>
<pdfrwt beam="1">  1        3 0.44874533E-01 0.85977159E+02</pdfrwt>
<pdfrwt beam="2">  1       -3 0.97471924E-03 0.85977159E+02</pdfrwt>
<totfact> 0.28203372E+04</totfact>
</mgrwt>
</event>
<event>
 5    1  0.1239369E+001  0.9318598E+02  0.7546771E-02  0.1295315E+00
         -1   -1    0    0    0  501 -0.00000000000E+00  0.00000000000E+00  0.13815312612E+02  0.13815312612E+02  0.00000000000E+00 0.  1.
          1   -1    0    0  501    0  0.00000000000E+00 -0.00000000000E+00 -0.15713773598E+03  0.15713773598E+03  0.00000000000E+00 0. -1.
         23    2    1    2    0    0  0.00000000000E+00  0.00000000000E+00 -0.14332242336E+03  0.17095304859E+03  0.93185984906E+02 0.  0.
        -11    1    3    3    0    0  0.45292476394E+01  0.42734777475E+02 -0.10468956897E+03  0.11316660789E+03  0.00000000000E+00 0. -1.
         11    1    3    3    0    0 -0.45292476394E+01 -0.42734777475E+02 -0.38632854392E+02  0.57786440698E+02  0.00000000000E+00 0.  1.
<mgrwt>
<rscale>  0 0.93185985E+02</rscale>
<asrwt>0</asrwt>
<pdfrwt beam="2">  1        1 0.24175036E-01 0.93185985E+02</pdfrwt>
<pdfrwt beam="1">  1       -1 0.21254328E-02 0.93185985E+02</pdfrwt>
<totfact> 0.10663454E+05</totfact>
</mgrwt>
</event>
<event>
 5    1  0.1239369E+001  0.9480816E+02  0.7546771E-02  0.1291609E+00
          2   -1    0    0  501    0  0.00000000000E+00  0.00000000000E+00  0.42454121340E+03  0.42454121340E+03  0.00000000000E+00 0.  1.
         -2   -1    0    0    0  501 -0.00000000000E+00 -0.00000000000E+00 -0.52931178426E+01  0.52931178426E+01  0.00000000000E+00 0. -1.
         23    2    1    2    0    0  0.00000000000E+00  0.00000000000E+00  0.41924809555E+03  0.42983433124E+03  0.94808157277E+02 0.  0.
        -13    1    3    3    0    0  0.39033363902E+02  0.26699004870E+02  0.22445863144E+03  0.22938639363E+03  0.00000000000E+00 0. -1.
         13    1    3    3    0    0 -0.39033363902E+02 -0.26699004870E+02  0.19478946412E+03  0.20044793760E+03  0.00000000000E+00 0.  1.
<mgrwt>
<rscale>  0 0.94808157E+02</rscale>
<asrwt>0</asrwt>
<pdfrwt beam="1">  1        2 0.65314006E-01 0.94808157E+02</pdfrwt>
<pdfrwt beam="2">  1       -2 0.81432615E-03 0.94808157E+02</pdfrwt>
<totfact> 0.18376871E+05</totfact>
</mgrwt>
</event>
<event>
 5    1  0.1239369E+001  0.8668801E+02  0.7546771E-02  0.1311076E+00
          2   -1    0    0  501    0  0.00000000000E+00  0.00000000000E+00  0.12077929245E+03  0.12077929245E+03  0.00000000000E+00 0. -1.
         -2   -1    0    0    0  501 -0.00000000000E+00 -0.00000000000E+00 -0.15554841353E+02  0.15554841353E+02  0.00000000000E+00 0.  1.
         23    2    1    2    0    0  0.00000000000E+00  0.00000000000E+00  0.10522445110E+03  0.13633413381E+03  0.86688009155E+02 0.  0.
        -11    1    3    3    0    0  0.23504540919E+02 -0.31900342164E+02  0.24984267798E+02  0.46843451104E+02  0.00000000000E+00 0.  1.
         11    1    3    3    0    0 -0.23504540919E+02  0.31900342164E+02  0.80240183302E+02  0.89490682701E+02  0.00000000000E+00 0. -1.
<mgrwt>
<rscale>  0 0.86688009E+02</rscale>
<asrwt>0</asrwt>
<pdfrwt beam="1">  1        2 0.18581429E-01 0.86688009E+02</pdfrwt>
<pdfrwt beam="2">  1       -2 0.23930526E-02 0.86688009E+02</pdfrwt>
<totfact> 0.14930317E+05</totfact>
</mgrwt>
</event>
<event>
 5    1  0.1239369E+001  0.9072398E+02  0.7546771E-02  0.1301108E+00
         -1   -1    0    0    0  501 -0.00000000000E+00  0.00000000000E+00  0.63814193593E+02  0.63814193593E+02  0.00000000000E+00 0.  1.
          1   -1    0    0  501    0  0.00000000000E+00 -0.00000000000E+00 -0.32245336351E+02  0.32245336351E+02  0.00000000000E+00 0. -1.
         23    2    1    2    0    0  0.00000000000E+00  0.00000000000E+00  0.31568857242E+02  0.96059529945E+02  0.90723979992E+02 0.  0.
        -13    1    3    3    0    0  0.87842666629E+01  0.24854779469E+02  0.54871426165E+02  0.60875256161E+02  0.00000000000E+00 0.  1.
         13    1    3    3    0    0 -0.87842666629E+01 -0.24854779469E+02 -0.23302568923E+02  0.35184273784E+02  0.00000000000E+00 0. -1.
<mgrwt>
<rscale>  0 0.90723980E+02</rscale>
<asrwt>0</asrwt>
<pdfrwt beam="2">  1        1 0.49608210E-02 0.90723980E+02</pdfrwt>
<pdfrwt beam="1">  1       -1 0.98175682E-02 0.90723980E+02</pdfrwt>
<totfact> 0.88945640E+04</totfact>
</mgrwt>
</event>
<event>
 5    1  0.1239369E+001  0.9138255E+02  0.7546771E-02  0.1299538E+00
          1   -1    0    0  501    0  0.00000000000E+00  0.00000000000E+00  0.11313580695E+02  0.11313580695E+02  0.00000000000E+00 0. -1.
         -1   -1    0    0    0  501 -0.00000000000E+00 -0.00000000000E+00 -0.18452977243E+03  0.18452977243E+03  0.00000000000E+00 0.  1.
         23    2    1    2    0    0  0.00000000000E+00  0.00000000000E+00 -0.17321619173E+03  0.19584335312E+03  0.91382546931E+02 0.  0.
        -13    1    3    3    0    0 -0.36020427301E+02 -0.85905432897E+01 -0.14397092954E+03  0.14865697820E+03  0.00000000000E+00 0.  1.
         13    1    3    3    0    0  0.36020427301E+02  0.85905432897E+01 -0.29245262192E+02  0.47186374915E+02  0.00000000000E+00 0. -1.
<mgrwt>
<rscale>  0 0.91382547E+02</rscale>
<asrwt>0</asrwt>
<pdfrwt beam="1">  1        1 0.17405510E-02 0.91382547E+02</pdfrwt>
<pdfrwt beam="2">  1       -1 0.28389194E-01 0.91382547E+02</pdfrwt>
<totfact> 0.70579842E+04</totfact>
</mgrwt>
</event>
<event>
 5    1  0.1239369E+001  0.9326800E+02  0.7546771E-02  0.1295125E+00
         -2   -1    0    0    0  501 -0.00000000000E+00  0.00000000000E+00  0.73219510608E+01  0.73219510608E+01  0.00000000000E+00 0.  1.
          2   -1    0    0  501    0  0.00000000000E+00 -0.00000000000E+00 -0.29701511569E+03  0.29701511569E+03  0.00000000000E+00 0. -1.
         23    2    1    2    0    0  0.00000000000E+00  0.00000000000E+00 -0.28969316463E+03  0.30433706675E+03  0.93268003976E+02 0.  0.
        -11    1    3    3    0    0 -0.60519050347E+01 -0.45681834180E+02 -0.16821198999E+03  0.17440965886E+03  0.00000000000E+00 0. -1.
         11    1    3    3    0    0  0.60519050347E+01  0.45681834180E+02 -0.12148117464E+03  0.12992740789E+03  0.00000000000E+00 0.  1.
<mgrwt>
<rscale>  0 0.93268004E+02</rscale>
<asrwt>0</asrwt>
<pdfrwt beam="2">  1        2 0.45694634E-01 0.93268004E+02</pdfrwt>
<pdfrwt beam="1">  1       -2 0.11264540E-02 0.93268004E+02</pdfrwt>
<totfact> 0.16846250E+05</totfact>
</mgrwt>
</event>
<event>
 5    1  0.1239369E+001  0.9067676E+02  0.7546771E-02  0.1301221E+00
         -2   -1    0    0    0  501 -0.00000000000E+00  0.00000000000E+00  0.46813169771E+01  0.46813169771E+01  0.00000000000E+00 0.  1.
          2   -1    0    0  501    0  0.00000000000E+00 -0.00000000000E+00 -0.43910048659E+03  0.43910048659E+03  0.00000000000E+00 0. -1.
         23    2    1    2    0    0  0.00000000000E+00  0.00000000000E+00 -0.43441916962E+03  0.44378180357E+03  0.90676756945E+02 0.  0.
        -13    1    3    3    0    0  0.42230329834E+02 -0.14963446541E+02 -0.18320942222E+03  0.18860805360E+03  0.00000000000E+00 0.  1.
         13    1    3    3    0    0 -0.42230329834E+02  0.14963446541E+02 -0.25120974739E+03  0.25517374998E+03  0.00000000000E+00 0. -1.
<mgrwt>
<rscale>  0 0.90676757E+02</rscale>
<asrwt>0</asrwt>
<pdfrwt beam="2">  1        2 0.67553932E-01 0.90676757E+02</pdfrwt>
<pdfrwt beam="1">  1       -2 0.72020249E-03 0.90676757E+02</pdfrwt>
<totfact> 0.20931859E+05</totfact>
</mgrwt>
</event>
<event>
 5    1  0.1239369E+001  0.9070131E+02  0.7546771E-02  0.1301162E+00
          1   -1    0    0  501    0  0.00000000000E+00  0.00000000000E+00  0.14512905549E+03  0.14512905549E+03  0.00000000000E+00 0. -1.
         -1   -1    0    0    0  501 -0.00000000000E+00 -0.00000000000E+00 -0.14171398598E+02  0.14171398598E+02  0.00000000000E+00 0.  1.
         23    2    1    2    0    0  0.00000000000E+00  0.00000000000E+00  0.13095765689E+03  0.15930045408E+03  0.90701305249E+02 0.  0.
        -13    1    3    3    0    0 -0.33645524305E+02 -0.25505875376E+02  0.36400698142E+02  0.55745688709E+02  0.00000000000E+00 0. -1.
         13    1    3    3    0    0  0.33645524305E+02  0.25505875376E+02  0.94556958747E+02  0.10355476538E+03  0.00000000000E+00 0.  1.
<mgrwt>
<rscale>  0 0.90701305E+02</rscale>
<asrwt>0</asrwt>
<pdfrwt beam="1">  1        1 0.22327546E-01 0.90701305E+02</pdfrwt>
<pdfrwt beam="2">  1       -1 0.21802153E-02 0.90701305E+02</pdfrwt>
<totfact> 0.11304025E+05</totfact>
</mgrwt>
</event>
<event>
 5    1  0.1239369E+001  0.9045732E+02  0.7546771E-02  0.1301748E+00
          1   -1    0    0  501    0  0.00000000000E+00  0.00000000000E+00  0.17941920712E+03  0.17941920712E+03  0.00000000000E+00 0. -1.
         -1   -1    0    0    0  501 -0.00000000000E+00 -0.00000000000E+00 -0.11401408383E+02  0.11401408383E+02  0.00000000000E+00 0.  1.
         23    2    1    2    0    0  0.00000000000E+00  0.00000000000E+00  0.16801779874E+03  0.19082061551E+03  0.90457319266E+02 0.  0.
        -11    1    3    3    0    0 -0.90281845571E+01 -0.41942365000E+02  0.11420965309E+03  0.12200211046E+03  0.00000000000E+00 0. -1.
         11    1    3    3    0    0  0.90281845571E+01  0.41942365000E+02  0.53808145648E+02  0.68818505043E+02  0.00000000000E+00 0.  1.
<mgrwt>
<rscale>  0 0.90457319E+02</rscale>
<asrwt>0</asrwt>
<pdfrwt beam="1">  1        1 0.27602953E-01 0.90457319E+02</pdfrwt>
<pdfrwt beam="2">  1       -1 0.17540630E-02 0.90457319E+02</pdfrwt>
<totfact> 0.11844737E+05</totfact>
</mgrwt>
</event>
<event>
 5    1  0.1239369E+001  0.8479172E+02  0.7546771E-02  0.1315978E+00
         -2   -1    0    0    0  501 -0.00000000000E+00  0.00000000000E+00  0.84677023442E+02  0.84677023442E+02  0.00000000000E+00 0.  1.
          2   -1    0    0  501    0  0.00000000000E+00 -0.00000000000E+00 -0.21226645091E+02  0.21226645091E+02  0.00000000000E+00 0. -1.
         23    2    1    2    0    0  0.00000000000E+00  0.00000000000E+00  0.63450378351E+02  0.10590366853E+03  0.84791724217E+02 0.  0.
        -13    1    3    3    0    0 -0.21751901745E+01  0.25999643827E+02 -0.10012178533E+02  0.27945601629E+02  0.00000000000E+00 0. -1.
         13    1    3    3    0    0  0.21751901745E+01 -0.25999643827E+02  0.73462556884E+02  0.77958066904E+02  0.00000000000E+00 0.  1.
<mgrwt>
<rscale>  0 0.84791724E+02</rscale>
<asrwt>0</asrwt>
<pdfrwt beam="2">  1        2 0.32656377E-02 0.84791724E+02</pdfrwt>
<pdfrwt beam="1">  1       -2 0.13027234E-01 0.84791724E+02</pdfrwt>
<totfact> 0.10016408E+05</totfact>
</mgrwt>
</event>
<event>
 5    1  0.1239369E+001  0.9181795E+02  0.7546771E-02  0.1298508E+00
         -2   -1    0    0    0  501 -0.00000000000E+00  0.00000000000E+00  0.80566639997E+01  0.80566639997E+01  0.00000000000E+00 0.  1.
          2   -1    0    0  501    0  0.00000000000E+00 -0.00000000000E+00 -0.26160130037E+03  0.26160130037E+03  0.00000000000E+00 0. -1.
         23    2    1    2    0    0  0.00000000000E+00  0.00000000000E+00 -0.25354463637E+03  0.26965796437E+03  0.91817945500E+02 0.  0.
        -11    1    3    3    0    0 -0.15257257726E+01  0.39980066276E+02 -0.19289446255E+03  0.19700001833E+03  0.00000000000E+00 0. -1.
         11    1    3    3    0    0  0.15257257726E+01 -0.39980066276E+02 -0.60650173817E+02  0.72657946039E+02  0.00000000000E+00 0.  1.
<mgrwt>
<rscale>  0 0.91817945E+02</rscale>
<asrwt>0</asrwt>
<pdfrwt beam="2">  1        2 0.40246347E-01 0.91817945E+02</pdfrwt>
<pdfrwt beam="1">  1       -2 0.12394870E-02 0.91817945E+02</pdfrwt>
<totfact> 0.16753832E+05</totfact>
</mgrwt>
</event>
<event>
 5    1  0.1239369E+001  0.9488057E+02  0.7546771E-02  0.1291445E+00
         -1   -1    0    0    0  501 -0.00000000000E+00  0.00000000000E+00  0.64490289314E+01  0.64490289314E+01  0.00000000000E+00 0.  1.
          1   -1    0    0  501    0  0.00000000000E+00 -0.00000000000E+00 -0.34897979309E+03  0.34897979309E+03  0.00000000000E+00 0. -1.
         23    2    1    2    0    0  0.00000000000E+00  0.00000000000E+00 -0.34253076416E+03  0.35542882202E+03  0.94880572978E+02 0.  0.
        -11    1    3    3    0    0 -0.37591045510E+02  0.27298814883E+02 -0.13528193657E+03  0.14303675877E+03  0.00000000000E+00 0.  1.
         11    1    3    3    0    0  0.37591045510E+02 -0.27298814883E+02 -0.20724882759E+03  0.21239206325E+03  0.00000000000E+00 0. -1.
<mgrwt>
<rscale>  0 0.94880573E+02</rscale>
<asrwt>0</asrwt>
<pdfrwt beam="2">  1        1 0.53689186E-01 0.94880573E+02</pdfrwt>
<pdfrwt beam="1">  1       -1 0.99215853E-03 0.94880573E+02</pdfrwt>
<totfact> 0.11849287E+05</totfact>
</mgrwt>
</event>
<event>
 5    1  0.1239369E+001  0.9101002E+02  0.7546771E-02  0.1300424E+00
          1   -1    0    0  501    0  0.00000000000E+00  0.00000000000E+00  0.12652993054E+03  0.12652993054E+03  0.00000000000E+00 0. -1.
         -1   -1    0    0    0  501 -0.00000000000E+00 -0.00000000000E+00 -0.16365346499E+02  0.16365346499E+02  0.00000000000E+00 0.  1.
         23    2    1    2    0    0  0.00000000000E+00  0.00000000000E+00  0.11016458404E+03  0.14289527704E+03  0.91010024849E+02 0.  0.
        -11    1    3    3    0    0  0.27823845168E+02 -0.20681248155E+02  0.88021173996E+01  0.35768109482E+02  0.00000000000E+00 0.  1.
         11    1    3    3    0    0 -0.27823845168E+02  0.20681248155E+02  0.10136246664E+03  0.10712716756E+03  0.00000000000E+00 0. -1.
<mgrwt>
<rscale>  0 0.91010025E+02</rscale>
<asrwt>0</asrwt>
<pdfrwt beam="1">  1        1 0.19466143E-01 0.91010025E+02</pdfrwt>
<pdfrwt beam="2">  1       -1 0.25177457E-02 0.91010025E+02</pdfrwt>
<totfact> 0.10928539E+05</totfact>
</mgrwt>
</event>
<event>
 5    1  0.1239369E+001  0.9066486E+02  0.7546771E-02  0.1301250E+00
          1   -1    0    0  501    0  0.00000000000E+00  0.00000000000E+00  0.64102182198E+01  0.64102182198E+01  0.00000000000E+00 0. -1.
         -1   -1    0    0    0  501 -0.00000000000E+00 -0.00000000000E+00 -0.32058649506E+03  0.32058649506E+03  0.00000000000E+00 0.  1.
         23    2    1    2    0    0  0.00000000000E+00  0.00000000000E+00 -0.31417627684E+03  0.32699671328E+03  0.90664864013E+02 0.  0.
        -13    1    3    3    0    0  0.23709692416E+02 -0.33101064859E+02 -0.22896823554E+03  0.23256027799E+03  0.00000000000E+00 0.  1.
         13    1    3    3    0    0 -0.23709692416E+02  0.33101064859E+02 -0.85208041296E+02  0.94436435292E+02  0.00000000000E+00 0. -1.
<mgrwt>
<rscale>  0 0.90664864E+02</rscale>
<asrwt>0</asrwt>
<pdfrwt beam="1">  1        1 0.98618724E-03 0.90664864E+02</pdfrwt>
<pdfrwt beam="2">  1       -1 0.49321008E-01 0.90664864E+02</pdfrwt>
<totfact> 0.59855681E+04</totfact>
</mgrwt>
</event>
<event>
 5    1  0.1239369E+001  0.8653143E+02  0.7546771E-02  0.1311476E+00
          1   -1    0    0  501    0  0.00000000000E+00  0.00000000000E+00  0.31715450542E+02  0.31715450542E+02  0.00000000000E+00 0. -1.
         -1   -1    0    0    0  501 -0.00000000000E+00 -0.00000000000E+00 -0.59022400163E+02  0.59022400163E+02  0.00000000000E+00 0.  1.
         23    2    1    2    0    0  0.00000000000E+00  0.00000000000E+00 -0.27306949621E+02  0.90737850705E+02  0.86531428123E+02 0.  0.
        -13    1    3    3    0    0  0.61730420998E+01  0.41157649452E+02 -0.12521882100E+01  0.41636841048E+02  0.00000000000E+00 0.  1.
         13    1    3    3    0    0 -0.61730420998E+01 -0.41157649452E+02 -0.26054761411E+02  0.49101009657E+02  0.00000000000E+00 0. -1.
<mgrwt>
<rscale>  0 0.86531428E+02</rscale>
<asrwt>0</asrwt>
<pdfrwt beam="1">  1        1 0.48793001E-02 0.86531428E+02</pdfrwt>
<pdfrwt beam="2">  1       -1 0.90803692E-02 0.86531428E+02</pdfrwt>
<totfact> 0.10148950E+05</totfact>
</mgrwt>
</event>
<event>
 5    1  0.1239369E+001  0.9291087E+02  0.7546771E-02  0.1295952E+00
         -2   -1    0    0    0  501 -0.00000000000E+00  0.00000000000E+00  0.41284586113E+02  0.41284586113E+02  0.00000000000E+00 0.  1.
          2   -1    0    0  501    0  0.00000000000E+00 -0.00000000000E+00 -0.52273923162E+02  0.52273923162E+02  0.00000000000E+00 0. -1.
         23    2    1    2    0    0  0.00000000000E+00  0.00000000000E+00 -0.10989337050E+02  0.93558509275E+02  0.92910866582E+02 0.  0.
        -13    1    3    3    0    0 -0.10699327978E+02  0.31236756831E+02 -0.38401146517E+02  0.50644433557E+02  0.00000000000E+00 0. -1.
         13    1    3    3    0    0  0.10699327978E+02 -0.31236756831E+02  0.27411809467E+02  0.42914075718E+02  0.00000000000E+00 0.  1.
<mgrwt>
<rscale>  0 0.92910867E+02</rscale>
<asrwt>0</asrwt>
<pdfrwt beam="2">  1        2 0.80421420E-02 0.92910867E+02</pdfrwt>
<pdfrwt beam="1">  1       -2 0.63514748E-02 0.92910867E+02</pdfrwt>
<totfact> 0.96912515E+04</totfact>
</mgrwt>
</event>
<event>
 5    1  0.1239369E+001  0.9659680E+02  0.7546771E-02  0.1287620E+00
          1   -1    0    0  501    0  0.00000000000E+00  0.00000000000E+00  0.81916425077E+02  0.81916425077E+02  0.00000000000E+00 0. -1.
         -1   -1    0    0    0  501 -0.00000000000E+00 -0.00000000000E+00 -0.28477019978E+02  0.28477019978E+02  0.00000000000E+00 0.  1.
         23    2    1    2    0    0  0.00000000000E+00  0.00000000000E+00  0.53439405099E+02  0.11039344505E+03  0.96596804780E+02 0.  0.
        -13    1    3    3    0    0 -0.18925750768E+02 -0.52428868321E+01 -0.23708166135E+02  0.30785533063E+02  0.00000000000E+00 0.  1.
         13    1    3    3    0    0  0.18925750768E+02  0.52428868321E+01  0.77147571234E+02  0.79607911992E+02  0.00000000000E+00 0. -1.
<mgrwt>
<rscale>  0 0.96596805E+02</rscale>
<asrwt>0</asrwt>
<pdfrwt beam="1">  1        1 0.12602527E-01 0.96596805E+02</pdfrwt>
<pdfrwt beam="2">  1       -1 0.43810800E-02 0.96596805E+02</pdfrwt>
<totfact> 0.86244761E+04</totfact>
</mgrwt>
</event>
<event>
 5    1  0.1239369E+001  0.9034016E+02  0.7546771E-02  0.1302030E+00
          1   -1    0    0  501    0  0.00000000000E+00  0.00000000000E+00  0.12322827136E+02  0.12322827136E+02  0.00000000000E+00 0. -1.
         -1   -1    0    0    0  501 -0.00000000000E+00 -0.00000000000E+00 -0.16557369166E+03  0.16557369166E+03  0.00000000000E+00 0.  1.
         23    2    1    2    0    0  0.00000000000E+00  0.00000000000E+00 -0.15325086452E+03  0.17789651879E+03  0.90340156752E+02 0.  0.
        -13    1    3    3    0    0  0.35861089406E+02 -0.32630060053E+01 -0.13032577335E+03  0.13520899431E+03  0.00000000000E+00 0.  1.
         13    1    3    3    0    0 -0.35861089406E+02  0.32630060053E+01 -0.22925091167E+02  0.42687524484E+02  0.00000000000E+00 0. -1.
<mgrwt>
<rscale>  0 0.90340157E+02</rscale>
<asrwt>0</asrwt>
<pdfrwt beam="1">  1        1 0.18958196E-02 0.90340157E+02</pdfrwt>
<pdfrwt beam="2">  1       -1 0.25472875E-01 0.90340157E+02</pdfrwt>
<totfact> 0.74791895E+04</totfact>
</mgrwt>
</event>
<event>
 5    1  0.1239369E+001  0.9112761E+02  0.7546771E-02  0.1300144E+00
         -2   -1    0    0    0  501 -0.00000000000E+00  0.00000000000E+00  0.50417886520E+02  0.50417886520E+02  0.00000000000E+00 0.  1.
          2   -1    0    0  501    0  0.00000000000E+00 -0.00000000000E+00 -0.41177056589E+02  0.41177056589E+02  0.00000000000E+00 0. -1.
         23    2    1    2    0    0  0.00000000000E+00  0.00000000000E+00  0.92408299312E+01  0.91594943109E+02  0.91127606494E+02 0.  0.
        -11    1    3    3    0    0  0.31114602909E+02 -0.16116481619E+02  0.33893658104E+02  0.48750790288E+02  0.00000000000E+00 0.  1.
         11    1    3    3    0    0 -0.31114602909E+02  0.16116481619E+02 -0.24652828173E+02  0.42844152821E+02  0.00000000000E+00 0. -1.
<mgrwt>
<rscale>  0 0.91127606E+02</rscale>
<asrwt>0</asrwt>
<pdfrwt beam="2">  1        2 0.63349318E-02 0.91127606E+02</pdfrwt>
<pdfrwt beam="1">  1       -2 0.77565979E-02 0.91127606E+02</pdfrwt>
<totfact> 0.96257379E+04</totfact>
</mgrwt>
</event>
<event>
 5    1  0.1239369E+001  0.9180117E+02  0.7546771E-02  0.1298548E+00
         -2   -1    0    0    0  501 -0.00000000000E+00  0.00000000000E+00  0.16113161612E+02  0.16113161612E+02  0.00000000000E+00 0.  1.
          2   -1    0    0  501    0  0.00000000000E+00 -0.00000000000E+00 -0.13075420654E+03  0.13075420654E+03  0.00000000000E+00 0. -1.
         23    2    1    2    0    0  0.00000000000E+00  0.00000000000E+00 -0.11464104493E+03  0.14686736815E+03  0.91801169088E+02 0.  0.
        -11    1    3    3    0    0 -0.20735981109E+02 -0.20903922225E+02 -0.98634352854E+00  0.29460613546E+02  0.00000000000E+00 0.  1.
         11    1    3    3    0    0  0.20735981109E+02  0.20903922225E+02 -0.11365470140E+03  0.11740675461E+03  0.00000000000E+00 0. -1.
<mgrwt>
<rscale>  0 0.91801169E+02</rscale>
<asrwt>0</asrwt>
<pdfrwt beam="2">  1        2 0.20116032E-01 0.91801169E+02</pdfrwt>
<pdfrwt beam="1">  1       -2 0.24789479E-02 0.91801169E+02</pdfrwt>
<totfact> 0.13106963E+05</totfact>
</mgrwt>
</event>
<event>
 5    1  0.1239369E+001  0.8930495E+02  0.7546771E-02  0.1304544E+00
         -1   -1    0    0    0  501 -0.00000000000E+00  0.00000000000E+00  0.62139679615E+02  0.62139679615E+02  0.00000000000E+00 0.  1.
          1   -1    0    0  501    0  0.00000000000E+00 -0.00000000000E+00 -0.32086477424E+02  0.32086477424E+02  0.00000000000E+00 0. -1.
         23    2    1    2    0    0  0.00000000000E+00  0.00000000000E+00  0.30053202190E+02  0.94226157039E+02  0.89304947838E+02 0.  0.
        -13    1    3    3    0    0 -0.37627806712E+01 -0.31789250426E+02 -0.17819712354E+02  0.36636827229E+02  0.00000000000E+00 0. -1.
         13    1    3    3    0    0  0.37627806712E+01  0.31789250426E+02  0.47872914544E+02  0.57589329810E+02  0.00000000000E+00 0.  1.
<mgrwt>
<rscale>  0 0.89304948E+02</rscale>
<asrwt>0</asrwt>
<pdfrwt beam="2">  1        1 0.49363812E-02 0.89304948E+02</pdfrwt>
<pdfrwt beam="1">  1       -1 0.95599507E-02 0.89304948E+02</pdfrwt>
<totfact> 0.92960395E+04</totfact>
</mgrwt>
</event>
<event>
 5    1  0.1239369E+001  0.8911853E+02  0.7546771E-02  0.1305000E+00
         -2   -1    0    0    0  501 -0.00000000000E+00  0.00000000000E+00  0.20110531948E+02  0.20110531948E+02  0.00000000000E+00 0.  1.
          2   -1    0    0  501    0  0.00000000000E+00 -0.00000000000E+00 -0.98730766938E+02  0.98730766938E+02  0.00000000000E+00 0. -1.
         23    2    1    2    0    0  0.00000000000E+00  0.00000000000E+00 -0.78620234991E+02  0.11884129889E+03  0.89118533263E+02 0.  0.
        -11    1    3    3    0    0  0.88565160870E+01 -0.42018913152E+02 -0.55172907655E+02  0.69914781548E+02  0.00000000000E+00 0. -1.
         11    1    3    3    0    0 -0.88565160870E+01  0.42018913152E+02 -0.23447327335E+02  0.48926517339E+02  0.00000000000E+00 0.  1.
<mgrwt>
<rscale>  0 0.89118533E+02</rscale>
<asrwt>0</asrwt>
<pdfrwt beam="2">  1        2 0.15189349E-01 0.89118533E+02</pdfrwt>
<pdfrwt beam="1">  1       -2 0.30939279E-02 0.89118533E+02</pdfrwt>
<totfact> 0.13011299E+05</totfact>
</mgrwt>
</event>
<event>
 5    1  0.1239369E+001  0.9387349E+02  0.7546771E-02  0.1293734E+00
         -2   -1    0    0    0  501 -0.00000000000E+00  0.00000000000E+00  0.98161571309E+01  0.98161571309E+01  0.00000000000E+00 0.  1.
          2   -1    0    0  501    0  0.00000000000E+00 -0.00000000000E+00 -0.22443183075E+03  0.22443183075E+03  0.00000000000E+00 0. -1.
         23    2    1    2    0    0  0.00000000000E+00  0.00000000000E+00 -0.21461567362E+03  0.23424798788E+03  0.93873491802E+02 0.  0.
        -11    1    3    3    0    0  0.48330779364E+01  0.46340378163E+02 -0.93132790916E+02  0.10413695806E+03  0.00000000000E+00 0.  1.
         11    1    3    3    0    0 -0.48330779364E+01 -0.46340378163E+02 -0.12148288270E+03  0.13011102982E+03  0.00000000000E+00 0. -1.
<mgrwt>
<rscale>  0 0.93873492E+02</rscale>
<asrwt>0</asrwt>
<pdfrwt beam="2">  1        2 0.34527972E-01 0.93873492E+02</pdfrwt>
<pdfrwt beam="1">  1       -2 0.15101781E-02 0.93873492E+02</pdfrwt>
<totfact> 0.14914475E+05</totfact>
</mgrwt>
</event>
<event>
 5    1  0.1239369E+001  0.8981700E+02  0.7546771E-02  0.1303295E+00
         -2   -1    0    0    0  501 -0.00000000000E+00  0.00000000000E+00  0.62590217311E+01  0.62590217311E+01  0.00000000000E+00 0.  1.
          2   -1    0    0  501    0  0.00000000000E+00 -0.00000000000E+00 -0.32221860838E+03  0.32221860838E+03  0.00000000000E+00 0. -1.
         23    2    1    2    0    0  0.00000000000E+00  0.00000000000E+00 -0.31595958665E+03  0.32847763011E+03  0.89816997768E+02 0.  0.
        -13    1    3    3    0    0 -0.24412717027E+02  0.36700648785E+02 -0.18940925310E+03  0.19447052099E+03  0.00000000000E+00 0.  1.
         13    1    3    3    0    0  0.24412717027E+02 -0.36700648785E+02 -0.12655033355E+03  0.13400710912E+03  0.00000000000E+00 0. -1.
<mgrwt>
<rscale>  0 0.89816998E+02</rscale>
<asrwt>0</asrwt>
<pdfrwt beam="2">  1        2 0.49572098E-01 0.89816998E+02</pdfrwt>
<pdfrwt beam="1">  1       -2 0.96292633E-03 0.89816998E+02</pdfrwt>
<totfact> 0.19201847E+05</totfact>
</mgrwt>
</event>
<event>
 5    1  0.1239369E+001  0.1018412E+03  0.7546771E-02  0.1276471E+00
         -2   -1    0    0    0  501 -0.00000000000E+00  0.00000000000E+00  0.23260615252E+02  0.23260615252E+02  0.00000000000E+00 0.  1.
          2   -1    0    0  501    0  0.00000000000E+00 -0.00000000000E+00 -0.11147206569E+03  0.11147206569E+03  0.00000000000E+00 0. -1.
         23    2    1    2    0    0  0.00000000000E+00  0.00000000000E+00 -0.88211450434E+02  0.13473268094E+03  0.10184122606E+03 0.  0.
        -11    1    3    3    0    0  0.47705191196E+02 -0.17219542320E+01 -0.20656759225E+02  0.52013960579E+02  0.00000000000E+00 0.  1.
         11    1    3    3    0    0 -0.47705191196E+02  0.17219542320E+01 -0.67554691209E+02  0.82718720358E+02  0.00000000000E+00 0. -1.
<mgrwt>
<rscale>  0 0.10184123E+03</rscale>
<asrwt>0</asrwt>
<pdfrwt beam="2">  1        2 0.17149548E-01 0.10184123E+03</pdfrwt>
<pdfrwt beam="1">  1       -2 0.35785562E-02 0.10184123E+03</pdfrwt>
<totfact> 0.93433590E+04</totfact>
</mgrwt>
</event>
<event>
 5    1  0.1239369E+001  0.8970747E+02  0.7546771E-02  0.1303562E+00
         -3   -1    0    0    0  501 -0.00000000000E+00  0.00000000000E+00  0.88567213765E+01  0.88567213765E+01  0.00000000000E+00 0.  1.
          3   -1    0    0  501    0  0.00000000000E+00 -0.00000000000E+00 -0.22715599215E+03  0.22715599215E+03  0.00000000000E+00 0. -1.
         23    2    1    2    0    0  0.00000000000E+00  0.00000000000E+00 -0.21829927077E+03  0.23601271352E+03  0.89707465273E+02 0.  0.
        -11    1    3    3    0    0 -0.26847826428E+01 -0.41402868582E+02 -0.64311885624E+02  0.76533810941E+02  0.00000000000E+00 0.  1.
         11    1    3    3    0    0  0.26847826428E+01  0.41402868582E+02 -0.15398738515E+03  0.15947890258E+03  0.00000000000E+00 0. -1.
<mgrwt>
<rscale>  0 0.89707465E+02</rscale>
<asrwt>0</asrwt>
<pdfrwt beam="2">  1        3 0.34947076E-01 0.89707465E+02</pdfrwt>
<pdfrwt beam="1">  1       -3 0.13625725E-02 0.89707465E+02</pdfrwt>
<totfact> 0.27930585E+04</totfact>
</mgrwt>
</event>
<event>
 5    1  0.1239369E+001  0.8892391E+02  0.7546771E-02  0.1305479E+00
          1   -1    0    0  501    0  0.00000000000E+00  0.00000000000E+00  0.35504037482E+02  0.35504037482E+02  0.00000000000E+00 0. -1.
         -1   -1    0    0    0  501 -0.00000000000E+00 -0.00000000000E+00 -0.55680017533E+02  0.55680017533E+02  0.00000000000E+00 0.  1.
         23    2    1    2    0    0  0.00000000000E+00  0.00000000000E+00 -0.20175980051E+02  0.91184055015E+02  0.88923909709E+02 0.  0.
        -13    1    3    3    0    0  0.17868683677E+02 -0.84045186894E+01 -0.50936907950E+02  0.54630526103E+02  0.00000000000E+00 0.  1.
         13    1    3    3    0    0 -0.17868683677E+02  0.84045186894E+01  0.30760927899E+02  0.36553528912E+02  0.00000000000E+00 0. -1.
<mgrwt>
<rscale>  0 0.88923910E+02</rscale>
<asrwt>0</asrwt>
<pdfrwt beam="1">  1        1 0.54621596E-02 0.88923910E+02</pdfrwt>
<pdfrwt beam="2">  1       -1 0.85661566E-02 0.88923910E+02</pdfrwt>
<totfact> 0.95562425E+04</totfact>
</mgrwt>
</event>
<event>
 5    1  0.1239369E+001  0.1170990E+03  0.7546771E-02  0.1247961E+00
         -1   -1    0    0    0  501 -0.00000000000E+00  0.00000000000E+00  0.19051291966E+02  0.19051291966E+02  0.00000000000E+00 0. -1.
          1   -1    0    0  501    0  0.00000000000E+00 -0.00000000000E+00 -0.17993768899E+03  0.17993768899E+03  0.00000000000E+00 0.  1.
         23    2    1    2    0    0  0.00000000000E+00  0.00000000000E+00 -0.16088639702E+03  0.19898898095E+03  0.11709902559E+03 0.  0.
        -11    1    3    3    0    0 -0.29876352847E+02  0.50198134748E+02 -0.73732218606E+02  0.94068534867E+02  0.00000000000E+00 0. -1.
         11    1    3    3    0    0  0.29876352847E+02 -0.50198134748E+02 -0.87154178413E+02  0.10492044608E+03  0.00000000000E+00 0.  1.
<mgrwt>
<rscale>  0 0.11709903E+03</rscale>
<asrwt>0</asrwt>
<pdfrwt beam="2">  1        1 0.27682722E-01 0.11709903E+03</pdfrwt>
<pdfrwt beam="1">  1       -1 0.29309679E-02 0.11709903E+03</pdfrwt>
<totfact> 0.58627116E+04</totfact>
</mgrwt>
</event>
<event>
 5    1  0.1239369E+001  0.9266758E+02  0.7546771E-02  0.1296517E+00
         -2   -1    0    0    0  501 -0.00000000000E+00  0.00000000000E+00  0.17837460725E+02  0.17837460725E+02  0.00000000000E+00 0.  1.
          2   -1    0    0  501    0  0.00000000000E+00 -0.00000000000E+00 -0.12035459282E+03  0.12035459282E+03  0.00000000000E+00 0. -1.
         23    2    1    2    0    0  0.00000000000E+00  0.00000000000E+00 -0.10251713210E+03  0.13819205355E+03  0.92667584895E+02 0.  0.
        -11    1    3    3    0    0  0.38188264057E+02 -0.14398212350E+02 -0.83970312114E+02  0.93363083427E+02  0.00000000000E+00 0. -1.
         11    1    3    3    0    0 -0.38188264057E+02  0.14398212350E+02 -0.18546819984E+02  0.44828970121E+02  0.00000000000E+00 0.  1.
<mgrwt>
<rscale>  0 0.92667585E+02</rscale>
<asrwt>0</asrwt>
<pdfrwt beam="2">  1        2 0.18516092E-01 0.92667585E+02</pdfrwt>
<pdfrwt beam="1">  1       -2 0.27442247E-02 0.92667585E+02</pdfrwt>
<totfact> 0.12433897E+05</totfact>
</mgrwt>
</event>
<event>
 5    1  0.1239369E+001  0.6328130E+02  0.7546771E-02  0.1384556E+00
         -1   -1    0    0    0  501 -0.00000000000E+00  0.00000000000E+00  0.42298822156E+02  0.42298822156E+02  0.00000000000E+00 0. -1.
          1   -1    0    0  501    0  0.00000000000E+00 -0.00000000000E+00 -0.23668054497E+02  0.23668054497E+02  0.00000000000E+00 0.  1.
         23    2    1    2    0    0  0.00000000000E+00  0.00000000000E+00  0.18630767658E+02  0.65966876653E+02  0.63281303020E+02 0.  0.
        -13    1    3    3    0    0  0.14684014380E+02  0.48557535770E+01 -0.19459175058E+02  0.24856751900E+02  0.00000000000E+00 0.  1.
         13    1    3    3    0    0 -0.14684014380E+02 -0.48557535770E+01  0.38089942716E+02  0.41110124753E+02  0.00000000000E+00 0. -1.
<mgrwt>
<rscale>  0 0.63281303E+02</rscale>
<asrwt>0</asrwt>
<pdfrwt beam="2">  1        1 0.36412392E-02 0.63281303E+02</pdfrwt>
<pdfrwt beam="1">  1       -1 0.65075111E-02 0.63281303E+02</pdfrwt>
<totfact> 0.23258712E+05</totfact>
</mgrwt>
</event>
<event>
 5    1  0.1239369E+001  0.9075764E+02  0.7546771E-02  0.1301027E+00
          3   -1    0    0  501    0  0.00000000000E+00  0.00000000000E+00  0.15325408206E+02  0.15325408206E+02  0.00000000000E+00 0. -1.
         -3   -1    0    0    0  501 -0.00000000000E+00 -0.00000000000E+00 -0.13436752080E+03  0.13436752080E+03  0.00000000000E+00 0.  1.
         23    2    1    2    0    0  0.00000000000E+00  0.00000000000E+00 -0.11904211259E+03  0.14969292901E+03  0.90757635622E+02 0.  0.
        -11    1    3    3    0    0  0.93422914446E+01  0.28614159612E+02 -0.11553140504E+03  0.11938824938E+03  0.00000000000E+00 0.  1.
         11    1    3    3    0    0 -0.93422914446E+01 -0.28614159612E+02 -0.35107075557E+01  0.30304679627E+02  0.00000000000E+00 0. -1.
<mgrwt>
<rscale>  0 0.90757636E+02</rscale>
<asrwt>0</asrwt>
<pdfrwt beam="1">  1        3 0.23577550E-02 0.90757636E+02</pdfrwt>
<pdfrwt beam="2">  1       -3 0.20671927E-01 0.90757636E+02</pdfrwt>
<totfact> 0.31719991E+04</totfact>
</mgrwt>
</event>
<event>
 5    1  0.1239369E+001  0.9269541E+02  0.7546771E-02  0.1296453E+00
         -1   -1    0    0    0  501 -0.00000000000E+00  0.00000000000E+00  0.44930639917E+03  0.44930639917E+03  0.00000000000E+00 0.  1.
          1   -1    0    0  501    0  0.00000000000E+00 -0.00000000000E+00 -0.47809459160E+01  0.47809459160E+01  0.00000000000E+00 0. -1.
         23    2    1    2    0    0  0.00000000000E+00  0.00000000000E+00  0.44452545326E+03  0.45408734509E+03  0.92695406449E+02 0.  0.
        -13    1    3    3    0    0 -0.34577043574E+02  0.30562267493E+02  0.24332456556E+03  0.24766200424E+03  0.00000000000E+00 0. -1.
         13    1    3    3    0    0  0.34577043574E+02 -0.30562267493E+02  0.20120088769E+03  0.20642534085E+03  0.00000000000E+00 0.  1.
<mgrwt>
<rscale>  0 0.92695406E+02</rscale>
<asrwt>0</asrwt>
<pdfrwt beam="2">  1        1 0.73553049E-03 0.92695406E+02</pdfrwt>
<pdfrwt beam="1">  1       -1 0.69124028E-01 0.92695406E+02</pdfrwt>
<totfact> 0.47968688E+04</totfact>
</mgrwt>
</event>
<event>
 5    1  0.1239369E+001  0.9197667E+02  0.7546771E-02  0.1298134E+00
          1   -1    0    0  501    0  0.00000000000E+00  0.00000000000E+00  0.14267109501E+02  0.14267109501E+02  0.00000000000E+00 0. -1.
         -1   -1    0    0    0  501 -0.00000000000E+00 -0.00000000000E+00 -0.14823793817E+03  0.14823793817E+03  0.00000000000E+00 0.  1.
         23    2    1    2    0    0  0.00000000000E+00  0.00000000000E+00 -0.13397082867E+03  0.16250504767E+03  0.91976668696E+02 0.  0.
        -13    1    3    3    0    0  0.41503641743E+02 -0.48482182541E+01 -0.33052161495E+02  0.53277602026E+02  0.00000000000E+00 0. -1.
         13    1    3    3    0    0 -0.41503641743E+02  0.48482182541E+01 -0.10091866717E+03  0.10922744564E+03  0.00000000000E+00 0.  1.
<mgrwt>
<rscale>  0 0.91976669E+02</rscale>
<asrwt>0</asrwt>
<pdfrwt beam="1">  1        1 0.21949399E-02 0.91976669E+02</pdfrwt>
<pdfrwt beam="2">  1       -1 0.22805837E-01 0.91976669E+02</pdfrwt>
<totfact> 0.73312375E+04</totfact>
</mgrwt>
</event>
<event>
 5    1  0.1239369E+001  0.9372183E+02  0.7546771E-02  0.1294081E+00
          1   -1    0    0  501    0  0.00000000000E+00  0.00000000000E+00  0.15165145289E+02  0.15165145289E+02  0.00000000000E+00 0. -1.
         -1   -1    0    0    0  501 -0.00000000000E+00 -0.00000000000E+00 -0.14480213418E+03  0.14480213418E+03  0.00000000000E+00 0.  1.
         23    2    1    2    0    0  0.00000000000E+00  0.00000000000E+00 -0.12963698890E+03  0.15996727947E+03  0.93721831034E+02 0.  0.
        -13    1    3    3    0    0  0.16616880244E+02 -0.32475100940E+02 -0.11502347121E+03  0.12066959775E+03  0.00000000000E+00 0.  1.
         13    1    3    3    0    0 -0.16616880244E+02  0.32475100940E+02 -0.14613517681E+02  0.39297681727E+02  0.00000000000E+00 0. -1.
<mgrwt>
<rscale>  0 0.93721831E+02</rscale>
<asrwt>0</asrwt>
<pdfrwt beam="1">  1        1 0.23330993E-02 0.93721831E+02</pdfrwt>
<pdfrwt beam="2">  1       -1 0.22277251E-01 0.93721831E+02</pdfrwt>
<totfact> 0.70197086E+04</totfact>
</mgrwt>
</event>
<event>
 5    1  0.1239369E+001  0.9075313E+02  0.7546771E-02  0.1301038E+00
         -1   -1    0    0    0  501 -0.00000000000E+00  0.00000000000E+00  0.10094127342E+02  0.10094127342E+02  0.00000000000E+00 0.  1.
          1   -1    0    0  501    0  0.00000000000E+00 -0.00000000000E+00 -0.20398323518E+03  0.20398323518E+03  0.00000000000E+00 0. -1.
         23    2    1    2    0    0  0.00000000000E+00  0.00000000000E+00 -0.19388910784E+03  0.21407736252E+03  0.90753132210E+02 0.  0.
        -11    1    3    3    0    0 -0.34156135657E+01  0.40793404567E+02 -0.50764077601E+02  0.65213187676E+02  0.00000000000E+00 0.  1.
         11    1    3    3    0    0  0.34156135657E+01 -0.40793404567E+02 -0.14312503024E+03  0.14886417484E+03  0.00000000000E+00 0. -1.
<mgrwt>
<rscale>  0 0.90753132E+02</rscale>
<asrwt>0</asrwt>
<pdfrwt beam="2">  1        1 0.31382037E-01 0.90753132E+02</pdfrwt>
<pdfrwt beam="1">  1       -1 0.15529426E-02 0.90753132E+02</pdfrwt>
<totfact> 0.12035296E+05</totfact>
</mgrwt>
</event>
<event>
 5    1  0.1239369E+001  0.9858498E+02  0.7546771E-02  0.1283300E+00
          1   -1    0    0  501    0  0.00000000000E+00  0.00000000000E+00  0.75228064141E+02  0.75228064141E+02  0.00000000000E+00 0. -1.
         -1   -1    0    0    0  501 -0.00000000000E+00 -0.00000000000E+00 -0.32298449218E+02  0.32298449218E+02  0.00000000000E+00 0.  1.
         23    2    1    2    0    0  0.00000000000E+00  0.00000000000E+00  0.42929614923E+02  0.10752651336E+03  0.98584984849E+02 0.  0.
        -11    1    3    3    0    0 -0.24465830440E+02  0.35006994731E+02 -0.53779778939E+01  0.43046360885E+02  0.00000000000E+00 0.  1.
         11    1    3    3    0    0  0.24465830440E+02 -0.35006994731E+02  0.48307592817E+02  0.64480152474E+02  0.00000000000E+00 0. -1.
<mgrwt>
<rscale>  0 0.98584985E+02</rscale>
<asrwt>0</asrwt>
<pdfrwt beam="1">  1        1 0.11573548E-01 0.98584985E+02</pdfrwt>
<pdfrwt beam="2">  1       -1 0.49689922E-02 0.98584985E+02</pdfrwt>
<totfact> 0.80373504E+04</totfact>
</mgrwt>
</event>
<event>
 5    1  0.1239369E+001  0.8970087E+02  0.7546771E-02  0.1303578E+00
         -2   -1    0    0    0  501 -0.00000000000E+00  0.00000000000E+00  0.95332019099E+01  0.95332019099E+01  0.00000000000E+00 0.  1.
          2   -1    0    0  501    0  0.00000000000E+00 -0.00000000000E+00 -0.21100584463E+03  0.21100584463E+03  0.00000000000E+00 0. -1.
         23    2    1    2    0    0  0.00000000000E+00  0.00000000000E+00 -0.20147264272E+03  0.22053904654E+03  0.89700865570E+02 0.  0.
        -13    1    3    3    0    0 -0.29154142516E+02  0.28450845311E+02 -0.54599181520E+02  0.68121107210E+02  0.00000000000E+00 0.  1.
         13    1    3    3    0    0  0.29154142516E+02 -0.28450845311E+02 -0.14687346120E+03  0.15241793933E+03  0.00000000000E+00 0. -1.
<mgrwt>
<rscale>  0 0.89700866E+02</rscale>
<asrwt>0</asrwt>
<pdfrwt beam="2">  1        2 0.32462437E-01 0.89700866E+02</pdfrwt>
<pdfrwt beam="1">  1       -2 0.14666465E-02 0.89700866E+02</pdfrwt>
<totfact> 0.16478069E+05</totfact>
</mgrwt>
</event>
<event>
 5    1  0.1239369E+001  0.9150354E+02  0.7546771E-02  0.1299251E+00
         -4   -1    0    0    0  501 -0.00000000000E+00  0.00000000000E+00  0.10179369540E+03  0.10179369540E+03  0.00000000000E+00 0.  1.
          4   -1    0    0  501    0  0.00000000000E+00 -0.00000000000E+00 -0.20563398077E+02  0.20563398077E+02  0.00000000000E+00 0. -1.
         23    2    1    2    0    0  0.00000000000E+00  0.00000000000E+00  0.81230297320E+02  0.12235709347E+03  0.91503536111E+02 0.  0.
        -11    1    3    3    0    0 -0.11487866500E+02 -0.20398591936E+02 -0.11947433144E+02  0.26283355730E+02  0.00000000000E+00 0. -1.
         11    1    3    3    0    0  0.11487866500E+02  0.20398591936E+02  0.93177730464E+02  0.96073737744E+02  0.00000000000E+00 0.  1.
<mgrwt>
<rscale>  0 0.91503536E+02</rscale>
<asrwt>0</asrwt>
<pdfrwt beam="2">  1        4 0.31635998E-02 0.91503536E+02</pdfrwt>
<pdfrwt beam="1">  1       -4 0.15660568E-01 0.91503536E+02</pdfrwt>
<totfact> 0.24897537E+04</totfact>
</mgrwt>
</event>
<event>
 5    1  0.1239369E+001  0.9763573E+02  0.7546771E-02  0.1285348E+00
         -1   -1    0    0    0  501 -0.00000000000E+00  0.00000000000E+00  0.78234618171E+02  0.78234618171E+02  0.00000000000E+00 0.  1.
          1   -1    0    0  501    0  0.00000000000E+00 -0.00000000000E+00 -0.30462009944E+02  0.30462009944E+02  0.00000000000E+00 0. -1.
         23    2    1    2    0    0  0.00000000000E+00  0.00000000000E+00  0.47772608227E+02  0.10869662812E+03  0.97635725362E+02 0.  0.
        -13    1    3    3    0    0  0.20582456154E+02  0.18636099713E+02  0.68587838502E+02  0.73994819442E+02  0.00000000000E+00 0.  1.
         13    1    3    3    0    0 -0.20582456154E+02 -0.18636099713E+02 -0.20815230275E+02  0.34701808674E+02  0.00000000000E+00 0. -1.
<mgrwt>
<rscale>  0 0.97635725E+02</rscale>
<asrwt>0</asrwt>
<pdfrwt beam="2">  1        1 0.46864631E-02 0.97635725E+02</pdfrwt>
<pdfrwt beam="1">  1       -1 0.12036095E-01 0.97635725E+02</pdfrwt>
<totfact> 0.71304042E+04</totfact>
</mgrwt>
</event>
<event>
 5    1  0.1239369E+001  0.8765765E+02  0.7546771E-02  0.1308625E+00
          2   -1    0    0  501    0  0.00000000000E+00  0.00000000000E+00  0.77308432502E+02  0.77308432502E+02  0.00000000000E+00 0. -1.
         -2   -1    0    0    0  501 -0.00000000000E+00 -0.00000000000E+00 -0.24848076137E+02  0.24848076137E+02  0.00000000000E+00 0.  1.
         23    2    1    2    0    0  0.00000000000E+00  0.00000000000E+00  0.52460356365E+02  0.10215650864E+03  0.87657648083E+02 0.  0.
        -13    1    3    3    0    0  0.18411974235E+02 -0.24755876550E+02 -0.10049474711E+02  0.32447590988E+02  0.00000000000E+00 0.  1.
         13    1    3    3    0    0 -0.18411974235E+02  0.24755876550E+02  0.62509831076E+02  0.69708917651E+02  0.00000000000E+00 0. -1.
<mgrwt>
<rscale>  0 0.87657648E+02</rscale>
<asrwt>0</asrwt>
<pdfrwt beam="1">  1        2 0.11893605E-01 0.87657648E+02</pdfrwt>
<pdfrwt beam="2">  1       -2 0.38227810E-02 0.87657648E+02</pdfrwt>
<totfact> 0.12685772E+05</totfact>
</mgrwt>
</event>
<event>
 5    1  0.1239369E+001  0.9028074E+02  0.7546771E-02  0.1302173E+00
         -1   -1    0    0    0  501 -0.00000000000E+00  0.00000000000E+00  0.26517034847E+02  0.26517034847E+02  0.00000000000E+00 0.  1.
          1   -1    0    0  501    0  0.00000000000E+00 -0.00000000000E+00 -0.76843163941E+02  0.76843163941E+02  0.00000000000E+00 0. -1.
         23    2    1    2    0    0  0.00000000000E+00  0.00000000000E+00 -0.50326129094E+02  0.10336019879E+03  0.90280736727E+02 0.  0.
        -11    1    3    3    0    0  0.41654639768E+02  0.79462044760E+01 -0.74488526684E+01  0.43055041352E+02  0.00000000000E+00 0.  1.
         11    1    3    3    0    0 -0.41654639768E+02 -0.79462044760E+01 -0.42877276426E+02  0.60305157436E+02  0.00000000000E+00 0. -1.
<mgrwt>
<rscale>  0 0.90280737E+02</rscale>
<asrwt>0</asrwt>
<pdfrwt beam="2">  1        1 0.11822025E-01 0.90280737E+02</pdfrwt>
<pdfrwt beam="1">  1       -1 0.40795439E-02 0.90280737E+02</pdfrwt>
<totfact> 0.10285948E+05</totfact>
</mgrwt>
</event>
<event>
 5    1  0.1239369E+001  0.9271655E+02  0.7546771E-02  0.1296403E+00
          3   -1    0    0  501    0  0.00000000000E+00  0.00000000000E+00  0.12921526600E+02  0.12921526600E+02  0.00000000000E+00 0. -1.
         -3   -1    0    0    0  501 -0.00000000000E+00 -0.00000000000E+00 -0.16631854153E+03  0.16631854153E+03  0.00000000000E+00 0.  1.
         23    2    1    2    0    0  0.00000000000E+00  0.00000000000E+00 -0.15339701493E+03  0.17924006813E+03  0.92716545630E+02 0.  0.
        -13    1    3    3    0    0  0.17304652571E+02  0.42988479437E+02 -0.74231043287E+02  0.87508331903E+02  0.00000000000E+00 0. -1.
         13    1    3    3    0    0 -0.17304652571E+02 -0.42988479437E+02 -0.79165971638E+02  0.91731736222E+02  0.00000000000E+00 0.  1.
<mgrwt>
<rscale>  0 0.92716546E+02</rscale>
<asrwt>0</asrwt>
<pdfrwt beam="1">  1        3 0.19879274E-02 0.92716546E+02</pdfrwt>
<pdfrwt beam="2">  1       -3 0.25587465E-01 0.92716546E+02</pdfrwt>
<totfact> 0.28295071E+04</totfact>
</mgrwt>
</event>
<event>
 5    1  0.1239369E+001  0.8565967E+02  0.7546771E-02  0.1313716E+00
          1   -1    0    0  501    0  0.00000000000E+00  0.00000000000E+00  0.79050395700E+01  0.79050395700E+01  0.00000000000E+00 0. -1.
         -1   -1    0    0    0  501 -0.00000000000E+00 -0.00000000000E+00 -0.23205382149E+03  0.23205382149E+03  0.00000000000E+00 0.  1.
         23    2    1    2    0    0  0.00000000000E+00  0.00000000000E+00 -0.22414878192E+03  0.23995886106E+03  0.85659667084E+02 0.  0.
        -13    1    3    3    0    0  0.10321909267E+02 -0.38436814958E+02 -0.15640800546E+03  0.16139205286E+03  0.00000000000E+00 0.  1.
         13    1    3    3    0    0 -0.10321909267E+02  0.38436814958E+02 -0.67740776458E+02  0.78566808196E+02  0.00000000000E+00 0. -1.
<mgrwt>
<rscale>  0 0.85659667E+02</rscale>
<asrwt>0</asrwt>
<pdfrwt beam="1">  1        1 0.12161597E-02 0.85659667E+02</pdfrwt>
<pdfrwt beam="2">  1       -1 0.35700593E-01 0.85659667E+02</pdfrwt>
<totfact> 0.78080238E+04</totfact>
</mgrwt>
</event>
<event>
 5    1  0.1239369E+001  0.8731695E+02  0.7546771E-02  0.1309482E+00
         -2   -1    0    0    0  501 -0.00000000000E+00  0.00000000000E+00  0.82377832185E+01  0.82377832185E+01  0.00000000000E+00 0.  1.
          2   -1    0    0  501    0  0.00000000000E+00 -0.00000000000E+00 -0.23138049100E+03  0.23138049100E+03  0.00000000000E+00 0. -1.
         23    2    1    2    0    0  0.00000000000E+00  0.00000000000E+00 -0.22314270778E+03  0.23961827422E+03  0.87316947401E+02 0.  0.
        -11    1    3    3    0    0 -0.24713834847E+02 -0.34143992438E+02 -0.80345320308E+02  0.90730129217E+02  0.00000000000E+00 0.  1.
         11    1    3    3    0    0  0.24713834847E+02  0.34143992438E+02 -0.14279738747E+03  0.14888814500E+03  0.00000000000E+00 0. -1.
<mgrwt>
<rscale>  0 0.87316947E+02</rscale>
<asrwt>0</asrwt>
<pdfrwt beam="2">  1        2 0.35596998E-01 0.87316947E+02</pdfrwt>
<pdfrwt beam="1">  1       -2 0.12673513E-02 0.87316947E+02</pdfrwt>
<totfact> 0.18313956E+05</totfact>
</mgrwt>
</event>
<event>
 5    1  0.1239369E+001  0.8544446E+02  0.7546771E-02  0.1314274E+00
          2   -1    0    0  501    0  0.00000000000E+00  0.00000000000E+00  0.14654893959E+02  0.14654893959E+02  0.00000000000E+00 0. -1.
         -2   -1    0    0    0  501 -0.00000000000E+00 -0.00000000000E+00 -0.12454466098E+03  0.12454466098E+03  0.00000000000E+00 0.  1.
         23    2    1    2    0    0  0.00000000000E+00  0.00000000000E+00 -0.10988976703E+03  0.13919955494E+03  0.85444456809E+02 0.  0.
        -13    1    3    3    0    0  0.37308661323E+02 -0.19129834937E+02 -0.68309852522E+02  0.80150625363E+02  0.00000000000E+00 0.  1.
         13    1    3    3    0    0 -0.37308661323E+02  0.19129834937E+02 -0.41579914504E+02  0.59048929580E+02  0.00000000000E+00 0. -1.
<mgrwt>
<rscale>  0 0.85444457E+02</rscale>
<asrwt>0</asrwt>
<pdfrwt beam="1">  1        2 0.22545991E-02 0.85444457E+02</pdfrwt>
<pdfrwt beam="2">  1       -2 0.19160717E-01 0.85444457E+02</pdfrwt>
<totfact> 0.87703899E+04</totfact>
</mgrwt>
</event>
<event>
 5    1  0.1239369E+001  0.9137650E+02  0.7546771E-02  0.1299552E+00
         -2   -1    0    0    0  501 -0.00000000000E+00  0.00000000000E+00  0.60286711095E+01  0.60286711095E+01  0.00000000000E+00 0.  1.
          2   -1    0    0  501    0  0.00000000000E+00 -0.00000000000E+00 -0.34624815315E+03  0.34624815315E+03  0.00000000000E+00 0. -1.
         23    2    1    2    0    0  0.00000000000E+00  0.00000000000E+00 -0.34021948204E+03  0.35227682426E+03  0.91376501084E+02 0.  0.
        -13    1    3    3    0    0  0.42149048584E+02  0.13569714295E+02 -0.12670862389E+03  0.13422278052E+03  0.00000000000E+00 0.  1.
         13    1    3    3    0    0 -0.42149048584E+02 -0.13569714295E+02 -0.21351085815E+03  0.21805404374E+03  0.00000000000E+00 0. -1.
<mgrwt>
<rscale>  0 0.91376501E+02</rscale>
<asrwt>0</asrwt>
<pdfrwt beam="2">  1        2 0.53268939E-01 0.91376501E+02</pdfrwt>
<pdfrwt beam="1">  1       -2 0.92748799E-03 0.91376501E+02</pdfrwt>
<totfact> 0.18834711E+05</totfact>
</mgrwt>
</event>
<event>
 5    1  0.1239369E+001  0.9109782E+02  0.7546771E-02  0.1300215E+00
         -3   -1    0    0    0  501 -0.00000000000E+00  0.00000000000E+00  0.57407366572E+02  0.57407366572E+02  0.00000000000E+00 0.  1.
          3   -1    0    0  501    0  0.00000000000E+00 -0.00000000000E+00 -0.36140019165E+02  0.36140019165E+02  0.00000000000E+00 0. -1.
         23    2    1    2    0    0  0.00000000000E+00  0.00000000000E+00  0.21267347407E+02  0.93547385736E+02  0.91097822764E+02 0.  0.
        -11    1    3    3    0    0 -0.65609394063E+01 -0.25269491551E+02  0.48961694514E+02  0.55487301780E+02  0.00000000000E+00 0.  1.
         11    1    3    3    0    0  0.65609394063E+01  0.25269491551E+02 -0.27694347106E+02  0.38060083957E+02  0.00000000000E+00 0. -1.
<mgrwt>
<rscale>  0 0.91097823E+02</rscale>
<asrwt>0</asrwt>
<pdfrwt beam="2">  1        3 0.55600030E-02 0.91097823E+02</pdfrwt>
<pdfrwt beam="1">  1       -3 0.88319025E-02 0.91097823E+02</pdfrwt>
<totfact> 0.35241340E+04</totfact>
</mgrwt>
</event>
<event>
 5    1  0.1239369E+001  0.9089397E+02  0.7546771E-02  0.1300701E+00
         -2   -1    0    0    0  501 -0.00000000000E+00  0.00000000000E+00  0.97576157721E+01  0.97576157721E+01  0.00000000000E+00 0.  1.
          2   -1    0    0  501    0  0.00000000000E+00 -0.00000000000E+00 -0.21167348276E+03  0.21167348276E+03  0.00000000000E+00 0. -1.
         23    2    1    2    0    0  0.00000000000E+00  0.00000000000E+00 -0.20191586699E+03  0.22143109854E+03  0.90893971504E+02 0.  0.
        -13    1    3    3    0    0 -0.19361694017E+02 -0.32945610302E+02 -0.16088616947E+03  0.16536217210E+03  0.00000000000E+00 0. -1.
         13    1    3    3    0    0  0.19361694017E+02  0.32945610302E+02 -0.41029697518E+02  0.56068926437E+02  0.00000000000E+00 0.  1.
<mgrwt>
<rscale>  0 0.90893972E+02</rscale>
<asrwt>0</asrwt>
<pdfrwt beam="2">  1        2 0.32565149E-01 0.90893972E+02</pdfrwt>
<pdfrwt beam="1">  1       -2 0.15011718E-02 0.90893972E+02</pdfrwt>
<totfact> 0.15922307E+05</totfact>
</mgrwt>
</event>
<event>
 5    1  0.1239369E+001  0.9275330E+02  0.7546771E-02  0.1296318E+00
          1   -1    0    0  501    0  0.00000000000E+00  0.00000000000E+00  0.19584818362E+03  0.19584818362E+03  0.00000000000E+00 0. -1.
         -1   -1    0    0    0  501 -0.00000000000E+00 -0.00000000000E+00 -0.10981944391E+02  0.10981944391E+02  0.00000000000E+00 0.  1.
         23    2    1    2    0    0  0.00000000000E+00  0.00000000000E+00  0.18486623923E+03  0.20683012801E+03  0.92753304233E+02 0.  0.
        -11    1    3    3    0    0 -0.31835670211E+02  0.20776114975E+02  0.15166766867E+03  0.15635932518E+03  0.00000000000E+00 0. -1.
         11    1    3    3    0    0  0.31835670211E+02 -0.20776114975E+02  0.33198570563E+02  0.50470802834E+02  0.00000000000E+00 0.  1.
<mgrwt>
<rscale>  0 0.92753304E+02</rscale>
<asrwt>0</asrwt>
<pdfrwt beam="1">  1        1 0.30130487E-01 0.92753304E+02</pdfrwt>
<pdfrwt beam="2">  1       -1 0.16895300E-02 0.92753304E+02</pdfrwt>
<totfact> 0.11261624E+05</totfact>
</mgrwt>
</event>
<event>
 5    1  0.1239369E+001  0.9092976E+02  0.7546771E-02  0.1300616E+00
         -1   -1    0    0    0  501 -0.00000000000E+00  0.00000000000E+00  0.47637058029E+01  0.47637058029E+01  0.00000000000E+00 0.  1.
          1   -1    0    0  501    0  0.00000000000E+00 -0.00000000000E+00 -0.43391749399E+03  0.43391749399E+03  0.00000000000E+00 0. -1.
         23    2    1    2    0    0  0.00000000000E+00  0.00000000000E+00 -0.42915378819E+03  0.43868119980E+03  0.90929759356E+02 0.  0.
        -11    1    3    3    0    0 -0.35531583367E+02  0.26438692028E+02 -0.16501049290E+03  0.17085069687E+03  0.00000000000E+00 0. -1.
         11    1    3    3    0    0  0.35531583367E+02 -0.26438692028E+02 -0.26414329529E+03  0.26783050293E+03  0.00000000000E+00 0.  1.
<mgrwt>
<rscale>  0 0.90929759E+02</rscale>
<asrwt>0</asrwt>
<pdfrwt beam="2">  1        1 0.66756511E-01 0.90929759E+02</pdfrwt>
<pdfrwt beam="1">  1       -1 0.73287810E-03 0.90929759E+02</pdfrwt>
<totfact> 0.13761463E+05</totfact>
</mgrwt>
</event>
<event>
 5    1  0.1239369E+001  0.8967717E+02  0.7546771E-02  0.1303635E+00
          1   -1    0    0  501    0  0.00000000000E+00  0.00000000000E+00  0.14024886871E+03  0.14024886871E+03  0.00000000000E+00 0. -1.
         -1   -1    0    0    0  501 -0.00000000000E+00 -0.00000000000E+00 -0.14335221419E+02  0.14335221419E+02  0.00000000000E+00 0.  1.
         23    2    1    2    0    0  0.00000000000E+00  0.00000000000E+00  0.12591364729E+03  0.15458409013E+03  0.89677167367E+02 0.  0.
        -13    1    3    3    0    0  0.23192984225E+02 -0.37429083101E+02  0.77547800396E+02  0.89176858687E+02  0.00000000000E+00 0. -1.
         13    1    3    3    0    0 -0.23192984225E+02  0.37429083101E+02  0.48365846894E+02  0.65407231441E+02  0.00000000000E+00 0.  1.
<mgrwt>
<rscale>  0 0.89677167E+02</rscale>
<asrwt>0</asrwt>
<pdfrwt beam="1">  1        1 0.21576748E-01 0.89677167E+02</pdfrwt>
<pdfrwt beam="2">  1       -1 0.22054188E-02 0.89677167E+02</pdfrwt>
<totfact> 0.11583317E+05</totfact>
</mgrwt>
</event>
<event>
 5    1  0.1239369E+001  0.8754740E+02  0.7546771E-02  0.1308902E+00
          2   -1    0    0  501    0  0.00000000000E+00  0.00000000000E+00  0.23992739149E+03  0.23992739149E+03  0.00000000000E+00 0.  1.
         -2   -1    0    0    0  501 -0.00000000000E+00 -0.00000000000E+00 -0.79863187157E+01  0.79863187157E+01  0.00000000000E+00 0. -1.
         23    2    1    2    0    0  0.00000000000E+00  0.00000000000E+00  0.23194107278E+03  0.24791371021E+03  0.87547395555E+02 0.  0.
        -13    1    3    3    0    0 -0.53044518609E+01  0.35104399891E+02  0.43459610050E+02  0.56117678203E+02  0.00000000000E+00 0. -1.
         13    1    3    3    0    0  0.53044518609E+01 -0.35104399891E+02  0.18848146273E+03  0.19179603201E+03  0.00000000000E+00 0.  1.
<mgrwt>
<rscale>  0 0.87547396E+02</rscale>
<asrwt>0</asrwt>
<pdfrwt beam="1">  1        2 0.36911901E-01 0.87547396E+02</pdfrwt>
<pdfrwt beam="2">  1       -2 0.12286646E-02 0.87547396E+02</pdfrwt>
<totfact> 0.18428738E+05</totfact>
</mgrwt>
</event>
<event>
 5    1  0.1239369E+001  0.8958682E+02  0.7546771E-02  0.1303855E+00
          1   -1    0    0  501    0  0.00000000000E+00  0.00000000000E+00  0.39387885080E+02  0.39387885080E+02  0.00000000000E+00 0. -1.
         -1   -1    0    0    0  501 -0.00000000000E+00 -0.00000000000E+00 -0.50940777433E+02  0.50940777433E+02  0.00000000000E+00 0.  1.
         23    2    1    2    0    0  0.00000000000E+00  0.00000000000E+00 -0.11552892353E+02  0.90328662512E+02  0.89586817945E+02 0.  0.
        -13    1    3    3    0    0  0.15567426053E+02 -0.35588440025E+02 -0.28267382998E+02  0.48040886325E+02  0.00000000000E+00 0.  1.
         13    1    3    3    0    0 -0.15567426053E+02  0.35588440025E+02  0.16714490645E+02  0.42287776187E+02  0.00000000000E+00 0. -1.
<mgrwt>
<rscale>  0 0.89586818E+02</rscale>
<asrwt>0</asrwt>
<pdfrwt beam="1">  1        1 0.60596746E-02 0.89586818E+02</pdfrwt>
<pdfrwt beam="2">  1       -1 0.78370427E-02 0.89586818E+02</pdfrwt>
<totfact> 0.95052511E+04</totfact>
</mgrwt>
</event>
<event>
 5    1  0.1239369E+001  0.9208060E+02  0.7546771E-02  0.1297890E+00
          2   -1    0    0  501    0  0.00000000000E+00  0.00000000000E+00  0.16900209992E+02  0.16900209992E+02  0.00000000000E+00 0.  1.
         -2   -1    0    0    0  501 -0.00000000000E+00 -0.00000000000E+00 -0.12542503612E+03  0.12542503612E+03  0.00000000000E+00 0. -1.
         23    2    1    2    0    0  0.00000000000E+00  0.00000000000E+00 -0.10852482613E+03  0.14232524611E+03  0.92080604879E+02 0.  0.
        -13    1    3    3    0    0  0.32540378223E+02  0.21118825977E+01 -0.10449927051E+03  0.10946887137E+03  0.00000000000E+00 0. -1.
         13    1    3    3    0    0 -0.32540378223E+02 -0.21118825977E+01 -0.40255556217E+01  0.32856374741E+02  0.00000000000E+00 0.  1.
<mgrwt>
<rscale>  0 0.92080605E+02</rscale>
<asrwt>0</asrwt>
<pdfrwt beam="1">  1        2 0.26000323E-02 0.92080605E+02</pdfrwt>
<pdfrwt beam="2">  1       -2 0.19296160E-01 0.92080605E+02</pdfrwt>
<totfact> 0.72510263E+04</totfact>
</mgrwt>
</event>
<event>
 5    1  0.1239369E+001  0.9217481E+02  0.7546771E-02  0.1297669E+00
          2   -1    0    0  501    0  0.00000000000E+00  0.00000000000E+00  0.28439035644E+02  0.28439035644E+02  0.00000000000E+00 0. -1.
         -2   -1    0    0    0  501 -0.00000000000E+00 -0.00000000000E+00 -0.74687800516E+02  0.74687800516E+02  0.00000000000E+00 0.  1.
         23    2    1    2    0    0  0.00000000000E+00  0.00000000000E+00 -0.46248764872E+02  0.10312683616E+03  0.92174812634E+02 0.  0.
        -13    1    3    3    0    0 -0.42743277206E+02  0.15768795437E+02 -0.15340241915E+02  0.48072504385E+02  0.00000000000E+00 0.  1.
         13    1    3    3    0    0  0.42743277206E+02 -0.15768795437E+02 -0.30908522957E+02  0.55054331775E+02  0.00000000000E+00 0. -1.
<mgrwt>
<rscale>  0 0.92174813E+02</rscale>
<asrwt>0</asrwt>
<pdfrwt beam="1">  1        2 0.43752363E-02 0.92174813E+02</pdfrwt>
<pdfrwt beam="2">  1       -2 0.11490431E-01 0.92174813E+02</pdfrwt>
<totfact> 0.84413833E+04</totfact>
</mgrwt>
</event>
<event>
 5    1  0.1239369E+001  0.8925667E+02  0.7546771E-02  0.1304662E+00
          3   -1    0    0  501    0  0.00000000000E+00  0.00000000000E+00  0.14917463434E+03  0.14917463434E+03  0.00000000000E+00 0. -1.
         -3   -1    0    0    0  501 -0.00000000000E+00 -0.00000000000E+00 -0.13351387512E+02  0.13351387512E+02  0.00000000000E+00 0.  1.
         23    2    1    2    0    0  0.00000000000E+00  0.00000000000E+00  0.13582324683E+03  0.16252602185E+03  0.89256671461E+02 0.  0.
        -11    1    3    3    0    0 -0.20837050943E+02 -0.36321395127E+02  0.96018302256E+02  0.10475180573E+03  0.00000000000E+00 0. -1.
         11    1    3    3    0    0  0.20837050943E+02  0.36321395127E+02  0.39804944569E+02  0.57774216118E+02  0.00000000000E+00 0.  1.
<mgrwt>
<rscale>  0 0.89256671E+02</rscale>
<asrwt>0</asrwt>
<pdfrwt beam="1">  1        3 0.22949943E-01 0.89256671E+02</pdfrwt>
<pdfrwt beam="2">  1       -3 0.20540597E-02 0.89256671E+02</pdfrwt>
<totfact> 0.32364283E+04</totfact>
</mgrwt>
</event>
<event>
 5    1  0.1239369E+001  0.9067744E+02  0.7546771E-02  0.1301219E+00
          2   -1    0    0  501    0  0.00000000000E+00  0.00000000000E+00  0.24582680328E+03  0.24582680328E+03  0.00000000000E+00 0. -1.
         -2   -1    0    0    0  501 -0.00000000000E+00 -0.00000000000E+00 -0.83619837004E+01  0.83619837004E+01  0.00000000000E+00 0.  1.
         23    2    1    2    0    0  0.00000000000E+00  0.00000000000E+00  0.23746481958E+03  0.25418878698E+03  0.90677444211E+02 0.  0.
        -11    1    3    3    0    0 -0.35877565407E+02  0.69930033544E+01  0.19392445388E+03  0.19733929058E+03  0.00000000000E+00 0. -1.
         11    1    3    3    0    0  0.35877565407E+02 -0.69930033544E+01  0.43540365705E+02  0.56849496402E+02  0.00000000000E+00 0.  1.
<mgrwt>
<rscale>  0 0.90677444E+02</rscale>
<asrwt>0</asrwt>
<pdfrwt beam="1">  1        2 0.37819503E-01 0.90677444E+02</pdfrwt>
<pdfrwt beam="2">  1       -2 0.12864592E-02 0.90677444E+02</pdfrwt>
<totfact> 0.16928962E+05</totfact>
</mgrwt>
</event>
<event>
 5    1  0.1239369E+001  0.8912831E+02  0.7546771E-02  0.1304976E+00
         -2   -1    0    0    0  501 -0.00000000000E+00  0.00000000000E+00  0.92121828689E+01  0.92121828689E+01  0.00000000000E+00 0.  1.
          2   -1    0    0  501    0  0.00000000000E+00 -0.00000000000E+00 -0.21558018852E+03  0.21558018852E+03  0.00000000000E+00 0. -1.
         23    2    1    2    0    0  0.00000000000E+00  0.00000000000E+00 -0.20636800565E+03  0.22479237139E+03  0.89128314683E+02 0.  0.
        -13    1    3    3    0    0  0.73893429677E+01  0.38905277606E+02 -0.15473291200E+03  0.15972005844E+03  0.00000000000E+00 0. -1.
         13    1    3    3    0    0 -0.73893429677E+01 -0.38905277606E+02 -0.51635093657E+02  0.65072312945E+02  0.00000000000E+00 0.  1.
<mgrwt>
<rscale>  0 0.89128315E+02</rscale>
<asrwt>0</asrwt>
<pdfrwt beam="2">  1        2 0.33166182E-01 0.89128315E+02</pdfrwt>
<pdfrwt beam="1">  1       -2 0.14172589E-02 0.89128315E+02</pdfrwt>
<totfact> 0.16894526E+05</totfact>
</mgrwt>
</event>
<event>
 5    1  0.1239369E+001  0.9226115E+02  0.7546771E-02  0.1297467E+00
          1   -1    0    0  501    0  0.00000000000E+00  0.00000000000E+00  0.56235355679E+02  0.56235355679E+02  0.00000000000E+00 0. -1.
         -1   -1    0    0    0  501 -0.00000000000E+00 -0.00000000000E+00 -0.37841494594E+02  0.37841494594E+02  0.00000000000E+00 0.  1.
         23    2    1    2    0    0  0.00000000000E+00  0.00000000000E+00  0.18393861085E+02  0.94076850273E+02  0.92261149091E+02 0.  0.
        -11    1    3    3    0    0  0.26610875481E+02  0.27434583421E+02  0.35536172328E+02  0.52188261181E+02  0.00000000000E+00 0.  1.
         11    1    3    3    0    0 -0.26610875481E+02 -0.27434583421E+02 -0.17142311243E+02  0.41888589092E+02  0.00000000000E+00 0. -1.
<mgrwt>
<rscale>  0 0.92261149E+02</rscale>
<asrwt>0</asrwt>
<pdfrwt beam="1">  1        1 0.86515932E-02 0.92261149E+02</pdfrwt>
<pdfrwt beam="2">  1       -1 0.58217684E-02 0.92261149E+02</pdfrwt>
<totfact> 0.92341190E+04</totfact>
</mgrwt>
</event>
<event>
 5    1  0.1239369E+001  0.9116661E+02  0.7546771E-02  0.1300051E+00
          4   -1    0    0  501    0  0.00000000000E+00  0.00000000000E+00  0.14587321115E+02  0.14587321115E+02  0.00000000000E+00 0. -1.
         -4   -1    0    0    0  501 -0.00000000000E+00 -0.00000000000E+00 -0.14244133453E+03  0.14244133453E+03  0.00000000000E+00 0.  1.
         23    2    1    2    0    0  0.00000000000E+00  0.00000000000E+00 -0.12785401341E+03  0.15702865564E+03  0.91166605437E+02 0.  0.
        -11    1    3    3    0    0 -0.17313967094E+02  0.30296044690E+02 -0.13408988228E+02  0.37382144744E+02  0.00000000000E+00 0. -1.
         11    1    3    3    0    0  0.17313967094E+02 -0.30296044690E+02 -0.11444502518E+03  0.11964651090E+03  0.00000000000E+00 0.  1.
<mgrwt>
<rscale>  0 0.91166605E+02</rscale>
<asrwt>0</asrwt>
<pdfrwt beam="1">  1        4 0.22442033E-02 0.91166605E+02</pdfrwt>
<pdfrwt beam="2">  1       -4 0.21914051E-01 0.91166605E+02</pdfrwt>
<totfact> 0.23332275E+04</totfact>
</mgrwt>
</event>
<event>
 5    1  0.1239369E+001  0.9215454E+02  0.7546771E-02  0.1297716E+00
          1   -1    0    0  501    0  0.00000000000E+00  0.00000000000E+00  0.13296455785E+02  0.13296455785E+02  0.00000000000E+00 0. -1.
         -1   -1    0    0    0  501 -0.00000000000E+00 -0.00000000000E+00 -0.15967522896E+03  0.15967522896E+03  0.00000000000E+00 0.  1.
         23    2    1    2    0    0  0.00000000000E+00  0.00000000000E+00 -0.14637877317E+03  0.17297168474E+03  0.92154535900E+02 0.  0.
        -11    1    3    3    0    0 -0.35552146420E+02  0.15150640111E+02 -0.26092008273E+02  0.46629281643E+02  0.00000000000E+00 0. -1.
         11    1    3    3    0    0  0.35552146420E+02 -0.15150640111E+02 -0.12028676490E+03  0.12634240310E+03  0.00000000000E+00 0.  1.
<mgrwt>
<rscale>  0 0.92154536E+02</rscale>
<asrwt>0</asrwt>
<pdfrwt beam="1">  1        1 0.20456084E-02 0.92154536E+02</pdfrwt>
<pdfrwt beam="2">  1       -1 0.24565422E-01 0.92154536E+02</pdfrwt>
<totfact> 0.71663835E+04</totfact>
</mgrwt>
</event>
<event>
 5    1  0.1239369E+001  0.9140733E+02  0.7546771E-02  0.1299479E+00
          2   -1    0    0  501    0  0.00000000000E+00  0.00000000000E+00  0.21555035394E+02  0.21555035394E+02  0.00000000000E+00 0. -1.
         -2   -1    0    0    0  501 -0.00000000000E+00 -0.00000000000E+00 -0.96906599997E+02  0.96906599997E+02  0.00000000000E+00 0.  1.
         23    2    1    2    0    0  0.00000000000E+00  0.00000000000E+00 -0.75351564603E+02  0.11846163539E+03  0.91407334342E+02 0.  0.
        -13    1    3    3    0    0  0.27404722445E+02 -0.42049856388E+01  0.94115537957E+01  0.29279311149E+02  0.00000000000E+00 0. -1.
         13    1    3    3    0    0 -0.27404722445E+02  0.42049856388E+01 -0.84763118398E+02  0.89182324242E+02  0.00000000000E+00 0.  1.
<mgrwt>
<rscale>  0 0.91407334E+02</rscale>
<asrwt>0</asrwt>
<pdfrwt beam="1">  1        2 0.33161594E-02 0.91407334E+02</pdfrwt>
<pdfrwt beam="2">  1       -2 0.14908707E-01 0.91407334E+02</pdfrwt>
<totfact> 0.80049247E+04</totfact>
</mgrwt>
</event>
<event>
 5    1  0.1239369E+001  0.1130364E+03  0.7546771E-02  0.1255048E+00
         -1   -1    0    0    0  501 -0.00000000000E+00  0.00000000000E+00  0.82537038080E+02  0.82537038080E+02  0.00000000000E+00 0.  1.
          1   -1    0    0  501    0  0.00000000000E+00 -0.00000000000E+00 -0.38701520443E+02  0.38701520443E+02  0.00000000000E+00 0. -1.
         23    2    1    2    0    0  0.00000000000E+00  0.00000000000E+00  0.43835517637E+02  0.12123855852E+03  0.11303643424E+03 0.  0.
        -13    1    3    3    0    0  0.20333917907E+02 -0.30283178835E+02  0.68221751610E+02  0.77361143545E+02  0.00000000000E+00 0.  1.
         13    1    3    3    0    0 -0.20333917907E+02  0.30283178835E+02 -0.24386233973E+02  0.43877414979E+02  0.00000000000E+00 0. -1.
<mgrwt>
<rscale>  0 0.11303643E+03</rscale>
<asrwt>0</asrwt>
<pdfrwt beam="2">  1        1 0.59540801E-02 0.11303643E+03</pdfrwt>
<pdfrwt beam="1">  1       -1 0.12698006E-01 0.11303643E+03</pdfrwt>
<totfact> 0.48498054E+04</totfact>
</mgrwt>
</event>
<event>
 5    1  0.1239369E+001  0.9357263E+02  0.7546771E-02  0.1294424E+00
         -1   -1    0    0    0  501 -0.00000000000E+00  0.00000000000E+00  0.30383016782E+02  0.30383016782E+02  0.00000000000E+00 0.  1.
          1   -1    0    0  501    0  0.00000000000E+00 -0.00000000000E+00 -0.72045482073E+02  0.72045482073E+02  0.00000000000E+00 0. -1.
         23    2    1    2    0    0  0.00000000000E+00  0.00000000000E+00 -0.41662465290E+02  0.10242849885E+03  0.93572626145E+02 0.  0.
        -11    1    3    3    0    0  0.28868161358E+02  0.31279151340E+02  0.42858734785E+00  0.42566885438E+02  0.00000000000E+00 0.  1.
         11    1    3    3    0    0 -0.28868161358E+02 -0.31279151340E+02 -0.42091052638E+02  0.59861613417E+02  0.00000000000E+00 0. -1.
<mgrwt>
<rscale>  0 0.93572626E+02</rscale>
<asrwt>0</asrwt>
<pdfrwt beam="2">  1        1 0.11083920E-01 0.93572626E+02</pdfrwt>
<pdfrwt beam="1">  1       -1 0.46743103E-02 0.93572626E+02</pdfrwt>
<totfact> 0.92254409E+04</totfact>
</mgrwt>
</event>
<event>
 5    1  0.1239369E+001  0.1081761E+03  0.7546771E-02  0.1263985E+00
          2   -1    0    0  501    0  0.00000000000E+00  0.00000000000E+00  0.22352128090E+03  0.22352128090E+03  0.00000000000E+00 0. -1.
         -2   -1    0    0    0  501 -0.00000000000E+00 -0.00000000000E+00 -0.13088307635E+02  0.13088307635E+02  0.00000000000E+00 0.  1.
         23    2    1    2    0    0  0.00000000000E+00  0.00000000000E+00  0.21043297326E+03  0.23660958853E+03  0.10817606551E+03 0.  0.
        -13    1    3    3    0    0  0.15920228041E+02 -0.51638087547E+02  0.11037840177E+03  0.12289563591E+03  0.00000000000E+00 0.  1.
         13    1    3    3    0    0 -0.15920228041E+02  0.51638087547E+02  0.10005457149E+03  0.11371395263E+03  0.00000000000E+00 0. -1.
<mgrwt>
<rscale>  0 0.10817607E+03</rscale>
<asrwt>0</asrwt>
<pdfrwt beam="1">  1        2 0.34387887E-01 0.10817607E+03</pdfrwt>
<pdfrwt beam="2">  1       -2 0.20135860E-02 0.10817607E+03</pdfrwt>
<totfact> 0.10129081E+05</totfact>
</mgrwt>
</event>
<event>
 5    1  0.1239369E+001  0.9141499E+02  0.7546771E-02  0.1299461E+00
         -3   -1    0    0    0  501 -0.00000000000E+00  0.00000000000E+00  0.32256302969E+02  0.32256302969E+02  0.00000000000E+00 0.  1.
          3   -1    0    0  501    0  0.00000000000E+00 -0.00000000000E+00 -0.64767964216E+02  0.64767964216E+02  0.00000000000E+00 0. -1.
         23    2    1    2    0    0  0.00000000000E+00  0.00000000000E+00 -0.32511661247E+02  0.97024267185E+02  0.91414989502E+02 0.  0.
        -11    1    3    3    0    0 -0.30571488449E+01 -0.27807610242E+02 -0.54620246392E+02  0.61367586415E+02  0.00000000000E+00 0. -1.
         11    1    3    3    0    0  0.30571488449E+01  0.27807610242E+02  0.22108585145E+02  0.35656680770E+02  0.00000000000E+00 0.  1.
<mgrwt>
<rscale>  0 0.91414990E+02</rscale>
<asrwt>0</asrwt>
<pdfrwt beam="2">  1        3 0.99643021E-02 0.91414990E+02</pdfrwt>
<pdfrwt beam="1">  1       -3 0.49625082E-02 0.91414990E+02</pdfrwt>
<totfact> 0.34645809E+04</totfact>
</mgrwt>
</event>
<event>
 5    1  0.1239369E+001  0.8905911E+02  0.7546771E-02  0.1305146E+00
         -1   -1    0    0    0  501 -0.00000000000E+00  0.00000000000E+00  0.10410236304E+03  0.10410236304E+03  0.00000000000E+00 0.  1.
          1   -1    0    0  501    0  0.00000000000E+00 -0.00000000000E+00 -0.19047417618E+02  0.19047417618E+02  0.00000000000E+00 0. -1.
         23    2    1    2    0    0  0.00000000000E+00  0.00000000000E+00  0.85054945425E+02  0.12314978066E+03  0.89059108101E+02 0.  0.
        -13    1    3    3    0    0  0.44192495662E+01  0.37876540394E+02  0.74323129690E+02  0.83534960860E+02  0.00000000000E+00 0.  1.
         13    1    3    3    0    0 -0.44192495662E+01 -0.37876540394E+02  0.10731815735E+02  0.39614819802E+02  0.00000000000E+00 0. -1.
<mgrwt>
<rscale>  0 0.89059108E+02</rscale>
<asrwt>0</asrwt>
<pdfrwt beam="2">  1        1 0.29303720E-02 0.89059108E+02</pdfrwt>
<pdfrwt beam="1">  1       -1 0.16015748E-01 0.89059108E+02</pdfrwt>
<totfact> 0.85795122E+04</totfact>
</mgrwt>
</event>
<event>
 5    1  0.1239369E+001  0.9009734E+02  0.7546771E-02  0.1302616E+00
          2   -1    0    0  501    0  0.00000000000E+00  0.00000000000E+00  0.83252701733E+01  0.83252701733E+01  0.00000000000E+00 0. -1.
         -2   -1    0    0    0  501 -0.00000000000E+00 -0.00000000000E+00 -0.24376179419E+03  0.24376179419E+03  0.00000000000E+00 0.  1.
         23    2    1    2    0    0  0.00000000000E+00  0.00000000000E+00 -0.23543652402E+03  0.25208706436E+03  0.90097342792E+02 0.  0.
        -11    1    3    3    0    0  0.11248727292E+02  0.43212553899E+02 -0.13439458154E+03  0.14161836826E+03  0.00000000000E+00 0.  1.
         11    1    3    3    0    0 -0.11248727292E+02 -0.43212553899E+02 -0.10104194247E+03  0.11046869610E+03  0.00000000000E+00 0. -1.
<mgrwt>
<rscale>  0 0.90097343E+02</rscale>
<asrwt>0</asrwt>
<pdfrwt beam="1">  1        2 0.12808111E-02 0.90097343E+02</pdfrwt>
<pdfrwt beam="2">  1       -2 0.37501805E-01 0.90097343E+02</pdfrwt>
<totfact> 0.58647350E+04</totfact>
</mgrwt>
</event>
<event>
 5    1  0.1239369E+001  0.8924513E+02  0.7546771E-02  0.1304690E+00
         -1   -1    0    0    0  501 -0.00000000000E+00  0.00000000000E+00  0.10518266784E+02  0.10518266784E+02  0.00000000000E+00 0.  1.
          1   -1    0    0  501    0  0.00000000000E+00 -0.00000000000E+00 -0.18930621776E+03  0.18930621776E+03  0.00000000000E+00 0. -1.
         23    2    1    2    0    0  0.00000000000E+00  0.00000000000E+00 -0.17878795097E+03  0.19982448454E+03  0.89245129890E+02 0.  0.
        -11    1    3    3    0    0 -0.41406027754E+02 -0.16083741426E+02 -0.98900703741E+02  0.10841814919E+03  0.00000000000E+00 0.  1.
         11    1    3    3    0    0  0.41406027754E+02  0.16083741426E+02 -0.79887247234E+02  0.91406335356E+02  0.00000000000E+00 0. -1.
<mgrwt>
<rscale>  0 0.89245130E+02</rscale>
<asrwt>0</asrwt>
<pdfrwt beam="2">  1        1 0.29124033E-01 0.89245130E+02</pdfrwt>
<pdfrwt beam="1">  1       -1 0.16181949E-02 0.89245130E+02</pdfrwt>
<totfact> 0.12407373E+05</totfact>
</mgrwt>
</event>
<event>
 5    1  0.1239369E+001  0.9377722E+02  0.7546771E-02  0.1293954E+00
         -2   -1    0    0    0  501 -0.00000000000E+00  0.00000000000E+00  0.48819007155E+01  0.48819007155E+01  0.00000000000E+00 0.  1.
          2   -1    0    0  501    0  0.00000000000E+00 -0.00000000000E+00 -0.45034549004E+03  0.45034549004E+03  0.00000000000E+00 0. -1.
         23    2    1    2    0    0  0.00000000000E+00  0.00000000000E+00 -0.44546358933E+03  0.45522739076E+03  0.93777224742E+02 0.  0.
        -13    1    3    3    0    0  0.27290018066E+02  0.37960767034E+02 -0.20537992364E+03  0.21063399050E+03  0.00000000000E+00 0.  1.
         13    1    3    3    0    0 -0.27290018066E+02 -0.37960767034E+02 -0.24008366568E+03  0.24459340025E+03  0.00000000000E+00 0. -1.
<mgrwt>
<rscale>  0 0.93777225E+02</rscale>
<asrwt>0</asrwt>
<pdfrwt beam="2">  1        2 0.69283903E-01 0.93777225E+02</pdfrwt>
<pdfrwt beam="1">  1       -2 0.75106185E-03 0.93777225E+02</pdfrwt>
<totfact> 0.19312158E+05</totfact>
</mgrwt>
</event>
<event>
 5    1  0.1239369E+001  0.9130984E+02  0.7546771E-02  0.1299710E+00
         -2   -1    0    0    0  501 -0.00000000000E+00  0.00000000000E+00  0.65381610539E+02  0.65381610539E+02  0.00000000000E+00 0.  1.
          2   -1    0    0  501    0  0.00000000000E+00 -0.00000000000E+00 -0.31880090624E+02  0.31880090624E+02  0.00000000000E+00 0. -1.
         23    2    1    2    0    0  0.00000000000E+00  0.00000000000E+00  0.33501519916E+02  0.97261701163E+02  0.91309838881E+02 0.  0.
        -11    1    3    3    0    0 -0.37055679073E+02  0.20110996446E+02  0.35408078659E+02  0.55057311630E+02  0.00000000000E+00 0.  1.
         11    1    3    3    0    0  0.37055679073E+02 -0.20110996446E+02 -0.19065587432E+01  0.42204389533E+02  0.00000000000E+00 0. -1.
<mgrwt>
<rscale>  0 0.91309839E+02</rscale>
<asrwt>0</asrwt>
<pdfrwt beam="2">  1        2 0.49046293E-02 0.91309839E+02</pdfrwt>
<pdfrwt beam="1">  1       -2 0.10058709E-01 0.91309839E+02</pdfrwt>
<totfact> 0.89519390E+04</totfact>
</mgrwt>
</event>
<event>
 5    1  0.1239369E+001  0.8770906E+02  0.7546771E-02  0.1308496E+00
         -1   -1    0    0    0  501 -0.00000000000E+00  0.00000000000E+00  0.31258265208E+02  0.31258265208E+02  0.00000000000E+00 0.  1.
          1   -1    0    0  501    0  0.00000000000E+00 -0.00000000000E+00 -0.61526767132E+02  0.61526767132E+02  0.00000000000E+00 0. -1.
         23    2    1    2    0    0  0.00000000000E+00  0.00000000000E+00 -0.30268501924E+02  0.92785032341E+02  0.87709064627E+02 0.  0.
        -13    1    3    3    0    0 -0.36019506735E+02  0.24247829752E+02 -0.21643211734E+02  0.48515881186E+02  0.00000000000E+00 0.  1.
         13    1    3    3    0    0  0.36019506735E+02 -0.24247829752E+02 -0.86252901897E+01  0.44269151155E+02  0.00000000000E+00 0. -1.
<mgrwt>
<rscale>  0 0.87709065E+02</rscale>
<asrwt>0</asrwt>
<pdfrwt beam="2">  1        1 0.94656563E-02 0.87709065E+02</pdfrwt>
<pdfrwt beam="1">  1       -1 0.48089639E-02 0.87709065E+02</pdfrwt>
<totfact> 0.10766974E+05</totfact>
</mgrwt>
</event>
<event>
 5    1  0.1239369E+001  0.9118519E+02  0.7546771E-02  0.1300007E+00
          1   -1    0    0  501    0  0.00000000000E+00  0.00000000000E+00  0.89491699905E+02  0.89491699905E+02  0.00000000000E+00 0. -1.
         -1   -1    0    0    0  501 -0.00000000000E+00 -0.00000000000E+00 -0.23227681480E+02  0.23227681480E+02  0.00000000000E+00 0.  1.
         23    2    1    2    0    0  0.00000000000E+00  0.00000000000E+00  0.66264018425E+02  0.11271938138E+03  0.91185189597E+02 0.  0.
        -11    1    3    3    0    0 -0.22083067136E+02  0.20482763652E+02  0.75441869331E+02  0.81232266429E+02  0.00000000000E+00 0. -1.
         11    1    3    3    0    0  0.22083067136E+02 -0.20482763652E+02 -0.91778509059E+01  0.31487114956E+02  0.00000000000E+00 0.  1.
<mgrwt>
<rscale>  0 0.91185190E+02</rscale>
<asrwt>0</asrwt>
<pdfrwt beam="1">  1        1 0.13767954E-01 0.91185190E+02</pdfrwt>
<pdfrwt beam="2">  1       -1 0.35734895E-02 0.91185190E+02</pdfrwt>
<totfact> 0.10254048E+05</totfact>
</mgrwt>
</event>
<event>
 5    1  0.1239369E+001  0.9020308E+02  0.7546771E-02  0.1302361E+00
          1   -1    0    0  501    0  0.00000000000E+00  0.00000000000E+00  0.37924370495E+02  0.37924370495E+02  0.00000000000E+00 0. -1.
         -1   -1    0    0    0  501 -0.00000000000E+00 -0.00000000000E+00 -0.53636979579E+02  0.53636979579E+02  0.00000000000E+00 0.  1.
         23    2    1    2    0    0  0.00000000000E+00  0.00000000000E+00 -0.15712609084E+02  0.91561350075E+02  0.90203075021E+02 0.  0.
        -11    1    3    3    0    0 -0.13563300419E+02 -0.26541664053E+02  0.26501955342E+02  0.39884541942E+02  0.00000000000E+00 0. -1.
         11    1    3    3    0    0  0.13563300419E+02  0.26541664053E+02 -0.42214564427E+02  0.51676808132E+02  0.00000000000E+00 0.  1.
<mgrwt>
<rscale>  0 0.90203075E+02</rscale>
<asrwt>0</asrwt>
<pdfrwt beam="1">  1        1 0.58345186E-02 0.90203075E+02</pdfrwt>
<pdfrwt beam="2">  1       -1 0.82518429E-02 0.90203075E+02</pdfrwt>
<totfact> 0.92702265E+04</totfact>
</mgrwt>
</event>
<event>
 5    1  0.1239369E+001  0.9317167E+02  0.7546771E-02  0.1295348E+00
          2   -1    0    0  501    0  0.00000000000E+00  0.00000000000E+00  0.89523653087E+01  0.89523653087E+01  0.00000000000E+00 0. -1.
         -2   -1    0    0    0  501 -0.00000000000E+00 -0.00000000000E+00 -0.24242085654E+03  0.24242085654E+03  0.00000000000E+00 0.  1.
         23    2    1    2    0    0  0.00000000000E+00  0.00000000000E+00 -0.23346849123E+03  0.25137322184E+03  0.93171670934E+02 0.  0.
        -13    1    3    3    0    0 -0.28810273229E+02 -0.32891533709E+02 -0.73368805480E+02  0.85409990346E+02  0.00000000000E+00 0. -1.
         13    1    3    3    0    0  0.28810273229E+02  0.32891533709E+02 -0.16009968575E+03  0.16596323150E+03  0.00000000000E+00 0.  1.
<mgrwt>
<rscale>  0 0.93171671E+02</rscale>
<asrwt>0</asrwt>
<pdfrwt beam="1">  1        2 0.13772874E-02 0.93171671E+02</pdfrwt>
<pdfrwt beam="2">  1       -2 0.37295505E-01 0.93171671E+02</pdfrwt>
<totfact> 0.53954584E+04</totfact>
</mgrwt>
</event>
<event>
 5    1  0.1239369E+001  0.8969868E+02  0.7546771E-02  0.1303583E+00
         -4   -1    0    0    0  501 -0.00000000000E+00  0.00000000000E+00  0.31993668920E+03  0.31993668920E+03  0.00000000000E+00 0.  1.
          4   -1    0    0  501    0  0.00000000000E+00 -0.00000000000E+00 -0.62870667678E+01  0.62870667678E+01  0.00000000000E+00 0. -1.
         23    2    1    2    0    0  0.00000000000E+00  0.00000000000E+00  0.31364962243E+03  0.32622375597E+03  0.89698680625E+02 0.  0.
        -11    1    3    3    0    0  0.42040079196E+02 -0.60687481743E+01  0.10446562421E+03  0.11277084998E+03  0.00000000000E+00 0. -1.
         11    1    3    3    0    0 -0.42040079196E+02  0.60687481743E+01  0.20918399822E+03  0.21345290598E+03  0.00000000000E+00 0.  1.
<mgrwt>
<rscale>  0 0.89698681E+02</rscale>
<asrwt>0</asrwt>
<pdfrwt beam="2">  1        4 0.96724129E-03 0.89698681E+02</pdfrwt>
<pdfrwt beam="1">  1       -4 0.49221017E-01 0.89698681E+02</pdfrwt>
<totfact> 0.17803106E+04</totfact>
</mgrwt>
</event>
<event>
 5    1  0.1239369E+001  0.9289878E+02  0.7546771E-02  0.1295980E+00
         -1   -1    0    0    0  501 -0.00000000000E+00  0.00000000000E+00  0.14443092863E+02  0.14443092863E+02  0.00000000000E+00 0.  1.
          1   -1    0    0  501    0  0.00000000000E+00 -0.00000000000E+00 -0.14938254226E+03  0.14938254226E+03  0.00000000000E+00 0. -1.
         23    2    1    2    0    0  0.00000000000E+00  0.00000000000E+00 -0.13493944940E+03  0.16382563513E+03  0.92898782125E+02 0.  0.
        -13    1    3    3    0    0 -0.39589303494E+02  0.22145680391E+02 -0.49852354998E+02  0.67401790851E+02  0.00000000000E+00 0.  1.
         13    1    3    3    0    0  0.39589303494E+02 -0.22145680391E+02 -0.85087094401E+02  0.96423844274E+02  0.00000000000E+00 0. -1.
<mgrwt>
<rscale>  0 0.92898782E+02</rscale>
<asrwt>0</asrwt>
<pdfrwt beam="2">  1        1 0.22981928E-01 0.92898782E+02</pdfrwt>
<pdfrwt beam="1">  1       -1 0.22220144E-02 0.92898782E+02</pdfrwt>
<totfact> 0.10652167E+05</totfact>
</mgrwt>
</event>
<event>
 5    1  0.1239369E+001  0.9084301E+02  0.7546771E-02  0.1300823E+00
          1   -1    0    0  501    0  0.00000000000E+00  0.00000000000E+00  0.42361145361E+02  0.42361145361E+02  0.00000000000E+00 0. -1.
         -1   -1    0    0    0  501 -0.00000000000E+00 -0.00000000000E+00 -0.48702960461E+02  0.48702960461E+02  0.00000000000E+00 0.  1.
         23    2    1    2    0    0  0.00000000000E+00  0.00000000000E+00 -0.63418151007E+01  0.91064105822E+02  0.90843011566E+02 0.  0.
        -11    1    3    3    0    0 -0.13991875557E+02  0.33369879492E+02  0.24351181384E+02  0.43615381159E+02  0.00000000000E+00 0. -1.
         11    1    3    3    0    0  0.13991875557E+02 -0.33369879492E+02 -0.30692996485E+02  0.47448724663E+02  0.00000000000E+00 0.  1.
<mgrwt>
<rscale>  0 0.90843012E+02</rscale>
<asrwt>0</asrwt>
<pdfrwt beam="1">  1        1 0.65170993E-02 0.90843012E+02</pdfrwt>
<pdfrwt beam="2">  1       -1 0.74927632E-02 0.90843012E+02</pdfrwt>
<totfact> 0.92404264E+04</totfact>
</mgrwt>
</event>
<event>
 5    1  0.1239369E+001  0.9082595E+02  0.7546771E-02  0.1300864E+00
          2   -1    0    0  501    0  0.00000000000E+00  0.00000000000E+00  0.86955795229E+02  0.86955795229E+02  0.00000000000E+00 0. -1.
         -2   -1    0    0    0  501 -0.00000000000E+00 -0.00000000000E+00 -0.23717087661E+02  0.23717087661E+02  0.00000000000E+00 0.  1.
         23    2    1    2    0    0  0.00000000000E+00  0.00000000000E+00  0.63238707568E+02  0.11067288289E+03  0.90825948233E+02 0.  0.
        -13    1    3    3    0    0 -0.19514343893E+02  0.35096182056E+02  0.57768528048E+01  0.40569984482E+02  0.00000000000E+00 0.  1.
         13    1    3    3    0    0  0.19514343893E+02 -0.35096182056E+02  0.57461854763E+02  0.70102898409E+02  0.00000000000E+00 0. -1.
<mgrwt>
<rscale>  0 0.90825948E+02</rscale>
<asrwt>0</asrwt>
<pdfrwt beam="1">  1        2 0.13377815E-01 0.90825948E+02</pdfrwt>
<pdfrwt beam="2">  1       -2 0.36487828E-02 0.90825948E+02</pdfrwt>
<totfact> 0.11892312E+05</totfact>
</mgrwt>
</event>
<event>
 5    1  0.1239369E+001  0.9077735E+02  0.7546771E-02  0.1300980E+00
         -2   -1    0    0    0  501 -0.00000000000E+00  0.00000000000E+00  0.29286674912E+02  0.29286674912E+02  0.00000000000E+00 0.  1.
          2   -1    0    0  501    0  0.00000000000E+00 -0.00000000000E+00 -0.70343652638E+02  0.70343652638E+02  0.00000000000E+00 0. -1.
         23    2    1    2    0    0  0.00000000000E+00  0.00000000000E+00 -0.41056977726E+02  0.99630327550E+02  0.90777347106E+02 0.  0.
        -13    1    3    3    0    0 -0.42801755146E+02  0.11925404248E+02 -0.10354838320E+02  0.45622671850E+02  0.00000000000E+00 0.  1.
         13    1    3    3    0    0  0.42801755146E+02 -0.11925404248E+02 -0.30702139405E+02  0.54007655700E+02  0.00000000000E+00 0. -1.
<mgrwt>
<rscale>  0 0.90777347E+02</rscale>
<asrwt>0</asrwt>
<pdfrwt beam="2">  1        2 0.10822100E-01 0.90777347E+02</pdfrwt>
<pdfrwt beam="1">  1       -2 0.45056423E-02 0.90777347E+02</pdfrwt>
<totfact> 0.11213774E+05</totfact>
</mgrwt>
</event>
<event>
 5    1  0.1239369E+001  0.9177663E+02  0.7546771E-02  0.1298605E+00
          2   -1    0    0  501    0  0.00000000000E+00  0.00000000000E+00  0.19867675866E+03  0.19867675866E+03  0.00000000000E+00 0. -1.
         -2   -1    0    0    0  501 -0.00000000000E+00 -0.00000000000E+00 -0.10598810628E+02  0.10598810628E+02  0.00000000000E+00 0.  1.
         23    2    1    2    0    0  0.00000000000E+00  0.00000000000E+00  0.18807794803E+03  0.20927556928E+03  0.91776627550E+02 0.  0.
        -11    1    3    3    0    0  0.43675609180E+02  0.90905962742E+01  0.69528495054E+02  0.82609983672E+02  0.00000000000E+00 0.  1.
         11    1    3    3    0    0 -0.43675609180E+02 -0.90905962742E+01  0.11854945297E+03  0.12666558561E+03  0.00000000000E+00 0. -1.
<mgrwt>
<rscale>  0 0.91776628E+02</rscale>
<asrwt>0</asrwt>
<pdfrwt beam="1">  1        2 0.30565652E-01 0.91776628E+02</pdfrwt>
<pdfrwt beam="2">  1       -2 0.16305864E-02 0.91776628E+02</pdfrwt>
<totfact> 0.15160522E+05</totfact>
</mgrwt>
</event>
<event>
 5    1  0.1239369E+001  0.9124861E+02  0.7546771E-02  0.1299856E+00
         -1   -1    0    0    0  501 -0.00000000000E+00  0.00000000000E+00  0.17098865668E+02  0.17098865668E+02  0.00000000000E+00 0.  1.
          1   -1    0    0  501    0  0.00000000000E+00 -0.00000000000E+00 -0.12173773244E+03  0.12173773244E+03  0.00000000000E+00 0. -1.
         23    2    1    2    0    0  0.00000000000E+00  0.00000000000E+00 -0.10463886677E+03  0.13883659811E+03  0.91248608402E+02 0.  0.
        -13    1    3    3    0    0  0.23722337919E+02  0.48410675549E+01  0.65182036971E+01  0.25073337050E+02  0.00000000000E+00 0.  1.
         13    1    3    3    0    0 -0.23722337919E+02 -0.48410675549E+01 -0.11115707047E+03  0.11376326106E+03  0.00000000000E+00 0. -1.
<mgrwt>
<rscale>  0 0.91248608E+02</rscale>
<asrwt>0</asrwt>
<pdfrwt beam="2">  1        1 0.18728882E-01 0.91248608E+02</pdfrwt>
<pdfrwt beam="1">  1       -1 0.26305948E-02 0.91248608E+02</pdfrwt>
<totfact> 0.10777834E+05</totfact>
</mgrwt>
</event>
<event>
 5    1  0.1239369E+001  0.9163532E+02  0.7546771E-02  0.1298939E+00
          1   -1    0    0  501    0  0.00000000000E+00  0.00000000000E+00  0.18971740146E+03  0.18971740146E+03  0.00000000000E+00 0. -1.
         -1   -1    0    0    0  501 -0.00000000000E+00 -0.00000000000E+00 -0.11065185111E+02  0.11065185111E+02  0.00000000000E+00 0.  1.
         23    2    1    2    0    0  0.00000000000E+00  0.00000000000E+00  0.17865221635E+03  0.20078258657E+03  0.91635324322E+02 0.  0.
        -11    1    3    3    0    0 -0.32359365851E+02  0.19778845746E+02  0.32996098319E+02  0.50270008968E+02  0.00000000000E+00 0.  1.
         11    1    3    3    0    0  0.32359365851E+02 -0.19778845746E+02  0.14565611803E+03  0.15051257760E+03  0.00000000000E+00 0. -1.
<mgrwt>
<rscale>  0 0.91635324E+02</rscale>
<asrwt>0</asrwt>
<pdfrwt beam="1">  1        1 0.29187290E-01 0.91635324E+02</pdfrwt>
<pdfrwt beam="2">  1       -1 0.17023363E-02 0.91635324E+02</pdfrwt>
<totfact> 0.11563437E+05</totfact>
</mgrwt>
</event>
<event>
 5    1  0.1239369E+001  0.8040289E+02  0.7546771E-02  0.1327912E+00
          3   -1    0    0  501    0  0.00000000000E+00  0.00000000000E+00  0.27086355704E+02  0.27086355704E+02  0.00000000000E+00 0. -1.
         -3   -1    0    0    0  501 -0.00000000000E+00 -0.00000000000E+00 -0.59666793734E+02  0.59666793734E+02  0.00000000000E+00 0.  1.
         23    2    1    2    0    0  0.00000000000E+00  0.00000000000E+00 -0.32580438029E+02  0.86753149438E+02  0.80402885491E+02 0.  0.
        -11    1    3    3    0    0  0.16967292733E+02  0.20351868419E+02  0.16331209074E+02  0.31125487316E+02  0.00000000000E+00 0. -1.
         11    1    3    3    0    0 -0.16967292733E+02 -0.20351868419E+02 -0.48911647103E+02  0.55627662122E+02  0.00000000000E+00 0.  1.
<mgrwt>
<rscale>  0 0.80402885E+02</rscale>
<asrwt>0</asrwt>
<pdfrwt beam="1">  1        3 0.41671316E-02 0.80402885E+02</pdfrwt>
<pdfrwt beam="2">  1       -3 0.91795068E-02 0.80402885E+02</pdfrwt>
<totfact> 0.50127397E+04</totfact>
</mgrwt>
</event>
<event>
 5    1  0.1239369E+001  0.9302275E+02  0.7546771E-02  0.1295692E+00
         -2   -1    0    0    0  501 -0.00000000000E+00  0.00000000000E+00  0.19822790422E+02  0.19822790422E+02  0.00000000000E+00 0.  1.
          2   -1    0    0  501    0  0.00000000000E+00 -0.00000000000E+00 -0.10913235518E+03  0.10913235518E+03  0.00000000000E+00 0. -1.
         23    2    1    2    0    0  0.00000000000E+00  0.00000000000E+00 -0.89309564754E+02  0.12895514560E+03  0.93022745711E+02 0.  0.
        -11    1    3    3    0    0  0.77839735375E+01 -0.39455276350E+02 -0.77047347293E+02  0.86911465301E+02  0.00000000000E+00 0. -1.
         11    1    3    3    0    0 -0.77839735375E+01  0.39455276350E+02 -0.12262217461E+02  0.42043680297E+02  0.00000000000E+00 0.  1.
<mgrwt>
<rscale>  0 0.93022746E+02</rscale>
<asrwt>0</asrwt>
<pdfrwt beam="2">  1        2 0.16789593E-01 0.93022746E+02</pdfrwt>
<pdfrwt beam="1">  1       -2 0.30496601E-02 0.93022746E+02</pdfrwt>
<totfact> 0.11926729E+05</totfact>
</mgrwt>
</event>
<event>
 5    1  0.1239369E+001  0.9098803E+02  0.7546771E-02  0.1300477E+00
         -2   -1    0    0    0  501 -0.00000000000E+00  0.00000000000E+00  0.17617349444E+02  0.17617349444E+02  0.00000000000E+00 0. -1.
          2   -1    0    0  501    0  0.00000000000E+00 -0.00000000000E+00 -0.11748108758E+03  0.11748108758E+03  0.00000000000E+00 0.  1.
         23    2    1    2    0    0  0.00000000000E+00  0.00000000000E+00 -0.99863738138E+02  0.13509843703E+03  0.90988029388E+02 0.  0.
        -13    1    3    3    0    0  0.19388293032E+02 -0.38385028194E+02 -0.71974381698E+02  0.83842876364E+02  0.00000000000E+00 0. -1.
         13    1    3    3    0    0 -0.19388293032E+02  0.38385028194E+02 -0.27889356440E+02  0.51255560662E+02  0.00000000000E+00 0.  1.
<mgrwt>
<rscale>  0 0.90988029E+02</rscale>
<asrwt>0</asrwt>
<pdfrwt beam="2">  1        2 0.18074013E-01 0.90988029E+02</pdfrwt>
<pdfrwt beam="1">  1       -2 0.27103615E-02 0.90988029E+02</pdfrwt>
<totfact> 0.12972141E+05</totfact>
</mgrwt>
</event>
<event>
 5    1  0.1239369E+001  0.9141266E+02  0.7546771E-02  0.1299466E+00
          2   -1    0    0  501    0  0.00000000000E+00  0.00000000000E+00  0.38215307402E+02  0.38215307402E+02  0.00000000000E+00 0. -1.
         -2   -1    0    0    0  501 -0.00000000000E+00 -0.00000000000E+00 -0.54665757803E+02  0.54665757803E+02  0.00000000000E+00 0.  1.
         23    2    1    2    0    0  0.00000000000E+00  0.00000000000E+00 -0.16450450402E+02  0.92881065205E+02  0.91412662992E+02 0.  0.
        -11    1    3    3    0    0  0.18141060965E+02 -0.17806734198E+02  0.30370354496E+02  0.39604751078E+02  0.00000000000E+00 0. -1.
         11    1    3    3    0    0 -0.18141060965E+02  0.17806734198E+02 -0.46820804897E+02  0.53276314127E+02  0.00000000000E+00 0.  1.
<mgrwt>
<rscale>  0 0.91412663E+02</rscale>
<asrwt>0</asrwt>
<pdfrwt beam="1">  1        2 0.58792780E-02 0.91412663E+02</pdfrwt>
<pdfrwt beam="2">  1       -2 0.84101166E-02 0.91412663E+02</pdfrwt>
<totfact> 0.93561419E+04</totfact>
</mgrwt>
</event>
<event>
 5    1  0.1239369E+001  0.8409000E+02  0.7546771E-02  0.1317830E+00
         -1   -1    0    0    0  501 -0.00000000000E+00  0.00000000000E+00  0.12948739028E+02  0.12948739028E+02  0.00000000000E+00 0.  1.
          1   -1    0    0  501    0  0.00000000000E+00 -0.00000000000E+00 -0.13652156718E+03  0.13652156718E+03  0.00000000000E+00 0. -1.
         23    2    1    2    0    0  0.00000000000E+00  0.00000000000E+00 -0.12357282815E+03  0.14947030621E+03  0.84090002855E+02 0.  0.
        -13    1    3    3    0    0 -0.38044736843E+02  0.13676722380E+02 -0.82310804902E+02  0.91703453262E+02  0.00000000000E+00 0. -1.
         13    1    3    3    0    0  0.38044736843E+02 -0.13676722380E+02 -0.41262023250E+02  0.57766852945E+02  0.00000000000E+00 0.  1.
<mgrwt>
<rscale>  0 0.84090003E+02</rscale>
<asrwt>0</asrwt>
<pdfrwt beam="2">  1        1 0.21003319E-01 0.84090003E+02</pdfrwt>
<pdfrwt beam="1">  1       -1 0.19921136E-02 0.84090003E+02</pdfrwt>
<totfact> 0.13701847E+05</totfact>
</mgrwt>
</event>
<event>
 5    1  0.1239369E+001  0.9136162E+02  0.7546771E-02  0.1299587E+00
         -1   -1    0    0    0  501 -0.00000000000E+00  0.00000000000E+00  0.14103131937E+02  0.14103131937E+02  0.00000000000E+00 0. -1.
          1   -1    0    0  501    0  0.00000000000E+00 -0.00000000000E+00 -0.14796263898E+03  0.14796263898E+03  0.00000000000E+00 0.  1.
         23    2    1    2    0    0  0.00000000000E+00  0.00000000000E+00 -0.13385950705E+03  0.16206577092E+03  0.91361624751E+02 0.  0.
        -13    1    3    3    0    0 -0.26866958081E+02 -0.15959391594E+02 -0.78241994775E+01  0.32214184982E+02  0.00000000000E+00 0. -1.
         13    1    3    3    0    0  0.26866958081E+02  0.15959391594E+02 -0.12603530757E+03  0.12985158594E+03  0.00000000000E+00 0.  1.
<mgrwt>
<rscale>  0 0.91361625E+02</rscale>
<asrwt>0</asrwt>
<pdfrwt beam="2">  1        1 0.22763483E-01 0.91361625E+02</pdfrwt>
<pdfrwt beam="1">  1       -1 0.21697126E-02 0.91361625E+02</pdfrwt>
<totfact> 0.11124149E+05</totfact>
</mgrwt>
</event>
<event>
 5    1  0.1239369E+001  0.9070090E+02  0.7546771E-02  0.1301163E+00
         -2   -1    0    0    0  501 -0.00000000000E+00  0.00000000000E+00  0.18809461172E+02  0.18809461172E+02  0.00000000000E+00 0.  1.
          2   -1    0    0  501    0  0.00000000000E+00 -0.00000000000E+00 -0.10934195989E+03  0.10934195989E+03  0.00000000000E+00 0. -1.
         23    2    1    2    0    0  0.00000000000E+00  0.00000000000E+00 -0.90532498721E+02  0.12815142107E+03  0.90700900747E+02 0.  0.
        -13    1    3    3    0    0 -0.18346342142E+02 -0.28267192812E+02 -0.23865944122E+01  0.33783402617E+02  0.00000000000E+00 0.  1.
         13    1    3    3    0    0  0.18346342142E+02  0.28267192812E+02 -0.88145904309E+02  0.94368018449E+02  0.00000000000E+00 0. -1.
<mgrwt>
<rscale>  0 0.90700901E+02</rscale>
<asrwt>0</asrwt>
<pdfrwt beam="2">  1        2 0.16821840E-01 0.90700901E+02</pdfrwt>
<pdfrwt beam="1">  1       -2 0.28937632E-02 0.90700901E+02</pdfrwt>
<totfact> 0.12792360E+05</totfact>
</mgrwt>
</event>
<event>
 5    1  0.1239369E+001  0.9025303E+02  0.7546771E-02  0.1302240E+00
          1   -1    0    0  501    0  0.00000000000E+00  0.00000000000E+00  0.18381207143E+02  0.18381207143E+02  0.00000000000E+00 0. -1.
         -1   -1    0    0    0  501 -0.00000000000E+00 -0.00000000000E+00 -0.11078720549E+03  0.11078720549E+03  0.00000000000E+00 0.  1.
         23    2    1    2    0    0  0.00000000000E+00  0.00000000000E+00 -0.92405998344E+02  0.12916841263E+03  0.90253034805E+02 0.  0.
        -13    1    3    3    0    0  0.33781781221E+02  0.47262034650E+01 -0.88486020858E+02  0.94833125167E+02  0.00000000000E+00 0.  1.
         13    1    3    3    0    0 -0.33781781221E+02 -0.47262034650E+01 -0.39199774852E+01  0.34335287463E+02  0.00000000000E+00 0. -1.
<mgrwt>
<rscale>  0 0.90253035E+02</rscale>
<asrwt>0</asrwt>
<pdfrwt beam="1">  1        1 0.28278780E-02 0.90253035E+02</pdfrwt>
<pdfrwt beam="2">  1       -1 0.17044185E-01 0.90253035E+02</pdfrwt>
<totfact> 0.81919178E+04</totfact>
</mgrwt>
</event>
<event>
 5    1  0.1239369E+001  0.9101755E+02  0.7546771E-02  0.1300406E+00
         -1   -1    0    0    0  501 -0.00000000000E+00  0.00000000000E+00  0.76259147971E+02  0.76259147971E+02  0.00000000000E+00 0.  1.
          1   -1    0    0  501    0  0.00000000000E+00 -0.00000000000E+00 -0.27158032820E+02  0.27158032820E+02  0.00000000000E+00 0. -1.
         23    2    1    2    0    0  0.00000000000E+00  0.00000000000E+00  0.49101115151E+02  0.10341718079E+03  0.91017546515E+02 0.  0.
        -13    1    3    3    0    0  0.52049038229E+01 -0.44822472800E+02  0.31263317827E+02  0.54895720537E+02  0.00000000000E+00 0. -1.
         13    1    3    3    0    0 -0.52049038229E+01  0.44822472800E+02  0.17837797324E+02  0.48521460253E+02  0.00000000000E+00 0.  1.
<mgrwt>
<rscale>  0 0.91017547E+02</rscale>
<asrwt>0</asrwt>
<pdfrwt beam="2">  1        1 0.41781589E-02 0.91017547E+02</pdfrwt>
<pdfrwt beam="1">  1       -1 0.11732177E-01 0.91017547E+02</pdfrwt>
<totfact> 0.85715634E+04</totfact>
</mgrwt>
</event>
<event>
 5    1  0.1239369E+001  0.9063881E+02  0.7546771E-02  0.1301312E+00
         -2   -1    0    0    0  501 -0.00000000000E+00  0.00000000000E+00  0.10766573388E+02  0.10766573388E+02  0.00000000000E+00 0.  1.
          2   -1    0    0  501    0  0.00000000000E+00 -0.00000000000E+00 -0.19076155981E+03  0.19076155981E+03  0.00000000000E+00 0. -1.
         23    2    1    2    0    0  0.00000000000E+00  0.00000000000E+00 -0.17999498642E+03  0.20152813320E+03  0.90638806992E+02 0.  0.
        -13    1    3    3    0    0  0.20824765410E+02 -0.36205929572E+02 -0.50893853938E+02  0.65838625131E+02  0.00000000000E+00 0.  1.
         13    1    3    3    0    0 -0.20824765410E+02  0.36205929572E+02 -0.12910113248E+03  0.13568950806E+03  0.00000000000E+00 0. -1.
<mgrwt>
<rscale>  0 0.90638807E+02</rscale>
<asrwt>0</asrwt>
<pdfrwt beam="2">  1        2 0.29347934E-01 0.90638807E+02</pdfrwt>
<pdfrwt beam="1">  1       -2 0.16563958E-02 0.90638807E+02</pdfrwt>
<totfact> 0.15451020E+05</totfact>
</mgrwt>
</event>
<event>
 5    1  0.1239369E+001  0.9063412E+02  0.7546771E-02  0.1301323E+00
         -2   -1    0    0    0  501 -0.00000000000E+00  0.00000000000E+00  0.57371733319E+02  0.57371733319E+02  0.00000000000E+00 0.  1.
          2   -1    0    0  501    0  0.00000000000E+00 -0.00000000000E+00 -0.35795254622E+02  0.35795254622E+02  0.00000000000E+00 0. -1.
         23    2    1    2    0    0  0.00000000000E+00  0.00000000000E+00  0.21576478697E+02  0.93166987941E+02  0.90634117246E+02 0.  0.
        -11    1    3    3    0    0 -0.31068972625E+02 -0.29929444971E+02  0.25053489581E+02  0.49887173466E+02  0.00000000000E+00 0.  1.
         11    1    3    3    0    0  0.31068972625E+02  0.29929444971E+02 -0.34770108839E+01  0.43279814475E+02  0.00000000000E+00 0. -1.
<mgrwt>
<rscale>  0 0.90634117E+02</rscale>
<asrwt>0</asrwt>
<pdfrwt beam="2">  1        2 0.55069622E-02 0.90634117E+02</pdfrwt>
<pdfrwt beam="1">  1       -2 0.88264205E-02 0.90634117E+02</pdfrwt>
<totfact> 0.94308636E+04</totfact>
</mgrwt>
</event>
<event>
 5    1  0.1239369E+001  0.8601927E+02  0.7546771E-02  0.1312788E+00
         -1   -1    0    0    0  501 -0.00000000000E+00  0.00000000000E+00  0.54813353466E+02  0.54813353466E+02  0.00000000000E+00 0.  1.
          1   -1    0    0  501    0  0.00000000000E+00 -0.00000000000E+00 -0.33747777949E+02  0.33747777949E+02  0.00000000000E+00 0. -1.
         23    2    1    2    0    0  0.00000000000E+00  0.00000000000E+00  0.21065575518E+02  0.88561131415E+02  0.86019274152E+02 0.  0.
        -13    1    3    3    0    0  0.27174762912E+02 -0.15219972173E+01  0.44819188864E+02  0.52436093535E+02  0.00000000000E+00 0.  1.
         13    1    3    3    0    0 -0.27174762912E+02  0.15219972173E+01 -0.23753613346E+02  0.36125037880E+02  0.00000000000E+00 0. -1.
<mgrwt>
<rscale>  0 0.86019274E+02</rscale>
<asrwt>0</asrwt>
<pdfrwt beam="2">  1        1 0.51919658E-02 0.86019274E+02</pdfrwt>
<pdfrwt beam="1">  1       -1 0.84328236E-02 0.86019274E+02</pdfrwt>
<totfact> 0.10416401E+05</totfact>
</mgrwt>
</event>
<event>
 5    1  0.1239369E+001  0.6948928E+02  0.7546771E-02  0.1361838E+00
          2   -1    0    0  501    0  0.00000000000E+00  0.00000000000E+00  0.40544601181E+02  0.40544601181E+02  0.00000000000E+00 0. -1.
         -2   -1    0    0    0  501 -0.00000000000E+00 -0.00000000000E+00 -0.29774372112E+02  0.29774372112E+02  0.00000000000E+00 0.  1.
         23    2    1    2    0    0  0.00000000000E+00  0.00000000000E+00  0.10770229069E+02  0.70318973294E+02  0.69489280978E+02 0.  0.
        -11    1    3    3    0    0 -0.13233607467E+02  0.32044620553E+02  0.76935730966E+01  0.35513055909E+02  0.00000000000E+00 0. -1.
         11    1    3    3    0    0  0.13233607467E+02 -0.32044620553E+02  0.30766559723E+01  0.34805917385E+02  0.00000000000E+00 0.  1.
<mgrwt>
<rscale>  0 0.69489281E+02</rscale>
<asrwt>0</asrwt>
<pdfrwt beam="1">  1        2 0.62376310E-02 0.69489281E+02</pdfrwt>
<pdfrwt beam="2">  1       -2 0.45806726E-02 0.69489281E+02</pdfrwt>
<totfact> 0.20553888E+05</totfact>
</mgrwt>
</event>
<event>
 5    1  0.1239369E+001  0.9800582E+02  0.7546771E-02  0.1284546E+00
         -2   -1    0    0    0  501 -0.00000000000E+00  0.00000000000E+00  0.27787748585E+03  0.27787748585E+03  0.00000000000E+00 0.  1.
          2   -1    0    0  501    0  0.00000000000E+00 -0.00000000000E+00 -0.86415243396E+01  0.86415243396E+01  0.00000000000E+00 0. -1.
         23    2    1    2    0    0  0.00000000000E+00  0.00000000000E+00  0.26923596151E+03  0.28651901018E+03  0.98005817325E+02 0.  0.
        -11    1    3    3    0    0 -0.12509413003E+02  0.39314999448E+02  0.21191819542E+03  0.21589691092E+03  0.00000000000E+00 0.  1.
         11    1    3    3    0    0  0.12509413003E+02 -0.39314999448E+02  0.57317766082E+02  0.70622099260E+02  0.00000000000E+00 0. -1.
<mgrwt>
<rscale>  0 0.98005817E+02</rscale>
<asrwt>0</asrwt>
<pdfrwt beam="2">  1        2 0.13294655E-02 0.98005817E+02</pdfrwt>
<pdfrwt beam="1">  1       -2 0.42750376E-01 0.98005817E+02</pdfrwt>
<totfact> 0.44156429E+04</totfact>
</mgrwt>
</event>
<event>
 5    1  0.1239369E+001  0.9074276E+02  0.7546771E-02  0.1301063E+00
         -3   -1    0    0    0  501 -0.00000000000E+00  0.00000000000E+00  0.74364211436E+02  0.74364211436E+02  0.00000000000E+00 0.  1.
          3   -1    0    0  501    0  0.00000000000E+00 -0.00000000000E+00 -0.27682163469E+02  0.27682163469E+02  0.00000000000E+00 0. -1.
         23    2    1    2    0    0  0.00000000000E+00  0.00000000000E+00  0.46682047966E+02  0.10204637490E+03  0.90742762956E+02 0.  0.
        -13    1    3    3    0    0  0.39839365296E-01 -0.45345419285E+02  0.25066280779E+02  0.51812421960E+02  0.00000000000E+00 0. -1.
         13    1    3    3    0    0 -0.39839365296E-01  0.45345419285E+02  0.21615767187E+02  0.50233952944E+02  0.00000000000E+00 0.  1.
<mgrwt>
<rscale>  0 0.90742763E+02</rscale>
<asrwt>0</asrwt>
<pdfrwt beam="2">  1        3 0.42587944E-02 0.90742763E+02</pdfrwt>
<pdfrwt beam="1">  1       -3 0.11440648E-01 0.90742763E+02</pdfrwt>
<totfact> 0.34972443E+04</totfact>
</mgrwt>
</event>
<event>
 5    1  0.1239369E+001  0.8916864E+02  0.7546771E-02  0.1304878E+00
         -2   -1    0    0    0  501 -0.00000000000E+00  0.00000000000E+00  0.10147935625E+02  0.10147935625E+02  0.00000000000E+00 0.  1.
          2   -1    0    0  501    0  0.00000000000E+00 -0.00000000000E+00 -0.19587842675E+03  0.19587842675E+03  0.00000000000E+00 0. -1.
         23    2    1    2    0    0  0.00000000000E+00  0.00000000000E+00 -0.18573049112E+03  0.20602636237E+03  0.89168641683E+02 0.  0.
        -13    1    3    3    0    0 -0.38107296996E+02 -0.22859431308E+02 -0.84521089425E+02  0.95491016550E+02  0.00000000000E+00 0. -1.
         13    1    3    3    0    0  0.38107296996E+02  0.22859431308E+02 -0.10120940170E+03  0.11053534582E+03  0.00000000000E+00 0.  1.
<mgrwt>
<rscale>  0 0.89168642E+02</rscale>
<asrwt>0</asrwt>
<pdfrwt beam="2">  1        2 0.30135142E-01 0.89168642E+02</pdfrwt>
<pdfrwt beam="1">  1       -2 0.15612209E-02 0.89168642E+02</pdfrwt>
<totfact> 0.16299392E+05</totfact>
</mgrwt>
</event>
<event>
 5    1  0.1239369E+001  0.1014235E+03  0.7546771E-02  0.1277331E+00
         -1   -1    0    0    0  501 -0.00000000000E+00  0.00000000000E+00  0.19100459970E+03  0.19100459970E+03  0.00000000000E+00 0.  1.
          1   -1    0    0  501    0  0.00000000000E+00 -0.00000000000E+00 -0.13463988273E+02  0.13463988273E+02  0.00000000000E+00 0. -1.
         23    2    1    2    0    0  0.00000000000E+00  0.00000000000E+00  0.17754061143E+03  0.20446858797E+03  0.10142354146E+03 0.  0.
        -11    1    3    3    0    0 -0.48317228992E+02  0.96575882543E+01  0.64590213723E+02  0.81238656667E+02  0.00000000000E+00 0. -1.
         11    1    3    3    0    0  0.48317228992E+02 -0.96575882543E+01  0.11295039770E+03  0.12322993131E+03  0.00000000000E+00 0.  1.
<mgrwt>
<rscale>  0 0.10142354E+03</rscale>
<asrwt>0</asrwt>
<pdfrwt beam="2">  1        1 0.20713830E-02 0.10142354E+03</pdfrwt>
<pdfrwt beam="1">  1       -1 0.29385321E-01 0.10142354E+03</pdfrwt>
<totfact> 0.53245094E+04</totfact>
</mgrwt>
</event>
<event>
 5    1  0.1239369E+001  0.9292230E+02  0.7546771E-02  0.1295925E+00
          4   -1    0    0  501    0  0.00000000000E+00  0.00000000000E+00  0.39313916682E+02  0.39313916682E+02  0.00000000000E+00 0. -1.
         -4   -1    0    0    0  501 -0.00000000000E+00 -0.00000000000E+00 -0.54907737922E+02  0.54907737922E+02  0.00000000000E+00 0.  1.
         23    2    1    2    0    0  0.00000000000E+00  0.00000000000E+00 -0.15593821241E+02  0.94221654604E+02  0.92922295147E+02 0.  0.
        -11    1    3    3    0    0  0.17053424967E+02  0.43127684795E+02 -0.10632754678E+02  0.47580163629E+02  0.00000000000E+00 0.  1.
         11    1    3    3    0    0 -0.17053424967E+02 -0.43127684795E+02 -0.49610665630E+01  0.46641490975E+02  0.00000000000E+00 0. -1.
<mgrwt>
<rscale>  0 0.92922295E+02</rscale>
<asrwt>0</asrwt>
<pdfrwt beam="1">  1        4 0.60482949E-02 0.92922295E+02</pdfrwt>
<pdfrwt beam="2">  1       -4 0.84473443E-02 0.92922295E+02</pdfrwt>
<totfact> 0.25472484E+04</totfact>
</mgrwt>
</event>
<event>
 5    1  0.1239369E+001  0.9397410E+02  0.7546771E-02  0.1293504E+00
          1   -1    0    0  501    0  0.00000000000E+00  0.00000000000E+00  0.33652231501E+03  0.33652231501E+03  0.00000000000E+00 0. -1.
         -1   -1    0    0    0  501 -0.00000000000E+00 -0.00000000000E+00 -0.65605836279E+01  0.65605836279E+01  0.00000000000E+00 0.  1.
         23    2    1    2    0    0  0.00000000000E+00  0.00000000000E+00  0.32996173139E+03  0.34308289864E+03  0.93974098353E+02 0.  0.
        -13    1    3    3    0    0  0.31960352494E+02  0.31892997667E+02  0.11749834314E+03  0.12587489055E+03  0.00000000000E+00 0.  1.
         13    1    3    3    0    0 -0.31960352494E+02 -0.31892997667E+02  0.21246338825E+03  0.21720800809E+03  0.00000000000E+00 0. -1.
<mgrwt>
<rscale>  0 0.93974098E+02</rscale>
<asrwt>0</asrwt>
<pdfrwt beam="1">  1        1 0.51772650E-01 0.93974098E+02</pdfrwt>
<pdfrwt beam="2">  1       -1 0.10093208E-02 0.93974098E+02</pdfrwt>
<totfact> 0.12076896E+05</totfact>
</mgrwt>
</event>
<event>
 5    1  0.1239369E+001  0.9160811E+02  0.7546771E-02  0.1299003E+00
          1   -1    0    0  501    0  0.00000000000E+00  0.00000000000E+00  0.71964138505E+02  0.71964138505E+02  0.00000000000E+00 0. -1.
         -1   -1    0    0    0  501 -0.00000000000E+00 -0.00000000000E+00 -0.29153570104E+02  0.29153570104E+02  0.00000000000E+00 0.  1.
         23    2    1    2    0    0  0.00000000000E+00  0.00000000000E+00  0.42810568401E+02  0.10111770861E+03  0.91608112236E+02 0.  0.
        -11    1    3    3    0    0 -0.41649399971E+01  0.40452180519E+02 -0.18608678714E+01  0.40708579724E+02  0.00000000000E+00 0.  1.
         11    1    3    3    0    0  0.41649399971E+01 -0.40452180519E+02  0.44671436273E+02  0.60409128885E+02  0.00000000000E+00 0. -1.
<mgrwt>
<rscale>  0 0.91608112E+02</rscale>
<asrwt>0</asrwt>
<pdfrwt beam="1">  1        1 0.11071406E-01 0.91608112E+02</pdfrwt>
<pdfrwt beam="2">  1       -1 0.44851646E-02 0.91608112E+02</pdfrwt>
<totfact> 0.97808559E+04</totfact>
</mgrwt>
</event>
<event>
 5    1  0.1239369E+001  0.9912552E+02  0.7546771E-02  0.1282146E+00
          2   -1    0    0  501    0  0.00000000000E+00  0.00000000000E+00  0.34946056161E+02  0.34946056161E+02  0.00000000000E+00 0. -1.
         -2   -1    0    0    0  501 -0.00000000000E+00 -0.00000000000E+00 -0.70293110934E+02  0.70293110934E+02  0.00000000000E+00 0.  1.
         23    2    1    2    0    0  0.00000000000E+00  0.00000000000E+00 -0.35347054772E+02  0.10523916710E+03  0.99125516441E+02 0.  0.
        -11    1    3    3    0    0 -0.28071005631E+02 -0.40814807372E+02 -0.19397613303E+02  0.53198658440E+02  0.00000000000E+00 0.  1.
         11    1    3    3    0    0  0.28071005631E+02  0.40814807372E+02 -0.15949441469E+02  0.52040508655E+02  0.00000000000E+00 0. -1.
<mgrwt>
<rscale>  0 0.99125516E+02</rscale>
<asrwt>0</asrwt>
<pdfrwt beam="1">  1        2 0.53763163E-02 0.99125516E+02</pdfrwt>
<pdfrwt beam="2">  1       -2 0.10814325E-01 0.99125516E+02</pdfrwt>
<totfact> 0.71914326E+04</totfact>
</mgrwt>
</event>
<event>
 5    1  0.1239369E+001  0.9099105E+02  0.7546771E-02  0.1300469E+00
         -2   -1    0    0    0  501 -0.00000000000E+00  0.00000000000E+00  0.69563760297E+02  0.69563760297E+02  0.00000000000E+00 0.  1.
          2   -1    0    0  501    0  0.00000000000E+00 -0.00000000000E+00 -0.29754615774E+02  0.29754615774E+02  0.00000000000E+00 0. -1.
         23    2    1    2    0    0  0.00000000000E+00  0.00000000000E+00  0.39809144523E+02  0.99318376071E+02  0.90991053613E+02 0.  0.
        -13    1    3    3    0    0  0.48885316142E+01  0.27214451363E+02 -0.19531097552E+02  0.33852442687E+02  0.00000000000E+00 0. -1.
         13    1    3    3    0    0 -0.48885316142E+01 -0.27214451363E+02  0.59340242075E+02  0.65465933384E+02  0.00000000000E+00 0.  1.
<mgrwt>
<rscale>  0 0.90991054E+02</rscale>
<asrwt>0</asrwt>
<pdfrwt beam="2">  1        2 0.45776332E-02 0.90991054E+02</pdfrwt>
<pdfrwt beam="1">  1       -2 0.10702117E-01 0.90991054E+02</pdfrwt>
<totfact> 0.88808615E+04</totfact>
</mgrwt>
</event>
<event>
 5    1  0.1239369E+001  0.9033246E+02  0.7546771E-02  0.1302049E+00
          2   -1    0    0  501    0  0.00000000000E+00  0.00000000000E+00  0.96638841960E+02  0.96638841960E+02  0.00000000000E+00 0. -1.
         -2   -1    0    0    0  501 -0.00000000000E+00 -0.00000000000E+00 -0.21109404923E+02  0.21109404923E+02  0.00000000000E+00 0.  1.
         23    2    1    2    0    0  0.00000000000E+00  0.00000000000E+00  0.75529437037E+02  0.11774824688E+03  0.90332462520E+02 0.  0.
        -11    1    3    3    0    0  0.82142122450E+01  0.24866854448E+02 -0.10202522904E+02  0.28105608098E+02  0.00000000000E+00 0.  1.
         11    1    3    3    0    0 -0.82142122450E+01 -0.24866854448E+02  0.85731959942E+02  0.89642638785E+02  0.00000000000E+00 0. -1.
<mgrwt>
<rscale>  0 0.90332463E+02</rscale>
<asrwt>0</asrwt>
<pdfrwt beam="1">  1        2 0.14867514E-01 0.90332463E+02</pdfrwt>
<pdfrwt beam="2">  1       -2 0.32476008E-02 0.90332463E+02</pdfrwt>
<totfact> 0.12456181E+05</totfact>
</mgrwt>
</event>
<event>
 5    1  0.1239369E+001  0.8880971E+02  0.7546771E-02  0.1305760E+00
          2   -1    0    0  501    0  0.00000000000E+00  0.00000000000E+00  0.65990715556E+02  0.65990715556E+02  0.00000000000E+00 0. -1.
         -2   -1    0    0    0  501 -0.00000000000E+00 -0.00000000000E+00 -0.29879827984E+02  0.29879827984E+02  0.00000000000E+00 0.  1.
         23    2    1    2    0    0  0.00000000000E+00  0.00000000000E+00  0.36110887573E+02  0.95870543540E+02  0.88809711841E+02 0.  0.
        -11    1    3    3    0    0 -0.22668653143E+02 -0.36846706346E+02  0.72472502861E+01  0.43864225065E+02  0.00000000000E+00 0.  1.
         11    1    3    3    0    0  0.22668653143E+02  0.36846706346E+02  0.28863637287E+02  0.52006318475E+02  0.00000000000E+00 0. -1.
<mgrwt>
<rscale>  0 0.88809712E+02</rscale>
<asrwt>0</asrwt>
<pdfrwt beam="1">  1        2 0.10152418E-01 0.88809712E+02</pdfrwt>
<pdfrwt beam="2">  1       -2 0.45968966E-02 0.88809712E+02</pdfrwt>
<totfact> 0.11714970E+05</totfact>
</mgrwt>
</event>
<event>
 5    1  0.1239369E+001  0.8459831E+02  0.7546771E-02  0.1316486E+00
          1   -1    0    0  501    0  0.00000000000E+00  0.00000000000E+00  0.28082209727E+02  0.28082209727E+02  0.00000000000E+00 0. -1.
         -1   -1    0    0    0  501 -0.00000000000E+00 -0.00000000000E+00 -0.63713598408E+02  0.63713598408E+02  0.00000000000E+00 0.  1.
         23    2    1    2    0    0  0.00000000000E+00  0.00000000000E+00 -0.35631388681E+02  0.91795808135E+02  0.84598312818E+02 0.  0.
        -13    1    3    3    0    0  0.21941176785E+02  0.23262204526E+02 -0.47860285509E+02  0.57559988943E+02  0.00000000000E+00 0.  1.
         13    1    3    3    0    0 -0.21941176785E+02 -0.23262204526E+02  0.12228896828E+02  0.34235819192E+02  0.00000000000E+00 0. -1.
<mgrwt>
<rscale>  0 0.84598313E+02</rscale>
<asrwt>0</asrwt>
<pdfrwt beam="1">  1        1 0.43203400E-02 0.84598313E+02</pdfrwt>
<pdfrwt beam="2">  1       -1 0.98020920E-02 0.84598313E+02</pdfrwt>
<totfact> 0.10623761E+05</totfact>
</mgrwt>
</event>
<event>
 5    1  0.1239369E+001  0.9221559E+02  0.7546771E-02  0.1297573E+00
          1   -1    0    0  501    0  0.00000000000E+00  0.00000000000E+00  0.28210508754E+03  0.28210508754E+03  0.00000000000E+00 0. -1.
         -1   -1    0    0    0  501 -0.00000000000E+00 -0.00000000000E+00 -0.75359463883E+01  0.75359463883E+01  0.00000000000E+00 0.  1.
         23    2    1    2    0    0  0.00000000000E+00  0.00000000000E+00  0.27456914115E+03  0.28964103392E+03  0.92215591210E+02 0.  0.
        -13    1    3    3    0    0  0.37701433424E+02  0.13544762206E+02  0.20898204070E+03  0.21278710487E+03  0.00000000000E+00 0. -1.
         13    1    3    3    0    0 -0.37701433424E+02 -0.13544762206E+02  0.65587100450E+02  0.76853929053E+02  0.00000000000E+00 0.  1.
<mgrwt>
<rscale>  0 0.92215591E+02</rscale>
<asrwt>0</asrwt>
<pdfrwt beam="1">  1        1 0.43400774E-01 0.92215591E+02</pdfrwt>
<pdfrwt beam="2">  1       -1 0.11593766E-02 0.92215591E+02</pdfrwt>
<totfact> 0.12284414E+05</totfact>
</mgrwt>
</event>
<event>
 5    1  0.1239369E+001  0.9096580E+02  0.7546771E-02  0.1300530E+00
         -2   -1    0    0    0  501 -0.00000000000E+00  0.00000000000E+00  0.26038119779E+02  0.26038119779E+02  0.00000000000E+00 0.  1.
          2   -1    0    0  501    0  0.00000000000E+00 -0.00000000000E+00 -0.79448676630E+02  0.79448676630E+02  0.00000000000E+00 0. -1.
         23    2    1    2    0    0  0.00000000000E+00  0.00000000000E+00 -0.53410556851E+02  0.10548679641E+03  0.90965799252E+02 0.  0.
        -11    1    3    3    0    0  0.21538450265E+02  0.29221938789E+02 -0.58481455677E+02  0.68832457494E+02  0.00000000000E+00 0. -1.
         11    1    3    3    0    0 -0.21538450265E+02 -0.29221938789E+02  0.50708988260E+01  0.36654338916E+02  0.00000000000E+00 0.  1.
<mgrwt>
<rscale>  0 0.90965799E+02</rscale>
<asrwt>0</asrwt>
<pdfrwt beam="2">  1        2 0.12222873E-01 0.90965799E+02</pdfrwt>
<pdfrwt beam="1">  1       -2 0.40058647E-02 0.90965799E+02</pdfrwt>
<totfact> 0.11536995E+05</totfact>
</mgrwt>
</event>
<event>
 5    1  0.1239369E+001  0.9066256E+02  0.7546771E-02  0.1301255E+00
         -3   -1    0    0    0  501 -0.00000000000E+00  0.00000000000E+00  0.16801438727E+02  0.16801438727E+02  0.00000000000E+00 0.  1.
          3   -1    0    0  501    0  0.00000000000E+00 -0.00000000000E+00 -0.12230649131E+03  0.12230649131E+03  0.00000000000E+00 0. -1.
         23    2    1    2    0    0  0.00000000000E+00  0.00000000000E+00 -0.10550505259E+03  0.13910793004E+03  0.90662561618E+02 0.  0.
        -13    1    3    3    0    0 -0.27132498681E+02  0.23152837528E+02 -0.95678602761E+02  0.10211082899E+03  0.00000000000E+00 0. -1.
         13    1    3    3    0    0  0.27132498681E+02 -0.23152837528E+02 -0.98264498265E+01  0.36997101055E+02  0.00000000000E+00 0.  1.
<mgrwt>
<rscale>  0 0.90662562E+02</rscale>
<asrwt>0</asrwt>
<pdfrwt beam="2">  1        3 0.18816383E-01 0.90662562E+02</pdfrwt>
<pdfrwt beam="1">  1       -3 0.25848367E-02 0.90662562E+02</pdfrwt>
<totfact> 0.32480540E+04</totfact>
</mgrwt>
</event>
<event>
 5    1  0.1239369E+001  0.8754153E+02  0.7546771E-02  0.1308917E+00
          2   -1    0    0  501    0  0.00000000000E+00  0.00000000000E+00  0.20300794529E+03  0.20300794529E+03  0.00000000000E+00 0. -1.
         -2   -1    0    0    0  501 -0.00000000000E+00 -0.00000000000E+00 -0.94374614350E+01  0.94374614350E+01  0.00000000000E+00 0.  1.
         23    2    1    2    0    0  0.00000000000E+00  0.00000000000E+00  0.19357048386E+03  0.21244540673E+03  0.87541525111E+02 0.  0.
        -13    1    3    3    0    0  0.39865904847E+02 -0.11354507668E+02  0.62666146261E+02  0.75134952591E+02  0.00000000000E+00 0.  1.
         13    1    3    3    0    0 -0.39865904847E+02  0.11354507668E+02  0.13090433759E+03  0.13731045413E+03  0.00000000000E+00 0. -1.
<mgrwt>
<rscale>  0 0.87541525E+02</rscale>
<asrwt>0</asrwt>
<pdfrwt beam="1">  1        2 0.31231988E-01 0.87541525E+02</pdfrwt>
<pdfrwt beam="2">  1       -2 0.14519173E-02 0.87541525E+02</pdfrwt>
<totfact> 0.17345688E+05</totfact>
</mgrwt>
</event>
<event>
 5    1  0.1239369E+001  0.1023488E+03  0.7546771E-02  0.1275433E+00
          1   -1    0    0  501    0  0.00000000000E+00  0.00000000000E+00  0.73424967037E+02  0.73424967037E+02  0.00000000000E+00 0. -1.
         -1   -1    0    0    0  501 -0.00000000000E+00 -0.00000000000E+00 -0.35666610165E+02  0.35666610165E+02  0.00000000000E+00 0.  1.
         23    2    1    2    0    0  0.00000000000E+00  0.00000000000E+00  0.37758356872E+02  0.10909157720E+03  0.10234880900E+03 0.  0.
        -11    1    3    3    0    0  0.31276790556E+02 -0.27672096211E+02 -0.12647051106E+02  0.43634051358E+02  0.00000000000E+00 0.  1.
         11    1    3    3    0    0 -0.31276790556E+02  0.27672096211E+02  0.50405407978E+02  0.65457525844E+02  0.00000000000E+00 0. -1.
<mgrwt>
<rscale>  0 0.10234881E+03</rscale>
<asrwt>0</asrwt>
<pdfrwt beam="1">  1        1 0.11296149E-01 0.10234881E+03</pdfrwt>
<pdfrwt beam="2">  1       -1 0.54871708E-02 0.10234881E+03</pdfrwt>
<totfact> 0.72101360E+04</totfact>
</mgrwt>
</event>
<event>
 5    1  0.1239369E+001  0.9115426E+02  0.7546771E-02  0.1300080E+00
          3   -1    0    0  501    0  0.00000000000E+00  0.00000000000E+00  0.16703494173E+03  0.16703494173E+03  0.00000000000E+00 0. -1.
         -3   -1    0    0    0  501 -0.00000000000E+00 -0.00000000000E+00 -0.12436168876E+02  0.12436168876E+02  0.00000000000E+00 0.  1.
         23    2    1    2    0    0  0.00000000000E+00  0.00000000000E+00  0.15459877285E+03  0.17947111061E+03  0.91154259221E+02 0.  0.
        -13    1    3    3    0    0  0.10051105593E+02 -0.38781746375E+02  0.34514280751E+02  0.52879903094E+02  0.00000000000E+00 0.  1.
         13    1    3    3    0    0 -0.10051105593E+02  0.38781746375E+02  0.12008449210E+03  0.12659120751E+03  0.00000000000E+00 0. -1.
<mgrwt>
<rscale>  0 0.91154259E+02</rscale>
<asrwt>0</asrwt>
<pdfrwt beam="1">  1        3 0.25697682E-01 0.91154259E+02</pdfrwt>
<pdfrwt beam="2">  1       -3 0.19132569E-02 0.91154259E+02</pdfrwt>
<totfact> 0.29615115E+04</totfact>
</mgrwt>
</event>
<event>
 5    1  0.1239369E+001  0.9204574E+02  0.7546771E-02  0.1297972E+00
         -2   -1    0    0    0  501 -0.00000000000E+00  0.00000000000E+00  0.48736042669E+02  0.48736042669E+02  0.00000000000E+00 0.  1.
          2   -1    0    0  501    0  0.00000000000E+00 -0.00000000000E+00 -0.43460739967E+02  0.43460739967E+02  0.00000000000E+00 0. -1.
         23    2    1    2    0    0  0.00000000000E+00  0.00000000000E+00  0.52753027015E+01  0.92196782636E+02  0.92045738140E+02 0.  0.
        -13    1    3    3    0    0  0.20887519691E+01 -0.42082889523E+02 -0.15906832564E+02  0.45037315613E+02  0.00000000000E+00 0. -1.
         13    1    3    3    0    0 -0.20887519691E+01  0.42082889523E+02  0.21182135266E+02  0.47159467022E+02  0.00000000000E+00 0.  1.
<mgrwt>
<rscale>  0 0.92045738E+02</rscale>
<asrwt>0</asrwt>
<pdfrwt beam="2">  1        2 0.66862677E-02 0.92045738E+02</pdfrwt>
<pdfrwt beam="1">  1       -2 0.74978528E-02 0.92045738E+02</pdfrwt>
<totfact> 0.94828832E+04</totfact>
</mgrwt>
</event>
<event>
 5    1  0.1239369E+001  0.8970018E+02  0.7546771E-02  0.1303579E+00
         -1   -1    0    0    0  501 -0.00000000000E+00  0.00000000000E+00  0.77126676142E+02  0.77126676142E+02  0.00000000000E+00 0. -1.
          1   -1    0    0  501    0  0.00000000000E+00 -0.00000000000E+00 -0.26080865662E+02  0.26080865662E+02  0.00000000000E+00 0.  1.
         23    2    1    2    0    0  0.00000000000E+00  0.00000000000E+00  0.51045810481E+02  0.10320754180E+03  0.89700177912E+02 0.  0.
        -11    1    3    3    0    0 -0.23833127371E+02 -0.21783059425E+02 -0.10293537319E+02  0.33889180408E+02  0.00000000000E+00 0.  1.
         11    1    3    3    0    0  0.23833127371E+02  0.21783059425E+02  0.61339347799E+02  0.69318361396E+02  0.00000000000E+00 0. -1.
<mgrwt>
<rscale>  0 0.89700178E+02</rscale>
<asrwt>0</asrwt>
<pdfrwt beam="2">  1        1 0.40124409E-02 0.89700178E+02</pdfrwt>
<pdfrwt beam="1">  1       -1 0.11865642E-01 0.89700178E+02</pdfrwt>
<totfact> 0.88799883E+04</totfact>
</mgrwt>
</event>
<event>
 5    1  0.1239369E+001  0.9250271E+02  0.7546771E-02  0.1296902E+00
         -1   -1    0    0    0  501 -0.00000000000E+00  0.00000000000E+00  0.13233020647E+03  0.13233020647E+03  0.00000000000E+00 0.  1.
          1   -1    0    0  501    0  0.00000000000E+00 -0.00000000000E+00 -0.16165530153E+02  0.16165530153E+02  0.00000000000E+00 0. -1.
         23    2    1    2    0    0  0.00000000000E+00  0.00000000000E+00  0.11616467632E+03  0.14849573663E+03  0.92502712240E+02 0.  0.
        -13    1    3    3    0    0  0.27216685418E+02 -0.16647015315E+02  0.11183793576E+03  0.11629959139E+03  0.00000000000E+00 0.  1.
         13    1    3    3    0    0 -0.27216685418E+02  0.16647015315E+02  0.43267405646E+01  0.32196145234E+02  0.00000000000E+00 0. -1.
<mgrwt>
<rscale>  0 0.92502712E+02</rscale>
<asrwt>0</asrwt>
<pdfrwt beam="2">  1        1 0.24870047E-02 0.92502712E+02</pdfrwt>
<pdfrwt beam="1">  1       -1 0.20358493E-01 0.92502712E+02</pdfrwt>
<totfact> 0.74102680E+04</totfact>
</mgrwt>
</event>
<event>
 5    1  0.1239369E+001  0.9005367E+02  0.7546771E-02  0.1302722E+00
         -3   -1    0    0    0  501 -0.00000000000E+00  0.00000000000E+00  0.22193659777E+03  0.22193659777E+03  0.00000000000E+00 0.  1.
          3   -1    0    0  501    0  0.00000000000E+00 -0.00000000000E+00 -0.91351127607E+01  0.91351127607E+01  0.00000000000E+00 0. -1.
         23    2    1    2    0    0  0.00000000000E+00  0.00000000000E+00  0.21280148500E+03  0.23107171053E+03  0.90053669471E+02 0.  0.
        -13    1    3    3    0    0  0.29189159116E+02 -0.22777933062E+02  0.17214947800E+03  0.17608601313E+03  0.00000000000E+00 0.  1.
         13    1    3    3    0    0 -0.29189159116E+02  0.22777933062E+02  0.40652007001E+02  0.54985697392E+02  0.00000000000E+00 0. -1.
<mgrwt>
<rscale>  0 0.90053669E+02</rscale>
<asrwt>0</asrwt>
<pdfrwt beam="2">  1        3 0.14054021E-02 0.90053669E+02</pdfrwt>
<pdfrwt beam="1">  1       -3 0.34144088E-01 0.90053669E+02</pdfrwt>
<totfact> 0.27878508E+04</totfact>
</mgrwt>
</event>
<event>
 5    1  0.1239369E+001  0.9132036E+02  0.7546771E-02  0.1299685E+00
         -2   -1    0    0    0  501 -0.00000000000E+00  0.00000000000E+00  0.20554025741E+02  0.20554025741E+02  0.00000000000E+00 0.  1.
          2   -1    0    0  501    0  0.00000000000E+00 -0.00000000000E+00 -0.10143277743E+03  0.10143277743E+03  0.00000000000E+00 0. -1.
         23    2    1    2    0    0  0.00000000000E+00  0.00000000000E+00 -0.80878751692E+02  0.12198680318E+03  0.91320357389E+02 0.  0.
        -11    1    3    3    0    0  0.24161285753E+00  0.17428303471E+02  0.15935166973E+02  0.23616385945E+02  0.00000000000E+00 0.  1.
         11    1    3    3    0    0 -0.24161285753E+00 -0.17428303471E+02 -0.96813918665E+02  0.98370417230E+02  0.00000000000E+00 0. -1.
<mgrwt>
<rscale>  0 0.91320357E+02</rscale>
<asrwt>0</asrwt>
<pdfrwt beam="2">  1        2 0.15605042E-01 0.91320357E+02</pdfrwt>
<pdfrwt beam="1">  1       -2 0.31621579E-02 0.91320357E+02</pdfrwt>
<totfact> 0.12267722E+05</totfact>
</mgrwt>
</event>
<event>
 5    1  0.1239369E+001  0.9773421E+02  0.7546771E-02  0.1285134E+00
          3   -1    0    0  501    0  0.00000000000E+00  0.00000000000E+00  0.57358234378E+01  0.57358234378E+01  0.00000000000E+00 0. -1.
         -3   -1    0    0    0  501 -0.00000000000E+00 -0.00000000000E+00 -0.41632974471E+03  0.41632974471E+03  0.00000000000E+00 0.  1.
         23    2    1    2    0    0  0.00000000000E+00  0.00000000000E+00 -0.41059392127E+03  0.42206556815E+03  0.97734209109E+02 0.  0.
        -11    1    3    3    0    0 -0.46199719381E+02 -0.72025563714E+01 -0.26662929856E+03  0.27069812290E+03  0.00000000000E+00 0.  1.
         11    1    3    3    0    0  0.46199719381E+02  0.72025563714E+01 -0.14396462271E+03  0.15136744525E+03  0.00000000000E+00 0. -1.
<mgrwt>
<rscale>  0 0.97734209E+02</rscale>
<asrwt>0</asrwt>
<pdfrwt beam="1">  1        3 0.88243420E-03 0.97734209E+02</pdfrwt>
<pdfrwt beam="2">  1       -3 0.64050742E-01 0.97734209E+02</pdfrwt>
<totfact> 0.16554274E+04</totfact>
</mgrwt>
</event>
<event>
 5    1  0.1239369E+001  0.9408963E+02  0.7546771E-02  0.1293240E+00
         -2   -1    0    0    0  501 -0.00000000000E+00  0.00000000000E+00  0.13282708775E+03  0.13282708775E+03  0.00000000000E+00 0.  1.
          2   -1    0    0  501    0  0.00000000000E+00 -0.00000000000E+00 -0.16662372606E+02  0.16662372606E+02  0.00000000000E+00 0. -1.
         23    2    1    2    0    0  0.00000000000E+00  0.00000000000E+00  0.11616471515E+03  0.14948946036E+03  0.94089625960E+02 0.  0.
        -13    1    3    3    0    0  0.41911308201E+01 -0.38427100482E+02  0.15479833479E+02  0.41639318841E+02  0.00000000000E+00 0. -1.
         13    1    3    3    0    0 -0.41911308201E+01  0.38427100482E+02  0.10068488167E+03  0.10785014152E+03  0.00000000000E+00 0.  1.
<mgrwt>
<rscale>  0 0.94089626E+02</rscale>
<asrwt>0</asrwt>
<pdfrwt beam="2">  1        2 0.25634420E-02 0.94089626E+02</pdfrwt>
<pdfrwt beam="1">  1       -2 0.20434936E-01 0.94089626E+02</pdfrwt>
<totfact> 0.67353564E+04</totfact>
</mgrwt>
</event>
<event>
 5    1  0.1239369E+001  0.9017741E+02  0.7546771E-02  0.1302423E+00
          1   -1    0    0  501    0  0.00000000000E+00  0.00000000000E+00  0.12551186768E+03  0.12551186768E+03  0.00000000000E+00 0. -1.
         -1   -1    0    0    0  501 -0.00000000000E+00 -0.00000000000E+00 -0.16197601584E+02  0.16197601584E+02  0.00000000000E+00 0.  1.
         23    2    1    2    0    0  0.00000000000E+00  0.00000000000E+00  0.10931426610E+03  0.14170946927E+03  0.90177407965E+02 0.  0.
        -13    1    3    3    0    0  0.43784118244E+02  0.10765336625E+02  0.55007618811E+02  0.71125098315E+02  0.00000000000E+00 0. -1.
         13    1    3    3    0    0 -0.43784118244E+02 -0.10765336625E+02  0.54306647287E+02  0.70584370951E+02  0.00000000000E+00 0.  1.
<mgrwt>
<rscale>  0 0.90177408E+02</rscale>
<asrwt>0</asrwt>
<pdfrwt beam="1">  1        1 0.19309517E-01 0.90177408E+02</pdfrwt>
<pdfrwt beam="2">  1       -1 0.24919388E-02 0.90177408E+02</pdfrwt>
<totfact> 0.11187629E+05</totfact>
</mgrwt>
</event>
<event>
 4    1  0.1239369E+001  0.1281119E+03  0.7546771E-02  0.1230284E+00
         -3   -1    0    0    0  501 -0.00000000000E+00  0.00000000000E+00  0.21526235438E+02  0.21526235438E+02  0.00000000000E+00 0.  1.
          3   -1    0    0  501    0  0.00000000000E+00 -0.00000000000E+00 -0.19061241167E+03  0.19061241167E+03  0.00000000000E+00 0. -1.
        -13    1    1    2    0    0  0.27011213501E+02 -0.14302366698E+02  0.86731521994E+01  0.31770850115E+02  0.00000000000E+00 0.  1.
         13    1    1    2    0    0 -0.27011213501E+02  0.14302366698E+02 -0.17775932843E+03  0.18036779699E+03  0.00000000000E+00 0. -1.
<mgrwt>
<rscale>  0 0.12811195E+03</rscale>
<asrwt>0</asrwt>
<pdfrwt beam="2">  1        3 0.29324987E-01 0.12811195E+03</pdfrwt>
<pdfrwt beam="1">  1       -3 0.33117285E-02 0.12811195E+03</pdfrwt>
<totfact> 0.10931882E+04</totfact>
</mgrwt>
</event>
<event>
 5    1  0.1239369E+001  0.8906923E+02  0.7546771E-02  0.1305121E+00
         -4   -1    0    0    0  501 -0.00000000000E+00  0.00000000000E+00  0.18101390949E+02  0.18101390949E+02  0.00000000000E+00 0.  1.
          4   -1    0    0  501    0  0.00000000000E+00 -0.00000000000E+00 -0.10956794007E+03  0.10956794007E+03  0.00000000000E+00 0. -1.
         23    2    1    2    0    0  0.00000000000E+00  0.00000000000E+00 -0.91466549121E+02  0.12766933102E+03  0.89069234166E+02 0.  0.
        -13    1    3    3    0    0  0.10785599782E+02 -0.34166819620E+02 -0.83646742295E+02  0.90997133043E+02  0.00000000000E+00 0. -1.
         13    1    3    3    0    0 -0.10785599782E+02  0.34166819620E+02 -0.78198068260E+01  0.36672197976E+02  0.00000000000E+00 0.  1.
<mgrwt>
<rscale>  0 0.89069234E+02</rscale>
<asrwt>0</asrwt>
<pdfrwt beam="2">  1        4 0.16856606E-01 0.89069234E+02</pdfrwt>
<pdfrwt beam="1">  1       -4 0.27848294E-02 0.89069234E+02</pdfrwt>
<totfact> 0.26457940E+04</totfact>
</mgrwt>
</event>
<event>
 5    1  0.1239369E+001  0.9221698E+02  0.7546771E-02  0.1297570E+00
         -1   -1    0    0    0  501 -0.00000000000E+00  0.00000000000E+00  0.52596999617E+02  0.52596999617E+02  0.00000000000E+00 0.  1.
          1   -1    0    0  501    0  0.00000000000E+00 -0.00000000000E+00 -0.40420416541E+02  0.40420416541E+02  0.00000000000E+00 0. -1.
         23    2    1    2    0    0  0.00000000000E+00  0.00000000000E+00  0.12176583076E+02  0.93017416159E+02  0.92216975300E+02 0.  0.
        -13    1    3    3    0    0  0.20532168870E+02  0.82803654713E+01 -0.34708520613E+02  0.41168140765E+02  0.00000000000E+00 0. -1.
         13    1    3    3    0    0 -0.20532168870E+02 -0.82803654713E+01  0.46885103690E+02  0.51849275394E+02  0.00000000000E+00 0.  1.
<mgrwt>
<rscale>  0 0.92216975E+02</rscale>
<asrwt>0</asrwt>
<pdfrwt beam="2">  1        1 0.62185256E-02 0.92216975E+02</pdfrwt>
<pdfrwt beam="1">  1       -1 0.80918462E-02 0.92216975E+02</pdfrwt>
<totfact> 0.87940239E+04</totfact>
</mgrwt>
</event>
<event>
 5    1  0.1239369E+001  0.9112901E+02  0.7546771E-02  0.1300140E+00
          1   -1    0    0  501    0  0.00000000000E+00  0.00000000000E+00  0.14449666580E+03  0.14449666580E+03  0.00000000000E+00 0. -1.
         -1   -1    0    0    0  501 -0.00000000000E+00 -0.00000000000E+00 -0.14367972666E+02  0.14367972666E+02  0.00000000000E+00 0.  1.
         23    2    1    2    0    0  0.00000000000E+00  0.00000000000E+00  0.13012869313E+03  0.15886463847E+03  0.91129010629E+02 0.  0.
        -13    1    3    3    0    0 -0.30969081756E+02 -0.24612740952E+02  0.10448179987E+03  0.11171981716E+03  0.00000000000E+00 0. -1.
         13    1    3    3    0    0  0.30969081756E+02  0.24612740952E+02  0.25646893263E+02  0.47144821307E+02  0.00000000000E+00 0.  1.
<mgrwt>
<rscale>  0 0.91129011E+02</rscale>
<asrwt>0</asrwt>
<pdfrwt beam="1">  1        1 0.22230255E-01 0.91129011E+02</pdfrwt>
<pdfrwt beam="2">  1       -1 0.22104574E-02 0.91129011E+02</pdfrwt>
<totfact> 0.11152591E+05</totfact>
</mgrwt>
</event>
<event>
 5    1  0.1239369E+001  0.8998320E+02  0.7546771E-02  0.1302892E+00
         -4   -1    0    0    0  501 -0.00000000000E+00  0.00000000000E+00  0.47254938923E+02  0.47254938923E+02  0.00000000000E+00 0. -1.
          4   -1    0    0  501    0  0.00000000000E+00 -0.00000000000E+00 -0.42836671029E+02  0.42836671029E+02  0.00000000000E+00 0.  1.
         23    2    1    2    0    0  0.00000000000E+00  0.00000000000E+00  0.44182678943E+01  0.90091609952E+02  0.89983204503E+02 0.  0.
        -13    1    3    3    0    0 -0.12298859526E+01  0.16898776412E+02 -0.39520365869E+02  0.42999309088E+02  0.00000000000E+00 0.  1.
         13    1    3    3    0    0  0.12298859526E+01 -0.16898776412E+02  0.43938633763E+02  0.47092300864E+02  0.00000000000E+00 0. -1.
<mgrwt>
<rscale>  0 0.89983205E+02</rscale>
<asrwt>0</asrwt>
<pdfrwt beam="2">  1        4 0.65902571E-02 0.89983205E+02</pdfrwt>
<pdfrwt beam="1">  1       -4 0.72699906E-02 0.89983205E+02</pdfrwt>
<totfact> 0.28070639E+04</totfact>
</mgrwt>
</event>
<event>
 5    1  0.1239369E+001  0.9288389E+02  0.7546771E-02  0.1296014E+00
          1   -1    0    0  501    0  0.00000000000E+00  0.00000000000E+00  0.17930595779E+02  0.17930595779E+02  0.00000000000E+00 0. -1.
         -1   -1    0    0    0  501 -0.00000000000E+00 -0.00000000000E+00 -0.12028905195E+03  0.12028905195E+03  0.00000000000E+00 0.  1.
         23    2    1    2    0    0  0.00000000000E+00  0.00000000000E+00 -0.10235845617E+03  0.13821964773E+03  0.92883892408E+02 0.  0.
        -13    1    3    3    0    0 -0.25393375472E+02  0.38882888181E+02 -0.51759117923E+02  0.69539260848E+02  0.00000000000E+00 0. -1.
         13    1    3    3    0    0  0.25393375472E+02 -0.38882888181E+02 -0.50599338248E+02  0.68680386882E+02  0.00000000000E+00 0.  1.
<mgrwt>
<rscale>  0 0.92883892E+02</rscale>
<asrwt>0</asrwt>
<pdfrwt beam="1">  1        1 0.27585531E-02 0.92883892E+02</pdfrwt>
<pdfrwt beam="2">  1       -1 0.18506008E-01 0.92883892E+02</pdfrwt>
<totfact> 0.74812045E+04</totfact>
</mgrwt>
</event>
<event>
 5    1  0.1239369E+001  0.9266409E+02  0.7546771E-02  0.1296526E+00
         -1   -1    0    0    0  501 -0.00000000000E+00  0.00000000000E+00  0.20032695949E+03  0.20032695949E+03  0.00000000000E+00 0.  1.
          1   -1    0    0  501    0  0.00000000000E+00 -0.00000000000E+00 -0.10715773412E+02  0.10715773412E+02  0.00000000000E+00 0. -1.
         23    2    1    2    0    0  0.00000000000E+00  0.00000000000E+00  0.18961118608E+03  0.21104273290E+03  0.92664088109E+02 0.  0.
        -11    1    3    3    0    0  0.27010879209E+02 -0.37410147899E+02  0.10434709225E+03  0.11409391931E+03  0.00000000000E+00 0.  1.
         11    1    3    3    0    0 -0.27010879209E+02  0.37410147899E+02  0.85264093825E+02  0.96948813594E+02  0.00000000000E+00 0. -1.
<mgrwt>
<rscale>  0 0.92664088E+02</rscale>
<asrwt>0</asrwt>
<pdfrwt beam="2">  1        1 0.16485807E-02 0.92664088E+02</pdfrwt>
<pdfrwt beam="1">  1       -1 0.30819529E-01 0.92664088E+02</pdfrwt>
<totfact> 0.66523958E+04</totfact>
</mgrwt>
</event>
<event>
 5    1  0.1239369E+001  0.8775853E+02  0.7546771E-02  0.1308372E+00
          2   -1    0    0  501    0  0.00000000000E+00  0.00000000000E+00  0.10076358733E+02  0.10076358733E+02  0.00000000000E+00 0.  1.
         -2   -1    0    0    0  501 -0.00000000000E+00 -0.00000000000E+00 -0.19107991207E+03  0.19107991207E+03  0.00000000000E+00 0. -1.
         23    2    1    2    0    0  0.00000000000E+00  0.00000000000E+00 -0.18100355334E+03  0.20115627081E+03  0.87758526441E+02 0.  0.
        -11    1    3    3    0    0 -0.30031251714E+02  0.39725765530E+00 -0.16382770857E+03  0.16655795384E+03  0.00000000000E+00 0. -1.
         11    1    3    3    0    0  0.30031251714E+02 -0.39725765530E+00 -0.17175844770E+02  0.34598316964E+02  0.00000000000E+00 0.  1.
<mgrwt>
<rscale>  0 0.87758526E+02</rscale>
<asrwt>0</asrwt>
<pdfrwt beam="1">  1        2 0.15502091E-02 0.87758526E+02</pdfrwt>
<pdfrwt beam="2">  1       -2 0.29396908E-01 0.87758526E+02</pdfrwt>
<totfact> 0.70041229E+04</totfact>
</mgrwt>
</event>
<event>
 5    1  0.1239369E+001  0.9135844E+02  0.7546771E-02  0.1299595E+00
         -2   -1    0    0    0  501 -0.00000000000E+00  0.00000000000E+00  0.30040196678E+02  0.30040196678E+02  0.00000000000E+00 0. -1.
          2   -1    0    0  501    0  0.00000000000E+00 -0.00000000000E+00 -0.69459973691E+02  0.69459973691E+02  0.00000000000E+00 0.  1.
         23    2    1    2    0    0  0.00000000000E+00  0.00000000000E+00 -0.39419777013E+02  0.99500170368E+02  0.91358442870E+02 0.  0.
        -13    1    3    3    0    0  0.22767936966E+02  0.37646373952E+02 -0.33091554085E+02  0.55051606490E+02  0.00000000000E+00 0.  1.
         13    1    3    3    0    0 -0.22767936966E+02 -0.37646373952E+02 -0.63282229276E+01  0.44448563878E+02  0.00000000000E+00 0. -1.
<mgrwt>
<rscale>  0 0.91358443E+02</rscale>
<asrwt>0</asrwt>
<pdfrwt beam="2">  1        2 0.10686150E-01 0.91358443E+02</pdfrwt>
<pdfrwt beam="1">  1       -2 0.46215687E-02 0.91358443E+02</pdfrwt>
<totfact> 0.10976892E+05</totfact>
</mgrwt>
</event>
<event>
 5    1  0.1239369E+001  0.9993954E+02  0.7546771E-02  0.1280423E+00
         -3   -1    0    0    0  501 -0.00000000000E+00  0.00000000000E+00  0.35105565633E+02  0.35105565633E+02  0.00000000000E+00 0.  1.
          3   -1    0    0  501    0  0.00000000000E+00 -0.00000000000E+00 -0.71127699281E+02  0.71127699281E+02  0.00000000000E+00 0. -1.
         23    2    1    2    0    0  0.00000000000E+00  0.00000000000E+00 -0.36022133648E+02  0.10623326491E+03  0.99939544034E+02 0.  0.
        -11    1    3    3    0    0 -0.24879022073E+02 -0.13612008469E+02 -0.61744789506E+02  0.67946092934E+02  0.00000000000E+00 0. -1.
         11    1    3    3    0    0  0.24879022073E+02  0.13612008469E+02  0.25722655858E+02  0.38287171980E+02  0.00000000000E+00 0.  1.
<mgrwt>
<rscale>  0 0.99939544E+02</rscale>
<asrwt>0</asrwt>
<pdfrwt beam="2">  1        3 0.10942723E-01 0.99939544E+02</pdfrwt>
<pdfrwt beam="1">  1       -3 0.54008563E-02 0.99939544E+02</pdfrwt>
<totfact> 0.26613277E+04</totfact>
</mgrwt>
</event>
<event>
 5    1  0.1239369E+001  0.9139853E+02  0.7546771E-02  0.1299500E+00
         -2   -1    0    0    0  501 -0.00000000000E+00  0.00000000000E+00  0.95738631854E+02  0.95738631854E+02  0.00000000000E+00 0.  1.
          2   -1    0    0  501    0  0.00000000000E+00 -0.00000000000E+00 -0.21813795287E+02  0.21813795287E+02  0.00000000000E+00 0. -1.
         23    2    1    2    0    0  0.00000000000E+00  0.00000000000E+00  0.73924836567E+02  0.11755242714E+03  0.91398532075E+02 0.  0.
        -11    1    3    3    0    0 -0.21658013693E+02  0.11150020376E+02  0.86692296125E+02  0.90049690277E+02  0.00000000000E+00 0.  1.
         11    1    3    3    0    0  0.21658013693E+02 -0.11150020376E+02 -0.12767459558E+02  0.27502736865E+02  0.00000000000E+00 0. -1.
<mgrwt>
<rscale>  0 0.91398532E+02</rscale>
<asrwt>0</asrwt>
<pdfrwt beam="2">  1        2 0.33559686E-02 0.91398532E+02</pdfrwt>
<pdfrwt beam="1">  1       -2 0.14729020E-01 0.91398532E+02</pdfrwt>
<totfact> 0.80354797E+04</totfact>
</mgrwt>
</event>
<event>
 5    1  0.1239369E+001  0.9149791E+02  0.7546771E-02  0.1299264E+00
          2   -1    0    0  501    0  0.00000000000E+00  0.00000000000E+00  0.13599535905E+02  0.13599535905E+02  0.00000000000E+00 0. -1.
         -2   -1    0    0    0  501 -0.00000000000E+00 -0.00000000000E+00 -0.15389987945E+03  0.15389987945E+03  0.00000000000E+00 0.  1.
         23    2    1    2    0    0  0.00000000000E+00  0.00000000000E+00 -0.14030034355E+03  0.16749941536E+03  0.91497911156E+02 0.  0.
        -13    1    3    3    0    0  0.10443758005E+02  0.43590577748E+02 -0.86903885213E+02  0.97782901444E+02  0.00000000000E+00 0. -1.
         13    1    3    3    0    0 -0.10443758005E+02 -0.43590577748E+02 -0.53396458335E+02  0.69716513914E+02  0.00000000000E+00 0.  1.
<mgrwt>
<rscale>  0 0.91497911E+02</rscale>
<asrwt>0</asrwt>
<pdfrwt beam="1">  1        2 0.20922362E-02 0.91497911E+02</pdfrwt>
<pdfrwt beam="2">  1       -2 0.23676905E-01 0.91497911E+02</pdfrwt>
<totfact> 0.68587943E+04</totfact>
</mgrwt>
</event>
<event>
 5    1  0.1239369E+001  0.9157248E+02  0.7546771E-02  0.1299088E+00
          2   -1    0    0  501    0  0.00000000000E+00  0.00000000000E+00  0.21017827728E+03  0.21017827728E+03  0.00000000000E+00 0.  1.
         -2   -1    0    0    0  501 -0.00000000000E+00 -0.00000000000E+00 -0.99742930501E+01  0.99742930501E+01  0.00000000000E+00 0. -1.
         23    2    1    2    0    0  0.00000000000E+00  0.00000000000E+00  0.20020398423E+03  0.22015257033E+03  0.91572479061E+02 0.  0.
        -11    1    3    3    0    0 -0.14084236416E+02 -0.34996501164E+02  0.16248263513E+03  0.16680445896E+03  0.00000000000E+00 0.  1.
         11    1    3    3    0    0  0.14084236416E+02  0.34996501164E+02  0.37721349098E+02  0.53348111371E+02  0.00000000000E+00 0. -1.
<mgrwt>
<rscale>  0 0.91572479E+02</rscale>
<asrwt>0</asrwt>
<pdfrwt beam="1">  1        2 0.32335116E-01 0.91572479E+02</pdfrwt>
<pdfrwt beam="2">  1       -2 0.15345068E-02 0.91572479E+02</pdfrwt>
<totfact> 0.15566642E+05</totfact>
</mgrwt>
</event>
<event>
 5    1  0.1239369E+001  0.9152875E+02  0.7546771E-02  0.1299191E+00
         -2   -1    0    0    0  501 -0.00000000000E+00  0.00000000000E+00  0.10501945164E+02  0.10501945164E+02  0.00000000000E+00 0.  1.
          2   -1    0    0  501    0  0.00000000000E+00 -0.00000000000E+00 -0.19942762958E+03  0.19942762958E+03  0.00000000000E+00 0. -1.
         23    2    1    2    0    0  0.00000000000E+00  0.00000000000E+00 -0.18892568442E+03  0.20992957475E+03  0.91528750241E+02 0.  0.
        -13    1    3    3    0    0  0.31300958931E+02  0.33363113776E+02 -0.91625233400E+02  0.10241108722E+03  0.00000000000E+00 0. -1.
         13    1    3    3    0    0 -0.31300958931E+02 -0.33363113776E+02 -0.97300451020E+02  0.10751848752E+03  0.00000000000E+00 0.  1.
<mgrwt>
<rscale>  0 0.91528750E+02</rscale>
<asrwt>0</asrwt>
<pdfrwt beam="2">  1        2 0.30681172E-01 0.91528750E+02</pdfrwt>
<pdfrwt beam="1">  1       -2 0.16156839E-02 0.91528750E+02</pdfrwt>
<totfact> 0.15292338E+05</totfact>
</mgrwt>
</event>
<event>
 5    1  0.1239369E+001  0.9082536E+02  0.7546771E-02  0.1300865E+00
         -2   -1    0    0    0  501 -0.00000000000E+00  0.00000000000E+00  0.21541478982E+02  0.21541478982E+02  0.00000000000E+00 0. -1.
          2   -1    0    0  501    0  0.00000000000E+00 -0.00000000000E+00 -0.95736757228E+02  0.95736757228E+02  0.00000000000E+00 0.  1.
         23    2    1    2    0    0  0.00000000000E+00  0.00000000000E+00 -0.74195278247E+02  0.11727823621E+03  0.90825356451E+02 0.  0.
        -13    1    3    3    0    0  0.24897876487E+02  0.25726814615E+02 -0.73172724558E+02  0.81461775472E+02  0.00000000000E+00 0.  1.
         13    1    3    3    0    0 -0.24897876487E+02 -0.25726814615E+02 -0.10225536888E+01  0.35816460738E+02  0.00000000000E+00 0. -1.
<mgrwt>
<rscale>  0 0.90825356E+02</rscale>
<asrwt>0</asrwt>
<pdfrwt beam="2">  1        2 0.14728732E-01 0.90825356E+02</pdfrwt>
<pdfrwt beam="1">  1       -2 0.33140736E-02 0.90825356E+02</pdfrwt>
<totfact> 0.12236507E+05</totfact>
</mgrwt>
</event>
<event>
 5    1  0.1239369E+001  0.9323410E+02  0.7546771E-02  0.1295204E+00
          1   -1    0    0  501    0  0.00000000000E+00  0.00000000000E+00  0.15628081619E+03  0.15628081619E+03  0.00000000000E+00 0.  1.
         -1   -1    0    0    0  501 -0.00000000000E+00 -0.00000000000E+00 -0.13905414596E+02  0.13905414596E+02  0.00000000000E+00 0. -1.
         23    2    1    2    0    0  0.00000000000E+00  0.00000000000E+00  0.14237540160E+03  0.17018623079E+03  0.93234104114E+02 0.  0.
        -11    1    3    3    0    0 -0.42235068823E+02  0.39704780785E+00  0.35177053135E+02  0.54967115194E+02  0.00000000000E+00 0. -1.
         11    1    3    3    0    0  0.42235068823E+02 -0.39704780785E+00  0.10719834846E+03  0.11521911559E+03  0.00000000000E+00 0.  1.
<mgrwt>
<rscale>  0 0.93234104E+02</rscale>
<asrwt>0</asrwt>
<pdfrwt beam="1">  1        1 0.24043201E-01 0.93234104E+02</pdfrwt>
<pdfrwt beam="2">  1       -1 0.21392947E-02 0.93234104E+02</pdfrwt>
<totfact> 0.10637703E+05</totfact>
</mgrwt>
</event>
<event>
 5    1  0.1239369E+001  0.8428735E+02  0.7546771E-02  0.1317307E+00
         -1   -1    0    0    0  501 -0.00000000000E+00  0.00000000000E+00  0.14075691965E+03  0.14075691965E+03  0.00000000000E+00 0.  1.
          1   -1    0    0  501    0  0.00000000000E+00 -0.00000000000E+00 -0.12618131518E+02  0.12618131518E+02  0.00000000000E+00 0. -1.
         23    2    1    2    0    0  0.00000000000E+00  0.00000000000E+00  0.12813878813E+03  0.15337505116E+03  0.84287349565E+02 0.  0.
        -13    1    3    3    0    0  0.26263577184E+02  0.32801233545E+02  0.69935650232E+02  0.81588550557E+02  0.00000000000E+00 0.  1.
         13    1    3    3    0    0 -0.26263577184E+02 -0.32801233545E+02  0.58203137896E+02  0.71786500608E+02  0.00000000000E+00 0. -1.
<mgrwt>
<rscale>  0 0.84287350E+02</rscale>
<asrwt>0</asrwt>
<pdfrwt beam="2">  1        1 0.19412511E-02 0.84287350E+02</pdfrwt>
<pdfrwt beam="1">  1       -1 0.21654910E-01 0.84287350E+02</pdfrwt>
<totfact> 0.92984765E+04</totfact>
</mgrwt>
</event>
<event>
 5    1  0.1239369E+001  0.9371982E+02  0.7546771E-02  0.1294086E+00
         -1   -1    0    0    0  501 -0.00000000000E+00  0.00000000000E+00  0.12947349193E+02  0.12947349193E+02  0.00000000000E+00 0.  1.
          1   -1    0    0  501    0  0.00000000000E+00 -0.00000000000E+00 -0.16959852495E+03  0.16959852495E+03  0.00000000000E+00 0. -1.
         23    2    1    2    0    0  0.00000000000E+00  0.00000000000E+00 -0.15665117576E+03  0.18254587415E+03  0.93719823414E+02 0.  0.
        -13    1    3    3    0    0  0.37925251782E+02  0.44954964265E+01 -0.25436300275E+02  0.45886158943E+02  0.00000000000E+00 0.  1.
         13    1    3    3    0    0 -0.37925251782E+02 -0.44954964265E+01 -0.13121487549E+03  0.13665971520E+03  0.00000000000E+00 0. -1.
<mgrwt>
<rscale>  0 0.93719823E+02</rscale>
<asrwt>0</asrwt>
<pdfrwt beam="2">  1        1 0.26092079E-01 0.93719823E+02</pdfrwt>
<pdfrwt beam="1">  1       -1 0.19919000E-02 0.93719823E+02</pdfrwt>
<totfact> 0.10652195E+05</totfact>
</mgrwt>
</event>
<event>
 5    1  0.1239369E+001  0.9159197E+02  0.7546771E-02  0.1299042E+00
         -1   -1    0    0    0  501 -0.00000000000E+00  0.00000000000E+00  0.74367842127E+01  0.74367842127E+01  0.00000000000E+00 0.  1.
          1   -1    0    0  501    0  0.00000000000E+00 -0.00000000000E+00 -0.28201334436E+03  0.28201334436E+03  0.00000000000E+00 0. -1.
         23    2    1    2    0    0  0.00000000000E+00  0.00000000000E+00 -0.27457656015E+03  0.28945012857E+03  0.91591973166E+02 0.  0.
        -13    1    3    3    0    0  0.17478897850E+02  0.38923309665E+02 -0.84716880472E+02  0.94855077578E+02  0.00000000000E+00 0.  1.
         13    1    3    3    0    0 -0.17478897850E+02 -0.38923309665E+02 -0.18985967968E+03  0.19459505100E+03  0.00000000000E+00 0. -1.
<mgrwt>
<rscale>  0 0.91591973E+02</rscale>
<asrwt>0</asrwt>
<pdfrwt beam="2">  1        1 0.43386669E-01 0.91591973E+02</pdfrwt>
<pdfrwt beam="1">  1       -1 0.11441206E-02 0.91591973E+02</pdfrwt>
<totfact> 0.12508275E+05</totfact>
</mgrwt>
</event>
<event>
 5    1  0.1239369E+001  0.9087542E+02  0.7546771E-02  0.1300745E+00
         -3   -1    0    0    0  501 -0.00000000000E+00  0.00000000000E+00  0.73655086450E+02  0.73655086450E+02  0.00000000000E+00 0.  1.
          3   -1    0    0  501    0  0.00000000000E+00 -0.00000000000E+00 -0.28030455618E+02  0.28030455618E+02  0.00000000000E+00 0. -1.
         23    2    1    2    0    0  0.00000000000E+00  0.00000000000E+00  0.45624630832E+02  0.10168554207E+03  0.90875423119E+02 0.  0.
        -13    1    3    3    0    0  0.18134138307E+02 -0.38128776268E+02  0.41600608249E+02  0.59272769115E+02  0.00000000000E+00 0.  1.
         13    1    3    3    0    0 -0.18134138307E+02  0.38128776268E+02  0.40240225833E+01  0.42412772954E+02  0.00000000000E+00 0. -1.
<mgrwt>
<rscale>  0 0.90875423E+02</rscale>
<asrwt>0</asrwt>
<pdfrwt beam="2">  1        3 0.43123778E-02 0.90875423E+02</pdfrwt>
<pdfrwt beam="1">  1       -3 0.11331552E-01 0.90875423E+02</pdfrwt>
<totfact> 0.34860723E+04</totfact>
</mgrwt>
</event>
<event>
 5    1  0.1239369E+001  0.8993376E+02  0.7546771E-02  0.1303012E+00
          1   -1    0    0  501    0  0.00000000000E+00  0.00000000000E+00  0.26305609707E+03  0.26305609707E+03  0.00000000000E+00 0. -1.
         -1   -1    0    0    0  501 -0.00000000000E+00 -0.00000000000E+00 -0.76866507504E+01  0.76866507504E+01  0.00000000000E+00 0.  1.
         23    2    1    2    0    0  0.00000000000E+00  0.00000000000E+00  0.25536944632E+03  0.27074274782E+03  0.89933761090E+02 0.  0.
        -11    1    3    3    0    0  0.43982882905E+02 -0.35511756391E+01  0.10162799135E+03  0.11079419417E+03  0.00000000000E+00 0. -1.
         11    1    3    3    0    0 -0.43982882905E+02  0.35511756391E+01  0.15374145498E+03  0.15994855365E+03  0.00000000000E+00 0.  1.
<mgrwt>
<rscale>  0 0.89933761E+02</rscale>
<asrwt>0</asrwt>
<pdfrwt beam="1">  1        1 0.40470162E-01 0.89933761E+02</pdfrwt>
<pdfrwt beam="2">  1       -1 0.11825619E-02 0.89933761E+02</pdfrwt>
<totfact> 0.12956119E+05</totfact>
</mgrwt>
</event>
<event>
 5    1  0.1239369E+001  0.9154833E+02  0.7546771E-02  0.1299145E+00
          2   -1    0    0  501    0  0.00000000000E+00  0.00000000000E+00  0.20176608500E+03  0.20176608500E+03  0.00000000000E+00 0. -1.
         -2   -1    0    0    0  501 -0.00000000000E+00 -0.00000000000E+00 -0.10384670285E+02  0.10384670285E+02  0.00000000000E+00 0.  1.
         23    2    1    2    0    0  0.00000000000E+00  0.00000000000E+00  0.19138141472E+03  0.21215075529E+03  0.91548331878E+02 0.  0.
        -13    1    3    3    0    0 -0.32033433162E+02  0.77563315982E+01  0.22081207838E+02  0.39672172358E+02  0.00000000000E+00 0.  1.
         13    1    3    3    0    0  0.32033433162E+02 -0.77563315982E+01  0.16930020688E+03  0.17247858293E+03  0.00000000000E+00 0. -1.
<mgrwt>
<rscale>  0 0.91548332E+02</rscale>
<asrwt>0</asrwt>
<pdfrwt beam="1">  1        2 0.31040933E-01 0.91548332E+02</pdfrwt>
<pdfrwt beam="2">  1       -2 0.15976417E-02 0.91548332E+02</pdfrwt>
<totfact> 0.15348164E+05</totfact>
</mgrwt>
</event>
<event>
 5    1  0.1239369E+001  0.9688262E+02  0.7546771E-02  0.1286991E+00
         -2   -1    0    0    0  501 -0.00000000000E+00  0.00000000000E+00  0.11051135031E+02  0.11051135031E+02  0.00000000000E+00 0.  1.
          2   -1    0    0  501    0  0.00000000000E+00 -0.00000000000E+00 -0.21233659751E+03  0.21233659751E+03  0.00000000000E+00 0. -1.
         23    2    1    2    0    0  0.00000000000E+00  0.00000000000E+00 -0.20128546248E+03  0.22338773254E+03  0.96882617866E+02 0.  0.
        -13    1    3    3    0    0 -0.12077376882E+01 -0.44081031260E+02 -0.54414499170E+02  0.70039515041E+02  0.00000000000E+00 0.  1.
         13    1    3    3    0    0  0.12077376882E+01  0.44081031260E+02 -0.14687096331E+03  0.15334821750E+03  0.00000000000E+00 0. -1.
<mgrwt>
<rscale>  0 0.96882618E+02</rscale>
<asrwt>0</asrwt>
<pdfrwt beam="2">  1        2 0.32667167E-01 0.96882618E+02</pdfrwt>
<pdfrwt beam="1">  1       -2 0.17001747E-02 0.96882618E+02</pdfrwt>
<totfact> 0.13418484E+05</totfact>
</mgrwt>
</event>
<event>
 5    1  0.1239369E+001  0.8894448E+02  0.7546771E-02  0.1305428E+00
          2   -1    0    0  501    0  0.00000000000E+00  0.00000000000E+00  0.31819456365E+03  0.31819456365E+03  0.00000000000E+00 0. -1.
         -2   -1    0    0    0  501 -0.00000000000E+00 -0.00000000000E+00 -0.62156317676E+01  0.62156317676E+01  0.00000000000E+00 0.  1.
         23    2    1    2    0    0  0.00000000000E+00  0.00000000000E+00  0.31197893188E+03  0.32441019542E+03  0.88944482417E+02 0.  0.
        -11    1    3    3    0    0  0.17556800998E+02 -0.40755834775E+02  0.14535518437E+03  0.15197831738E+03  0.00000000000E+00 0.  1.
         11    1    3    3    0    0 -0.17556800998E+02  0.40755834775E+02  0.16662374751E+03  0.17243187804E+03  0.00000000000E+00 0. -1.
<mgrwt>
<rscale>  0 0.88944482E+02</rscale>
<asrwt>0</asrwt>
<pdfrwt beam="1">  1        2 0.48952997E-01 0.88944482E+02</pdfrwt>
<pdfrwt beam="2">  1       -2 0.95625129E-03 0.88944482E+02</pdfrwt>
<totfact> 0.19615215E+05</totfact>
</mgrwt>
</event>
<event>
 5    1  0.1239369E+001  0.9069430E+02  0.7546771E-02  0.1301179E+00
          1   -1    0    0  501    0  0.00000000000E+00  0.00000000000E+00  0.30663654211E+02  0.30663654211E+02  0.00000000000E+00 0. -1.
         -1   -1    0    0    0  501 -0.00000000000E+00 -0.00000000000E+00 -0.67061937373E+02  0.67061937373E+02  0.00000000000E+00 0.  1.
         23    2    1    2    0    0  0.00000000000E+00  0.00000000000E+00 -0.36398283162E+02  0.97725591584E+02  0.90694300997E+02 0.  0.
        -13    1    3    3    0    0  0.87291927377E+01  0.41829623161E+02 -0.34556556405E+02  0.54955179649E+02  0.00000000000E+00 0. -1.
         13    1    3    3    0    0 -0.87291927377E+01 -0.41829623161E+02 -0.18417267573E+01  0.42770411935E+02  0.00000000000E+00 0.  1.
<mgrwt>
<rscale>  0 0.90694301E+02</rscale>
<asrwt>0</asrwt>
<pdfrwt beam="1">  1        1 0.47174853E-02 0.90694301E+02</pdfrwt>
<pdfrwt beam="2">  1       -1 0.10317221E-01 0.90694301E+02</pdfrwt>
<totfact> 0.88322462E+04</totfact>
</mgrwt>
</event>
<event>
 5    1  0.1239369E+001  0.9096666E+02  0.7546771E-02  0.1300528E+00
         -1   -1    0    0    0  501 -0.00000000000E+00  0.00000000000E+00  0.64328834986E+01  0.64328834986E+01  0.00000000000E+00 0.  1.
          1   -1    0    0  501    0  0.00000000000E+00 -0.00000000000E+00 -0.32158728275E+03  0.32158728275E+03  0.00000000000E+00 0. -1.
         23    2    1    2    0    0  0.00000000000E+00  0.00000000000E+00 -0.31515439925E+03  0.32802016625E+03  0.90966664764E+02 0.  0.
        -13    1    3    3    0    0  0.16729656995E+02 -0.38288468353E+02 -0.92786077486E+02  0.10176022999E+03  0.00000000000E+00 0.  1.
         13    1    3    3    0    0 -0.16729656995E+02  0.38288468353E+02 -0.22236832177E+03  0.22625993626E+03  0.00000000000E+00 0. -1.
<mgrwt>
<rscale>  0 0.90966665E+02</rscale>
<asrwt>0</asrwt>
<pdfrwt beam="2">  1        1 0.49474957E-01 0.90966665E+02</pdfrwt>
<pdfrwt beam="1">  1       -1 0.98967457E-03 0.90966665E+02</pdfrwt>
<totfact> 0.13061104E+05</totfact>
</mgrwt>
</event>
<event>
 5    1  0.1239369E+001  0.9040301E+02  0.7546771E-02  0.1301879E+00
         -1   -1    0    0    0  501 -0.00000000000E+00  0.00000000000E+00  0.10085424982E+03  0.10085424982E+03  0.00000000000E+00 0.  1.
          1   -1    0    0  501    0  0.00000000000E+00 -0.00000000000E+00 -0.20258701845E+02  0.20258701845E+02  0.00000000000E+00 0. -1.
         23    2    1    2    0    0  0.00000000000E+00  0.00000000000E+00  0.80595547970E+02  0.12111295166E+03  0.90403012711E+02 0.  0.
        -11    1    3    3    0    0 -0.21927083500E+02  0.19276222230E+02  0.86528240142E+02  0.91320896164E+02  0.00000000000E+00 0.  1.
         11    1    3    3    0    0  0.21927083500E+02 -0.19276222230E+02 -0.59326921713E+01  0.29792055496E+02  0.00000000000E+00 0. -1.
<mgrwt>
<rscale>  0 0.90403013E+02</rscale>
<asrwt>0</asrwt>
<pdfrwt beam="2">  1        1 0.31167234E-02 0.90403013E+02</pdfrwt>
<pdfrwt beam="1">  1       -1 0.15516038E-01 0.90403013E+02</pdfrwt>
<totfact> 0.83043494E+04</totfact>
</mgrwt>
</event>
<event>
 5    1  0.1239369E+001  0.9135199E+02  0.7546771E-02  0.1299610E+00
         -2   -1    0    0    0  501 -0.00000000000E+00  0.00000000000E+00  0.16063741449E+03  0.16063741449E+03  0.00000000000E+00 0.  1.
          2   -1    0    0  501    0  0.00000000000E+00 -0.00000000000E+00 -0.12987613810E+02  0.12987613810E+02  0.00000000000E+00 0. -1.
         23    2    1    2    0    0  0.00000000000E+00  0.00000000000E+00  0.14764980068E+03  0.17362502830E+03  0.91351994019E+02 0.  0.
        -13    1    3    3    0    0  0.19914606616E+02 -0.35842982427E+02  0.35576421055E+02  0.54286210782E+02  0.00000000000E+00 0.  1.
         13    1    3    3    0    0 -0.19914606616E+02  0.35842982427E+02  0.11207337963E+03  0.11933881752E+03  0.00000000000E+00 0. -1.
<mgrwt>
<rscale>  0 0.91351994E+02</rscale>
<asrwt>0</asrwt>
<pdfrwt beam="2">  1        2 0.19980945E-02 0.91351994E+02</pdfrwt>
<pdfrwt beam="1">  1       -2 0.24713447E-01 0.91351994E+02</pdfrwt>
<totfact> 0.67771326E+04</totfact>
</mgrwt>
</event>
<event>
 5    1  0.1239369E+001  0.8811060E+02  0.7546771E-02  0.1307493E+00
          1   -1    0    0  501    0  0.00000000000E+00  0.00000000000E+00  0.19265726614E+03  0.19265726614E+03  0.00000000000E+00 0.  1.
         -1   -1    0    0    0  501 -0.00000000000E+00 -0.00000000000E+00 -0.10074208770E+02  0.10074208770E+02  0.00000000000E+00 0. -1.
         23    2    1    2    0    0  0.00000000000E+00  0.00000000000E+00  0.18258305737E+03  0.20273147491E+03  0.88110601410E+02 0.  0.
        -11    1    3    3    0    0  0.32290742806E+02  0.19946160582E+02  0.14275753556E+03  0.14771680796E+03  0.00000000000E+00 0.  1.
         11    1    3    3    0    0 -0.32290742806E+02 -0.19946160582E+02  0.39825521812E+02  0.55014666958E+02  0.00000000000E+00 0. -1.
<mgrwt>
<rscale>  0 0.88110601E+02</rscale>
<asrwt>0</asrwt>
<pdfrwt beam="1">  1        1 0.29639577E-01 0.88110601E+02</pdfrwt>
<pdfrwt beam="2">  1       -1 0.15498784E-02 0.88110601E+02</pdfrwt>
<totfact> 0.12882426E+05</totfact>
</mgrwt>
</event>
<event>
 5    1  0.1239369E+001  0.9347155E+02  0.7546771E-02  0.1294656E+00
         -2   -1    0    0    0  501 -0.00000000000E+00  0.00000000000E+00  0.28532719881E+02  0.28532719881E+02  0.00000000000E+00 0.  1.
          2   -1    0    0  501    0  0.00000000000E+00 -0.00000000000E+00 -0.76551850467E+02  0.76551850467E+02  0.00000000000E+00 0. -1.
         23    2    1    2    0    0  0.00000000000E+00  0.00000000000E+00 -0.48019130586E+02  0.10508457035E+03  0.93471546595E+02 0.  0.
        -11    1    3    3    0    0 -0.24638274060E+01 -0.43426651592E+02 -0.43230079886E+02  0.61325233966E+02  0.00000000000E+00 0. -1.
         11    1    3    3    0    0  0.24638274060E+01  0.43426651592E+02 -0.47890507001E+01  0.43759336382E+02  0.00000000000E+00 0.  1.
<mgrwt>
<rscale>  0 0.93471547E+02</rscale>
<asrwt>0</asrwt>
<pdfrwt beam="2">  1        2 0.11777208E-01 0.93471547E+02</pdfrwt>
<pdfrwt beam="1">  1       -2 0.43896493E-02 0.93471547E+02</pdfrwt>
<totfact> 0.10581686E+05</totfact>
</mgrwt>
</event>
<event>
 5    1  0.1239369E+001  0.8990338E+02  0.7546771E-02  0.1303086E+00
         -2   -1    0    0    0  501 -0.00000000000E+00  0.00000000000E+00  0.29581624344E+03  0.29581624344E+03  0.00000000000E+00 0.  1.
          2   -1    0    0  501    0  0.00000000000E+00 -0.00000000000E+00 -0.68307756206E+01  0.68307756206E+01  0.00000000000E+00 0. -1.
         23    2    1    2    0    0  0.00000000000E+00  0.00000000000E+00  0.28898546782E+03  0.30264701906E+03  0.89903378888E+02 0.  0.
        -11    1    3    3    0    0 -0.40270000234E+02 -0.58905395924E+01  0.20874372682E+03  0.21267419887E+03  0.00000000000E+00 0. -1.
         11    1    3    3    0    0  0.40270000234E+02  0.58905395924E+01  0.80241740995E+02  0.89972820192E+02  0.00000000000E+00 0.  1.
<mgrwt>
<rscale>  0 0.89903379E+02</rscale>
<asrwt>0</asrwt>
<pdfrwt beam="2">  1        2 0.10508888E-02 0.89903379E+02</pdfrwt>
<pdfrwt beam="1">  1       -2 0.45510181E-01 0.89903379E+02</pdfrwt>
<totfact> 0.53297587E+04</totfact>
</mgrwt>
</event>
<event>
 5    1  0.1239369E+001  0.9059706E+02  0.7546771E-02  0.1301412E+00
          1   -1    0    0  501    0  0.00000000000E+00  0.00000000000E+00  0.17315600601E+03  0.17315600601E+03  0.00000000000E+00 0. -1.
         -1   -1    0    0    0  501 -0.00000000000E+00 -0.00000000000E+00 -0.11850335946E+02  0.11850335946E+02  0.00000000000E+00 0.  1.
         23    2    1    2    0    0  0.00000000000E+00  0.00000000000E+00  0.16130567006E+03  0.18500634195E+03  0.90597060487E+02 0.  0.
        -11    1    3    3    0    0 -0.38979890220E+02  0.47565653533E+01  0.34540718966E+02  0.52298355827E+02  0.00000000000E+00 0.  1.
         11    1    3    3    0    0  0.38979890220E+02 -0.47565653533E+01  0.12676495109E+03  0.13270798613E+03  0.00000000000E+00 0. -1.
<mgrwt>
<rscale>  0 0.90597060E+02</rscale>
<asrwt>0</asrwt>
<pdfrwt beam="1">  1        1 0.26639384E-01 0.90597060E+02</pdfrwt>
<pdfrwt beam="2">  1       -1 0.18231287E-02 0.90597060E+02</pdfrwt>
<totfact> 0.11716568E+05</totfact>
</mgrwt>
</event>
<event>
 5    1  0.1239369E+001  0.9079363E+02  0.7546771E-02  0.1300941E+00
          2   -1    0    0  501    0  0.00000000000E+00  0.00000000000E+00  0.15414111205E+03  0.15414111205E+03  0.00000000000E+00 0. -1.
         -2   -1    0    0    0  501 -0.00000000000E+00 -0.00000000000E+00 -0.13370025939E+02  0.13370025939E+02  0.00000000000E+00 0.  1.
         23    2    1    2    0    0  0.00000000000E+00  0.00000000000E+00  0.14077108611E+03  0.16751113799E+03  0.90793626789E+02 0.  0.
        -11    1    3    3    0    0  0.14828788325E+02 -0.30628161452E+02  0.12582341753E+03  0.13034381319E+03  0.00000000000E+00 0.  1.
         11    1    3    3    0    0 -0.14828788325E+02  0.30628161452E+02  0.14947668585E+02  0.37167324806E+02  0.00000000000E+00 0. -1.
<mgrwt>
<rscale>  0 0.90793627E+02</rscale>
<asrwt>0</asrwt>
<pdfrwt beam="1">  1        2 0.23714016E-01 0.90793627E+02</pdfrwt>
<pdfrwt beam="2">  1       -2 0.20569272E-02 0.90793627E+02</pdfrwt>
<totfact> 0.14273530E+05</totfact>
</mgrwt>
</event>
<event>
 5    1  0.1239369E+001  0.9187511E+02  0.7546771E-02  0.1298373E+00
         -2   -1    0    0    0  501 -0.00000000000E+00  0.00000000000E+00  0.64435174804E+01  0.64435174804E+01  0.00000000000E+00 0.  1.
          2   -1    0    0  501    0  0.00000000000E+00 -0.00000000000E+00 -0.32750111216E+03  0.32750111216E+03  0.00000000000E+00 0. -1.
         23    2    1    2    0    0  0.00000000000E+00  0.00000000000E+00 -0.32105759468E+03  0.33394462964E+03  0.91875113955E+02 0.  0.
        -11    1    3    3    0    0 -0.33999352779E+02  0.28516572698E+02 -0.11735176887E+03  0.12546150232E+03  0.00000000000E+00 0.  1.
         11    1    3    3    0    0  0.33999352779E+02 -0.28516572698E+02 -0.20370582580E+03  0.20848312731E+03  0.00000000000E+00 0. -1.
<mgrwt>
<rscale>  0 0.91875114E+02</rscale>
<asrwt>0</asrwt>
<pdfrwt beam="2">  1        2 0.50384786E-01 0.91875114E+02</pdfrwt>
<pdfrwt beam="1">  1       -2 0.99131038E-03 0.91875114E+02</pdfrwt>
<totfact> 0.18186676E+05</totfact>
</mgrwt>
</event>
<event>
 5    1  0.1239369E+001  0.9092487E+02  0.7546771E-02  0.1300627E+00
          2   -1    0    0  501    0  0.00000000000E+00  0.00000000000E+00  0.33082555514E+02  0.33082555514E+02  0.00000000000E+00 0. -1.
         -2   -1    0    0    0  501 -0.00000000000E+00 -0.00000000000E+00 -0.62475010618E+02  0.62475010618E+02  0.00000000000E+00 0.  1.
         23    2    1    2    0    0  0.00000000000E+00  0.00000000000E+00 -0.29392455104E+02  0.95557566132E+02  0.90924870239E+02 0.  0.
        -13    1    3    3    0    0  0.17458740072E+02 -0.53234136996E+01  0.29062803260E+02  0.34318987043E+02  0.00000000000E+00 0. -1.
         13    1    3    3    0    0 -0.17458740072E+02  0.53234136996E+01 -0.58455258364E+02  0.61238579088E+02  0.00000000000E+00 0.  1.
<mgrwt>
<rscale>  0 0.90924870E+02</rscale>
<asrwt>0</asrwt>
<pdfrwt beam="1">  1        2 0.50896240E-02 0.90924870E+02</pdfrwt>
<pdfrwt beam="2">  1       -2 0.96115400E-02 0.90924870E+02</pdfrwt>
<totfact> 0.91529512E+04</totfact>
</mgrwt>
</event>
<event>
 5    1  0.1239369E+001  0.6569286E+02  0.7546771E-02  0.1375384E+00
          3   -1    0    0  501    0  0.00000000000E+00  0.00000000000E+00  0.29085354647E+02  0.29085354647E+02  0.00000000000E+00 0. -1.
         -3   -1    0    0    0  501 -0.00000000000E+00 -0.00000000000E+00 -0.37093856844E+02  0.37093856844E+02  0.00000000000E+00 0.  1.
         23    2    1    2    0    0  0.00000000000E+00  0.00000000000E+00 -0.80085021969E+01  0.66179211491E+02  0.65692860542E+02 0.  0.
        -13    1    3    3    0    0  0.21399663688E+02 -0.15015145420E+02  0.16029854174E+02  0.30665231498E+02  0.00000000000E+00 0. -1.
         13    1    3    3    0    0 -0.21399663688E+02  0.15015145420E+02 -0.24038356371E+02  0.35513979994E+02  0.00000000000E+00 0.  1.
<mgrwt>
<rscale>  0 0.65692861E+02</rscale>
<asrwt>0</asrwt>
<pdfrwt beam="1">  1        3 0.44746700E-02 0.65692861E+02</pdfrwt>
<pdfrwt beam="2">  1       -3 0.57067472E-02 0.65692861E+02</pdfrwt>
<totfact> 0.89860090E+04</totfact>
</mgrwt>
</event>
<event>
 5    1  0.1239369E+001  0.8727329E+02  0.7546771E-02  0.1309592E+00
         -4   -1    0    0    0  501 -0.00000000000E+00  0.00000000000E+00  0.14482916435E+03  0.14482916435E+03  0.00000000000E+00 0.  1.
          4   -1    0    0  501    0  0.00000000000E+00 -0.00000000000E+00 -0.13147607449E+02  0.13147607449E+02  0.00000000000E+00 0. -1.
         23    2    1    2    0    0  0.00000000000E+00  0.00000000000E+00  0.13168155690E+03  0.15797677180E+03  0.87273294884E+02 0.  0.
        -11    1    3    3    0    0 -0.47593164708E+01  0.37197393847E+02  0.10622999152E+03  0.11265481925E+03  0.00000000000E+00 0. -1.
         11    1    3    3    0    0  0.47593164708E+01 -0.37197393847E+02  0.25451565379E+02  0.45321952545E+02  0.00000000000E+00 0.  1.
<mgrwt>
<rscale>  0 0.87273295E+02</rscale>
<asrwt>0</asrwt>
<pdfrwt beam="2">  1        4 0.20227089E-02 0.87273295E+02</pdfrwt>
<pdfrwt beam="1">  1       -4 0.22281409E-01 0.87273295E+02</pdfrwt>
<totfact> 0.26170666E+04</totfact>
</mgrwt>
</event>
<event>
 5    1  0.1239369E+001  0.9177562E+02  0.7546771E-02  0.1298608E+00
          2   -1    0    0  501    0  0.00000000000E+00  0.00000000000E+00  0.47073978693E+02  0.47073978693E+02  0.00000000000E+00 0. -1.
         -2   -1    0    0    0  501 -0.00000000000E+00 -0.00000000000E+00 -0.44731527454E+02  0.44731527454E+02  0.00000000000E+00 0.  1.
         23    2    1    2    0    0  0.00000000000E+00  0.00000000000E+00  0.23424512389E+01  0.91805506147E+02  0.91775617029E+02 0.  0.
        -13    1    3    3    0    0  0.42062938623E+02  0.11121764333E+02 -0.13417985881E+02  0.45530503979E+02  0.00000000000E+00 0.  1.
         13    1    3    3    0    0 -0.42062938623E+02 -0.11121764333E+02  0.15760437120E+02  0.46275002168E+02  0.00000000000E+00 0. -1.
<mgrwt>
<rscale>  0 0.91775617E+02</rscale>
<asrwt>0</asrwt>
<pdfrwt beam="1">  1        2 0.72421506E-02 0.91775617E+02</pdfrwt>
<pdfrwt beam="2">  1       -2 0.68817735E-02 0.91775617E+02</pdfrwt>
<totfact> 0.97649521E+04</totfact>
</mgrwt>
</event>
<event>
 5    1  0.1239369E+001  0.9035145E+02  0.7546771E-02  0.1302003E+00
          2   -1    0    0  501    0  0.00000000000E+00  0.00000000000E+00  0.10176137465E+03  0.10176137465E+03  0.00000000000E+00 0. -1.
         -2   -1    0    0    0  501 -0.00000000000E+00 -0.00000000000E+00 -0.20055215948E+02  0.20055215948E+02  0.00000000000E+00 0.  1.
         23    2    1    2    0    0  0.00000000000E+00  0.00000000000E+00  0.81706158702E+02  0.12181659060E+03  0.90351454748E+02 0.  0.
        -11    1    3    3    0    0  0.40030346953E+02  0.20723461485E+02  0.36818263277E+02  0.58202019242E+02  0.00000000000E+00 0.  1.
         11    1    3    3    0    0 -0.40030346953E+02 -0.20723461485E+02  0.44887895425E+02  0.63614571356E+02  0.00000000000E+00 0. -1.
<mgrwt>
<rscale>  0 0.90351455E+02</rscale>
<asrwt>0</asrwt>
<pdfrwt beam="1">  1        2 0.15655596E-01 0.90351455E+02</pdfrwt>
<pdfrwt beam="2">  1       -2 0.30854179E-02 0.90351455E+02</pdfrwt>
<totfact> 0.12645215E+05</totfact>
</mgrwt>
</event>
<event>
 5    1  0.1239369E+001  0.9019897E+02  0.7546771E-02  0.1302371E+00
         -4   -1    0    0    0  501 -0.00000000000E+00  0.00000000000E+00  0.28356501597E+03  0.28356501597E+03  0.00000000000E+00 0.  1.
          4   -1    0    0  501    0  0.00000000000E+00 -0.00000000000E+00 -0.71728303442E+01  0.71728303442E+01  0.00000000000E+00 0. -1.
         23    2    1    2    0    0  0.00000000000E+00  0.00000000000E+00  0.27639218563E+03  0.29073784632E+03  0.90198974520E+02 0.  0.
        -13    1    3    3    0    0  0.36264460489E+02  0.26622739164E+02  0.12796122415E+03  0.13563906598E+03  0.00000000000E+00 0. -1.
         13    1    3    3    0    0 -0.36264460489E+02 -0.26622739164E+02  0.14843096148E+03  0.15509878033E+03  0.00000000000E+00 0.  1.
<mgrwt>
<rscale>  0 0.90198975E+02</rscale>
<asrwt>0</asrwt>
<pdfrwt beam="2">  1        4 0.11035126E-02 0.90198975E+02</pdfrwt>
<pdfrwt beam="1">  1       -4 0.43625378E-01 0.90198975E+02</pdfrwt>
<totfact> 0.18632155E+04</totfact>
</mgrwt>
</event>
<event>
 5    1  0.1239369E+001  0.9067245E+02  0.7546771E-02  0.1301231E+00
          2   -1    0    0  501    0  0.00000000000E+00  0.00000000000E+00  0.46810529667E+02  0.46810529667E+02  0.00000000000E+00 0. -1.
         -2   -1    0    0    0  501 -0.00000000000E+00 -0.00000000000E+00 -0.43908348950E+02  0.43908348950E+02  0.00000000000E+00 0.  1.
         23    2    1    2    0    0  0.00000000000E+00  0.00000000000E+00  0.29021807172E+01  0.90718878617E+02  0.90672445013E+02 0.  0.
        -11    1    3    3    0    0 -0.18764471071E+02  0.39574668083E+02  0.13166627514E+02  0.45734230163E+02  0.00000000000E+00 0.  1.
         11    1    3    3    0    0  0.18764471071E+02 -0.39574668083E+02 -0.10264446797E+02  0.44984648454E+02  0.00000000000E+00 0. -1.
<mgrwt>
<rscale>  0 0.90672445E+02</rscale>
<asrwt>0</asrwt>
<pdfrwt beam="1">  1        2 0.72016200E-02 0.90672445E+02</pdfrwt>
<pdfrwt beam="2">  1       -2 0.67551306E-02 0.90672445E+02</pdfrwt>
<totfact> 0.10094497E+05</totfact>
</mgrwt>
</event>
<event>
 5    1  0.1239369E+001  0.9012473E+02  0.7546771E-02  0.1302550E+00
          1   -1    0    0  501    0  0.00000000000E+00  0.00000000000E+00  0.93589290748E+01  0.93589290748E+01  0.00000000000E+00 0. -1.
         -1   -1    0    0    0  501 -0.00000000000E+00 -0.00000000000E+00 -0.21697106722E+03  0.21697106722E+03  0.00000000000E+00 0.  1.
         23    2    1    2    0    0  0.00000000000E+00  0.00000000000E+00 -0.20761213814E+03  0.22632999629E+03  0.90124731997E+02 0.  0.
        -13    1    3    3    0    0 -0.31035423407E+02  0.31623830018E+02 -0.83196181166E+02  0.94259581431E+02  0.00000000000E+00 0. -1.
         13    1    3    3    0    0  0.31035423407E+02 -0.31623830018E+02 -0.12441595698E+03  0.13207041486E+03  0.00000000000E+00 0.  1.
<mgrwt>
<rscale>  0 0.90124732E+02</rscale>
<asrwt>0</asrwt>
<pdfrwt beam="1">  1        1 0.14398353E-02 0.90124732E+02</pdfrwt>
<pdfrwt beam="2">  1       -1 0.33380163E-01 0.90124732E+02</pdfrwt>
<totfact> 0.69858325E+04</totfact>
</mgrwt>
</event>
<event>
 5    1  0.1239369E+001  0.8959173E+02  0.7546771E-02  0.1303843E+00
          4   -1    0    0  501    0  0.00000000000E+00  0.00000000000E+00  0.29704312166E+02  0.29704312166E+02  0.00000000000E+00 0. -1.
         -4   -1    0    0    0  501 -0.00000000000E+00 -0.00000000000E+00 -0.67554819453E+02  0.67554819453E+02  0.00000000000E+00 0.  1.
         23    2    1    2    0    0  0.00000000000E+00  0.00000000000E+00 -0.37850507287E+02  0.97259131618E+02  0.89591728308E+02 0.  0.
        -13    1    3    3    0    0 -0.27297659330E+02  0.19850134099E+02 -0.50898892288E+02  0.61072802988E+02  0.00000000000E+00 0.  1.
         13    1    3    3    0    0  0.27297659330E+02 -0.19850134099E+02  0.13048385002E+02  0.36186328631E+02  0.00000000000E+00 0. -1.
<mgrwt>
<rscale>  0 0.89591728E+02</rscale>
<asrwt>0</asrwt>
<pdfrwt beam="1">  1        4 0.45698943E-02 0.89591728E+02</pdfrwt>
<pdfrwt beam="2">  1       -4 0.10393049E-01 0.89591728E+02</pdfrwt>
<totfact> 0.27922117E+04</totfact>
</mgrwt>
</event>
<event>
 5    1  0.1239369E+001  0.9183974E+02  0.7546771E-02  0.1298457E+00
         -2   -1    0    0    0  501 -0.00000000000E+00  0.00000000000E+00  0.13890095712E+03  0.13890095712E+03  0.00000000000E+00 0.  1.
          2   -1    0    0  501    0  0.00000000000E+00 -0.00000000000E+00 -0.15180847585E+02  0.15180847585E+02  0.00000000000E+00 0. -1.
         23    2    1    2    0    0  0.00000000000E+00  0.00000000000E+00  0.12372010954E+03  0.15408180471E+03  0.91839735615E+02 0.  0.
        -13    1    3    3    0    0 -0.25819961648E+02  0.29976696416E+02  0.22752094250E+02  0.45639133869E+02  0.00000000000E+00 0. -1.
         13    1    3    3    0    0  0.25819961648E+02 -0.29976696416E+02  0.10096801529E+03  0.10844267084E+03  0.00000000000E+00 0.  1.
<mgrwt>
<rscale>  0 0.91839736E+02</rscale>
<asrwt>0</asrwt>
<pdfrwt beam="2">  1        2 0.23355151E-02 0.91839736E+02</pdfrwt>
<pdfrwt beam="1">  1       -2 0.21369377E-01 0.91839736E+02</pdfrwt>
<totfact> 0.70495082E+04</totfact>
</mgrwt>
</event>
<event>
 5    1  0.1239369E+001  0.9178388E+02  0.7546771E-02  0.1298588E+00
          3   -1    0    0  501    0  0.00000000000E+00  0.00000000000E+00  0.68727158383E+02  0.68727158383E+02  0.00000000000E+00 0. -1.
         -3   -1    0    0    0  501 -0.00000000000E+00 -0.00000000000E+00 -0.30643927917E+02  0.30643927917E+02  0.00000000000E+00 0.  1.
         23    2    1    2    0    0  0.00000000000E+00  0.00000000000E+00  0.38083230466E+02  0.99371086300E+02  0.91783878485E+02 0.  0.
        -13    1    3    3    0    0 -0.42298289678E+02 -0.14480546422E+02  0.30253254210E+02  0.53982320482E+02  0.00000000000E+00 0. -1.
         13    1    3    3    0    0  0.42298289678E+02  0.14480546422E+02  0.78299762566E+01  0.45388765818E+02  0.00000000000E+00 0.  1.
<mgrwt>
<rscale>  0 0.91783878E+02</rscale>
<asrwt>0</asrwt>
<pdfrwt beam="1">  1        3 0.10573409E-01 0.91783878E+02</pdfrwt>
<pdfrwt beam="2">  1       -3 0.47144505E-02 0.91783878E+02</pdfrwt>
<totfact> 0.34094943E+04</totfact>
</mgrwt>
</event>
<event>
 5    1  0.1239369E+001  0.8717341E+02  0.7546771E-02  0.1309845E+00
         -1   -1    0    0    0  501 -0.00000000000E+00  0.00000000000E+00  0.48580256068E+02  0.48580256068E+02  0.00000000000E+00 0.  1.
          1   -1    0    0  501    0  0.00000000000E+00 -0.00000000000E+00 -0.39106441717E+02  0.39106441717E+02  0.00000000000E+00 0. -1.
         23    2    1    2    0    0  0.00000000000E+00  0.00000000000E+00  0.94738143508E+01  0.87686697784E+02  0.87173412288E+02 0.  0.
        -13    1    3    3    0    0  0.16568941034E+02  0.26356640027E+02 -0.25948428830E+02  0.40528054966E+02  0.00000000000E+00 0. -1.
         13    1    3    3    0    0 -0.16568941034E+02 -0.26356640027E+02  0.35422243181E+02  0.47158642819E+02  0.00000000000E+00 0.  1.
<mgrwt>
<rscale>  0 0.87173412E+02</rscale>
<asrwt>0</asrwt>
<pdfrwt beam="2">  1        1 0.60163757E-02 0.87173412E+02</pdfrwt>
<pdfrwt beam="1">  1       -1 0.74738855E-02 0.87173412E+02</pdfrwt>
<totfact> 0.10252481E+05</totfact>
</mgrwt>
</event>
<event>
 5    1  0.1239369E+001  0.8464119E+02  0.7546771E-02  0.1316374E+00
         -2   -1    0    0    0  501 -0.00000000000E+00  0.00000000000E+00  0.89547702383E+01  0.89547702383E+01  0.00000000000E+00 0. -1.
          2   -1    0    0  501    0  0.00000000000E+00 -0.00000000000E+00 -0.20000878984E+03  0.20000878984E+03  0.00000000000E+00 0.  1.
         23    2    1    2    0    0  0.00000000000E+00  0.00000000000E+00 -0.19105401960E+03  0.20896356007E+03  0.84641189940E+02 0.  0.
        -11    1    3    3    0    0  0.12841306553E+02 -0.36219814744E+02 -0.13929256085E+03  0.14449633781E+03  0.00000000000E+00 0.  1.
         11    1    3    3    0    0 -0.12841306553E+02  0.36219814744E+02 -0.51761458750E+02  0.64467222260E+02  0.00000000000E+00 0. -1.
<mgrwt>
<rscale>  0 0.84641190E+02</rscale>
<asrwt>0</asrwt>
<pdfrwt beam="2">  1        2 0.30770581E-01 0.84641190E+02</pdfrwt>
<pdfrwt beam="1">  1       -2 0.13776570E-02 0.84641190E+02</pdfrwt>
<totfact> 0.18878814E+05</totfact>
</mgrwt>
</event>
<event>
 5    1  0.1239369E+001  0.8990486E+02  0.7546771E-02  0.1303082E+00
         -2   -1    0    0    0  501 -0.00000000000E+00  0.00000000000E+00  0.20918536740E+02  0.20918536740E+02  0.00000000000E+00 0.  1.
          2   -1    0    0  501    0  0.00000000000E+00 -0.00000000000E+00 -0.96599529660E+02  0.96599529660E+02  0.00000000000E+00 0. -1.
         23    2    1    2    0    0  0.00000000000E+00  0.00000000000E+00 -0.75680992920E+02  0.11751806640E+03  0.89904856605E+02 0.  0.
        -13    1    3    3    0    0 -0.35878108823E+02 -0.26830348204E+02 -0.42663558588E+02  0.61865058869E+02  0.00000000000E+00 0. -1.
         13    1    3    3    0    0  0.35878108823E+02  0.26830348204E+02 -0.33017434331E+02  0.55653007531E+02  0.00000000000E+00 0.  1.
<mgrwt>
<rscale>  0 0.89904857E+02</rscale>
<asrwt>0</asrwt>
<pdfrwt beam="2">  1        2 0.14861466E-01 0.89904857E+02</pdfrwt>
<pdfrwt beam="1">  1       -2 0.32182365E-02 0.89904857E+02</pdfrwt>
<totfact> 0.12618207E+05</totfact>
</mgrwt>
</event>
<event>
 5    1  0.1239369E+001  0.9527292E+02  0.7546771E-02  0.1290563E+00
          2   -1    0    0  501    0  0.00000000000E+00  0.00000000000E+00  0.13151994124E+03  0.13151994124E+03  0.00000000000E+00 0. -1.
         -2   -1    0    0    0  501 -0.00000000000E+00 -0.00000000000E+00 -0.17253904502E+02  0.17253904502E+02  0.00000000000E+00 0.  1.
         23    2    1    2    0    0  0.00000000000E+00  0.00000000000E+00  0.11426603673E+03  0.14877384574E+03  0.95272923881E+02 0.  0.
        -11    1    3    3    0    0 -0.21609729863E+02  0.39327659184E+02  0.82097740394E+02  0.93561125364E+02  0.00000000000E+00 0. -1.
         11    1    3    3    0    0  0.21609729863E+02 -0.39327659184E+02  0.32168296339E+02  0.55212720373E+02  0.00000000000E+00 0.  1.
<mgrwt>
<rscale>  0 0.95272924E+02</rscale>
<asrwt>0</asrwt>
<pdfrwt beam="1">  1        2 0.20233836E-01 0.95272924E+02</pdfrwt>
<pdfrwt beam="2">  1       -2 0.26544469E-02 0.95272924E+02</pdfrwt>
<totfact> 0.11863573E+05</totfact>
</mgrwt>
</event>
<event>
 5    1  0.1239369E+001  0.9078534E+02  0.7546771E-02  0.1300961E+00
         -1   -1    0    0    0  501 -0.00000000000E+00  0.00000000000E+00  0.93095620245E+02  0.93095620245E+02  0.00000000000E+00 0.  1.
          1   -1    0    0  501    0  0.00000000000E+00 -0.00000000000E+00 -0.22133099527E+02  0.22133099527E+02  0.00000000000E+00 0. -1.
         23    2    1    2    0    0  0.00000000000E+00  0.00000000000E+00  0.70962520718E+02  0.11522871977E+03  0.90785343056E+02 0.  0.
        -11    1    3    3    0    0  0.11474112944E+02  0.33005388736E+02  0.72256128590E+02  0.80261815780E+02  0.00000000000E+00 0.  1.
         11    1    3    3    0    0 -0.11474112944E+02 -0.33005388736E+02 -0.12936078724E+01  0.34966903992E+02  0.00000000000E+00 0. -1.
<mgrwt>
<rscale>  0 0.90785343E+02</rscale>
<asrwt>0</asrwt>
<pdfrwt beam="2">  1        1 0.34050923E-02 0.90785343E+02</pdfrwt>
<pdfrwt beam="1">  1       -1 0.14322403E-01 0.90785343E+02</pdfrwt>
<totfact> 0.83359143E+04</totfact>
</mgrwt>
</event>
<event>
 5    1  0.1239369E+001  0.8989429E+02  0.7546771E-02  0.1303108E+00
         -1   -1    0    0    0  501 -0.00000000000E+00  0.00000000000E+00  0.30299971768E+02  0.30299971768E+02  0.00000000000E+00 0.  1.
          1   -1    0    0  501    0  0.00000000000E+00 -0.00000000000E+00 -0.66674835792E+02  0.66674835792E+02  0.00000000000E+00 0. -1.
         23    2    1    2    0    0  0.00000000000E+00  0.00000000000E+00 -0.36374864024E+02  0.96974807560E+02  0.89894285517E+02 0.  0.
        -13    1    3    3    0    0 -0.39879056373E+02  0.20128911835E+02 -0.23552421414E+02  0.50499789934E+02  0.00000000000E+00 0. -1.
         13    1    3    3    0    0  0.39879056373E+02 -0.20128911835E+02 -0.12822442610E+02  0.46475017626E+02  0.00000000000E+00 0.  1.
<mgrwt>
<rscale>  0 0.89894286E+02</rscale>
<asrwt>0</asrwt>
<pdfrwt beam="2">  1        1 0.10257667E-01 0.89894286E+02</pdfrwt>
<pdfrwt beam="1">  1       -1 0.46615342E-02 0.89894286E+02</pdfrwt>
<totfact> 0.10183299E+05</totfact>
</mgrwt>
</event>
<event>
 5    1  0.1239369E+001  0.8956617E+02  0.7546771E-02  0.1303906E+00
         -2   -1    0    0    0  501 -0.00000000000E+00  0.00000000000E+00  0.24286996555E+02  0.24286996555E+02  0.00000000000E+00 0.  1.
          2   -1    0    0  501    0  0.00000000000E+00 -0.00000000000E+00 -0.82576069824E+02  0.82576069824E+02  0.00000000000E+00 0. -1.
         23    2    1    2    0    0  0.00000000000E+00  0.00000000000E+00 -0.58289073269E+02  0.10686306638E+03  0.89566170473E+02 0.  0.
        -13    1    3    3    0    0 -0.12584068923E+02  0.35862481811E+02 -0.57405291859E+02  0.68846524427E+02  0.00000000000E+00 0.  1.
         13    1    3    3    0    0  0.12584068923E+02 -0.35862481811E+02 -0.88378141011E+00  0.38016541951E+02  0.00000000000E+00 0. -1.
<mgrwt>
<rscale>  0 0.89566170E+02</rscale>
<asrwt>0</asrwt>
<pdfrwt beam="2">  1        2 0.12704011E-01 0.89566170E+02</pdfrwt>
<pdfrwt beam="1">  1       -2 0.37364610E-02 0.89566170E+02</pdfrwt>
<totfact> 0.12177026E+05</totfact>
</mgrwt>
</event>
<event>
 5    1  0.1239369E+001  0.9045551E+02  0.7546771E-02  0.1301752E+00
         -1   -1    0    0    0  501 -0.00000000000E+00  0.00000000000E+00  0.64259717986E+01  0.64259717986E+01  0.00000000000E+00 0.  1.
          1   -1    0    0  501    0  0.00000000000E+00 -0.00000000000E+00 -0.31832535998E+03  0.31832535998E+03  0.00000000000E+00 0. -1.
         23    2    1    2    0    0  0.00000000000E+00  0.00000000000E+00 -0.31189938818E+03  0.32475133178E+03  0.90455509197E+02 0.  0.
        -11    1    3    3    0    0 -0.20494109070E+02 -0.36684645656E+02 -0.21600103915E+03  0.22005049568E+03  0.00000000000E+00 0. -1.
         11    1    3    3    0    0  0.20494109070E+02  0.36684645656E+02 -0.95898349027E+02  0.10470083610E+03  0.00000000000E+00 0.  1.
<mgrwt>
<rscale>  0 0.90455509E+02</rscale>
<asrwt>0</asrwt>
<pdfrwt beam="2">  1        1 0.48973127E-01 0.90455509E+02</pdfrwt>
<pdfrwt beam="1">  1       -1 0.98861116E-03 0.90455509E+02</pdfrwt>
<totfact> 0.13233136E+05</totfact>
</mgrwt>
</event>
<event>
 5    1  0.1239369E+001  0.9056199E+02  0.7546771E-02  0.1301496E+00
         -1   -1    0    0    0  501 -0.00000000000E+00  0.00000000000E+00  0.12567799520E+02  0.12567799520E+02  0.00000000000E+00 0.  1.
          1   -1    0    0  501    0  0.00000000000E+00 -0.00000000000E+00 -0.16314460718E+03  0.16314460718E+03  0.00000000000E+00 0. -1.
         23    2    1    2    0    0  0.00000000000E+00  0.00000000000E+00 -0.15057680766E+03  0.17571240670E+03  0.90561994586E+02 0.  0.
        -11    1    3    3    0    0  0.18385653281E+02  0.26332793844E+02 -0.13722204091E+03  0.14093025506E+03  0.00000000000E+00 0. -1.
         11    1    3    3    0    0 -0.18385653281E+02 -0.26332793844E+02 -0.13354766750E+02  0.34782151646E+02  0.00000000000E+00 0.  1.
<mgrwt>
<rscale>  0 0.90561995E+02</rscale>
<asrwt>0</asrwt>
<pdfrwt beam="2">  1        1 0.25099169E-01 0.90561995E+02</pdfrwt>
<pdfrwt beam="1">  1       -1 0.19335077E-02 0.90561995E+02</pdfrwt>
<totfact> 0.11598492E+05</totfact>
</mgrwt>
</event>
<event>
 5    1  0.1239369E+001  0.9117370E+02  0.7546771E-02  0.1300034E+00
          2   -1    0    0  501    0  0.00000000000E+00  0.00000000000E+00  0.21710663263E+03  0.21710663263E+03  0.00000000000E+00 0.  1.
         -2   -1    0    0    0  501 -0.00000000000E+00 -0.00000000000E+00 -0.95720746377E+01  0.95720746377E+01  0.00000000000E+00 0. -1.
         23    2    1    2    0    0  0.00000000000E+00  0.00000000000E+00  0.20753455800E+03  0.22667870727E+03  0.91173699978E+02 0.  0.
        -13    1    3    3    0    0  0.29916368995E+02 -0.24341456791E+02  0.16419161051E+03  0.16866054848E+03  0.00000000000E+00 0.  1.
         13    1    3    3    0    0 -0.29916368995E+02  0.24341456791E+02  0.43342947489E+02  0.58018158792E+02  0.00000000000E+00 0. -1.
<mgrwt>
<rscale>  0 0.91173700E+02</rscale>
<asrwt>0</asrwt>
<pdfrwt beam="1">  1        2 0.33401017E-01 0.91173700E+02</pdfrwt>
<pdfrwt beam="2">  1       -2 0.14726270E-02 0.91173700E+02</pdfrwt>
<totfact> 0.15938111E+05</totfact>
</mgrwt>
</event>
<event>
 5    1  0.1239369E+001  0.8116557E+02  0.7546771E-02  0.1325776E+00
          2   -1    0    0  501    0  0.00000000000E+00  0.00000000000E+00  0.20601450116E+03  0.20601450116E+03  0.00000000000E+00 0.  1.
         -2   -1    0    0    0  501 -0.00000000000E+00 -0.00000000000E+00 -0.79944005933E+01  0.79944005933E+01  0.00000000000E+00 0. -1.
         23    2    1    2    0    0  0.00000000000E+00  0.00000000000E+00  0.19802010056E+03  0.21400890175E+03  0.81165570293E+02 0.  0.
        -11    1    3    3    0    0  0.20012429300E+02 -0.34697530398E+02  0.81811495468E+02  0.91090815854E+02  0.00000000000E+00 0.  1.
         11    1    3    3    0    0 -0.20012429300E+02  0.34697530398E+02  0.11620860509E+03  0.12291808589E+03  0.00000000000E+00 0. -1.
<mgrwt>
<rscale>  0 0.81165570E+02</rscale>
<asrwt>0</asrwt>
<pdfrwt beam="1">  1        2 0.31694535E-01 0.81165570E+02</pdfrwt>
<pdfrwt beam="2">  1       -2 0.12299079E-02 0.81165570E+02</pdfrwt>
<totfact> 0.21330106E+05</totfact>
</mgrwt>
</event>
<event>
 5    1  0.1239369E+001  0.9179676E+02  0.7546771E-02  0.1298558E+00
         -3   -1    0    0    0  501 -0.00000000000E+00  0.00000000000E+00  0.47259873101E+02  0.47259873101E+02  0.00000000000E+00 0.  1.
          3   -1    0    0  501    0  0.00000000000E+00 -0.00000000000E+00 -0.44576109736E+02  0.44576109736E+02  0.00000000000E+00 0. -1.
         23    2    1    2    0    0  0.00000000000E+00  0.00000000000E+00  0.26837633645E+01  0.91835982837E+02  0.91796760062E+02 0.  0.
        -13    1    3    3    0    0  0.52949475579E+01  0.27935684750E+02 -0.34704366100E+02  0.44864596047E+02  0.00000000000E+00 0. -1.
         13    1    3    3    0    0 -0.52949475579E+01 -0.27935684750E+02  0.37388129464E+02  0.46971386790E+02  0.00000000000E+00 0.  1.
<mgrwt>
<rscale>  0 0.91796760E+02</rscale>
<asrwt>0</asrwt>
<pdfrwt beam="2">  1        3 0.68578630E-02 0.91796760E+02</pdfrwt>
<pdfrwt beam="1">  1       -3 0.72707498E-02 0.91796760E+02</pdfrwt>
<totfact> 0.34641108E+04</totfact>
</mgrwt>
</event>
<event>
 5    1  0.1239369E+001  0.8827729E+02  0.7546771E-02  0.1307078E+00
         -3   -1    0    0    0  501 -0.00000000000E+00  0.00000000000E+00  0.99321015074E+02  0.99321015074E+02  0.00000000000E+00 0.  1.
          3   -1    0    0  501    0  0.00000000000E+00 -0.00000000000E+00 -0.19615383121E+02  0.19615383121E+02  0.00000000000E+00 0. -1.
         23    2    1    2    0    0  0.00000000000E+00  0.00000000000E+00  0.79705631953E+02  0.11893639820E+03  0.88277285021E+02 0.  0.
        -11    1    3    3    0    0  0.42072300991E+02  0.41519687970E+00  0.57826530028E+02  0.71513344728E+02  0.00000000000E+00 0.  1.
         11    1    3    3    0    0 -0.42072300991E+02 -0.41519687970E+00  0.21879101925E+02  0.47423053468E+02  0.00000000000E+00 0. -1.
<mgrwt>
<rscale>  0 0.88277285E+02</rscale>
<asrwt>0</asrwt>
<pdfrwt beam="2">  1        3 0.30177513E-02 0.88277285E+02</pdfrwt>
<pdfrwt beam="1">  1       -3 0.15280156E-01 0.88277285E+02</pdfrwt>
<totfact> 0.36367403E+04</totfact>
</mgrwt>
</event>
<event>
 5    1  0.1239369E+001  0.8853827E+02  0.7546771E-02  0.1306431E+00
         -3   -1    0    0    0  501 -0.00000000000E+00  0.00000000000E+00  0.54515130969E+02  0.54515130969E+02  0.00000000000E+00 0.  1.
          3   -1    0    0  501    0  0.00000000000E+00 -0.00000000000E+00 -0.35948850129E+02  0.35948850129E+02  0.00000000000E+00 0. -1.
         23    2    1    2    0    0  0.00000000000E+00  0.00000000000E+00  0.18566280840E+02  0.90463981099E+02  0.88538269082E+02 0.  0.
        -11    1    3    3    0    0 -0.23274096354E+02  0.35969839525E+02  0.20672026700E+02  0.47569376751E+02  0.00000000000E+00 0.  1.
         11    1    3    3    0    0  0.23274096354E+02 -0.35969839525E+02 -0.21057458601E+01  0.42894604348E+02  0.00000000000E+00 0. -1.
<mgrwt>
<rscale>  0 0.88538269E+02</rscale>
<asrwt>0</asrwt>
<pdfrwt beam="2">  1        3 0.55305923E-02 0.88538269E+02</pdfrwt>
<pdfrwt beam="1">  1       -3 0.83869432E-02 0.88538269E+02</pdfrwt>
<totfact> 0.38332869E+04</totfact>
</mgrwt>
</event>
<event>
 5    1  0.1239369E+001  0.9008837E+02  0.7546771E-02  0.1302638E+00
         -1   -1    0    0    0  501 -0.00000000000E+00  0.00000000000E+00  0.54447542223E+02  0.54447542223E+02  0.00000000000E+00 0.  1.
          1   -1    0    0  501    0  0.00000000000E+00 -0.00000000000E+00 -0.37264834123E+02  0.37264834123E+02  0.00000000000E+00 0. -1.
         23    2    1    2    0    0  0.00000000000E+00  0.00000000000E+00  0.17182708101E+02  0.91712376346E+02  0.90088370600E+02 0.  0.
        -11    1    3    3    0    0  0.17361563654E+02  0.17870269274E+02  0.46793930274E+02  0.53013605111E+02  0.00000000000E+00 0.  1.
         11    1    3    3    0    0 -0.17361563654E+02 -0.17870269274E+02 -0.29611222173E+02  0.38698771234E+02  0.00000000000E+00 0. -1.
<mgrwt>
<rscale>  0 0.90088371E+02</rscale>
<asrwt>0</asrwt>
<pdfrwt beam="2">  1        1 0.57330514E-02 0.90088371E+02</pdfrwt>
<pdfrwt beam="1">  1       -1 0.83765449E-02 0.90088371E+02</pdfrwt>
<totfact> 0.92788984E+04</totfact>
</mgrwt>
</event>
<event>
 5    1  0.1239369E+001  0.9063129E+02  0.7546771E-02  0.1301330E+00
          4   -1    0    0  501    0  0.00000000000E+00  0.00000000000E+00  0.15772425199E+03  0.15772425199E+03  0.00000000000E+00 0. -1.
         -4   -1    0    0    0  501 -0.00000000000E+00 -0.00000000000E+00 -0.13019605514E+02  0.13019605514E+02  0.00000000000E+00 0.  1.
         23    2    1    2    0    0  0.00000000000E+00  0.00000000000E+00  0.14470464647E+03  0.17074385750E+03  0.90631286890E+02 0.  0.
        -11    1    3    3    0    0 -0.24962340259E+02 -0.35635685508E+02  0.48485923543E+02  0.65145263025E+02  0.00000000000E+00 0. -1.
         11    1    3    3    0    0  0.24962340259E+02  0.35635685508E+02  0.96218722932E+02  0.10559859448E+03  0.00000000000E+00 0.  1.
<mgrwt>
<rscale>  0 0.90631287E+02</rscale>
<asrwt>0</asrwt>
<pdfrwt beam="1">  1        4 0.24265268E-01 0.90631287E+02</pdfrwt>
<pdfrwt beam="2">  1       -4 0.20030163E-02 0.90631287E+02</pdfrwt>
<totfact> 0.23040824E+04</totfact>
</mgrwt>
</event>
<event>
 5    1  0.1239369E+001  0.9127616E+02  0.7546771E-02  0.1299790E+00
         -2   -1    0    0    0  501 -0.00000000000E+00  0.00000000000E+00  0.26997305504E+02  0.26997305504E+02  0.00000000000E+00 0.  1.
          2   -1    0    0  501    0  0.00000000000E+00 -0.00000000000E+00 -0.77149711914E+02  0.77149711914E+02  0.00000000000E+00 0. -1.
         23    2    1    2    0    0  0.00000000000E+00  0.00000000000E+00 -0.50152406411E+02  0.10414701742E+03  0.91276159912E+02 0.  0.
        -13    1    3    3    0    0 -0.96012432935E+01 -0.19371974368E+02 -0.70935399006E+02  0.74157185059E+02  0.00000000000E+00 0. -1.
         13    1    3    3    0    0  0.96012432935E+01  0.19371974368E+02  0.20782992596E+02  0.29989832359E+02  0.00000000000E+00 0.  1.
<mgrwt>
<rscale>  0 0.91276160E+02</rscale>
<asrwt>0</asrwt>
<pdfrwt beam="2">  1        2 0.11869187E-01 0.91276160E+02</pdfrwt>
<pdfrwt beam="1">  1       -2 0.41534316E-02 0.91276160E+02</pdfrwt>
<totfact> 0.11333112E+05</totfact>
</mgrwt>
</event>
<event>
 5    1  0.1239369E+001  0.8957256E+02  0.7546771E-02  0.1303890E+00
         -1   -1    0    0    0  501 -0.00000000000E+00  0.00000000000E+00  0.76002386738E+01  0.76002386738E+01  0.00000000000E+00 0.  1.
          1   -1    0    0  501    0  0.00000000000E+00 -0.00000000000E+00 -0.26391417161E+03  0.26391417161E+03  0.00000000000E+00 0. -1.
         23    2    1    2    0    0  0.00000000000E+00  0.00000000000E+00 -0.25631393293E+03  0.27151441028E+03  0.89572555922E+02 0.  0.
        -13    1    3    3    0    0  0.44260267012E+02 -0.53048345230E+01 -0.14126440053E+03  0.14813083191E+03  0.00000000000E+00 0. -1.
         13    1    3    3    0    0 -0.44260267012E+02  0.53048345230E+01 -0.11504953241E+03  0.12338357837E+03  0.00000000000E+00 0.  1.
<mgrwt>
<rscale>  0 0.89572556E+02</rscale>
<asrwt>0</asrwt>
<pdfrwt beam="2">  1        1 0.40602187E-01 0.89572556E+02</pdfrwt>
<pdfrwt beam="1">  1       -1 0.11692673E-02 0.89572556E+02</pdfrwt>
<totfact> 0.13104048E+05</totfact>
</mgrwt>
</event>
<event>
 5    1  0.1239369E+001  0.8991639E+02  0.7546771E-02  0.1303054E+00
          1   -1    0    0  501    0  0.00000000000E+00  0.00000000000E+00  0.18179718815E+03  0.18179718815E+03  0.00000000000E+00 0. -1.
         -1   -1    0    0    0  501 -0.00000000000E+00 -0.00000000000E+00 -0.11118099098E+02  0.11118099098E+02  0.00000000000E+00 0.  1.
         23    2    1    2    0    0  0.00000000000E+00  0.00000000000E+00  0.17067908905E+03  0.19291528725E+03  0.89916386794E+02 0.  0.
        -11    1    3    3    0    0  0.11817650552E+01 -0.32827119270E+02  0.15119694853E+03  0.15472405622E+03  0.00000000000E+00 0. -1.
         11    1    3    3    0    0 -0.11817650552E+01  0.32827119270E+02  0.19482140525E+02  0.38191231030E+02  0.00000000000E+00 0.  1.
<mgrwt>
<rscale>  0 0.89916387E+02</rscale>
<asrwt>0</asrwt>
<pdfrwt beam="1">  1        1 0.27968796E-01 0.89916387E+02</pdfrwt>
<pdfrwt beam="2">  1       -1 0.17104769E-02 0.89916387E+02</pdfrwt>
<totfact> 0.12067064E+05</totfact>
</mgrwt>
</event>
<event>
 5    1  0.1239369E+001  0.9172047E+02  0.7546771E-02  0.1298738E+00
          3   -1    0    0  501    0  0.00000000000E+00  0.00000000000E+00  0.86641453475E+02  0.86641453475E+02  0.00000000000E+00 0.  1.
         -3   -1    0    0    0  501 -0.00000000000E+00 -0.00000000000E+00 -0.24274306119E+02  0.24274306119E+02  0.00000000000E+00 0. -1.
         23    2    1    2    0    0  0.00000000000E+00  0.00000000000E+00  0.62367147356E+02  0.11091575959E+03  0.91720470218E+02 0.  0.
        -11    1    3    3    0    0  0.21566424996E+02  0.22272413794E+02 -0.96820514989E+01  0.32479427713E+02  0.00000000000E+00 0. -1.
         11    1    3    3    0    0 -0.21566424996E+02 -0.22272413794E+02  0.72049198854E+02  0.78436331881E+02  0.00000000000E+00 0.  1.
<mgrwt>
<rscale>  0 0.91720470E+02</rscale>
<asrwt>0</asrwt>
<pdfrwt beam="1">  1        3 0.13329454E-01 0.91720470E+02</pdfrwt>
<pdfrwt beam="2">  1       -3 0.37345087E-02 0.91720470E+02</pdfrwt>
<totfact> 0.33335436E+04</totfact>
</mgrwt>
</event>
<event>
 5    1  0.1239369E+001  0.1018303E+03  0.7546771E-02  0.1276493E+00
         -2   -1    0    0    0  501 -0.00000000000E+00  0.00000000000E+00  0.13742681347E+02  0.13742681347E+02  0.00000000000E+00 0.  1.
          2   -1    0    0  501    0  0.00000000000E+00 -0.00000000000E+00 -0.18863519674E+03  0.18863519674E+03  0.00000000000E+00 0. -1.
         23    2    1    2    0    0  0.00000000000E+00  0.00000000000E+00 -0.17489251540E+03  0.20237787809E+03  0.10183031768E+03 0.  0.
        -13    1    3    3    0    0  0.34700972320E+01 -0.44645590075E+02 -0.39291884619E+02  0.59574512040E+02  0.00000000000E+00 0.  1.
         13    1    3    3    0    0 -0.34700972320E+01  0.44645590075E+02 -0.13560063078E+03  0.14280336605E+03  0.00000000000E+00 0. -1.
<mgrwt>
<rscale>  0 0.10183032E+03</rscale>
<asrwt>0</asrwt>
<pdfrwt beam="2">  1        2 0.29020800E-01 0.10183032E+03</pdfrwt>
<pdfrwt beam="1">  1       -2 0.21142586E-02 0.10183032E+03</pdfrwt>
<totfact> 0.11218344E+05</totfact>
</mgrwt>
</event>
<event>
 5    1  0.1239369E+001  0.9189053E+02  0.7546771E-02  0.1298337E+00
         -4   -1    0    0    0  501 -0.00000000000E+00  0.00000000000E+00  0.76484931642E+02  0.76484931642E+02  0.00000000000E+00 0. -1.
          4   -1    0    0  501    0  0.00000000000E+00 -0.00000000000E+00 -0.27599782131E+02  0.27599782131E+02  0.00000000000E+00 0.  1.
         23    2    1    2    0    0  0.00000000000E+00  0.00000000000E+00  0.48885149511E+02  0.10408471377E+03  0.91890531603E+02 0.  0.
        -11    1    3    3    0    0  0.22841401855E+02  0.59455153887E+01 -0.20207905716E+02  0.31071502142E+02  0.00000000000E+00 0.  1.
         11    1    3    3    0    0 -0.22841401855E+02 -0.59455153887E+01  0.69093055227E+02  0.73013211630E+02  0.00000000000E+00 0. -1.
<mgrwt>
<rscale>  0 0.91890532E+02</rscale>
<asrwt>0</asrwt>
<pdfrwt beam="2">  1        4 0.42461204E-02 0.91890532E+02</pdfrwt>
<pdfrwt beam="1">  1       -4 0.11766912E-01 0.91890532E+02</pdfrwt>
<totfact> 0.25658861E+04</totfact>
</mgrwt>
</event>
<event>
 5    1  0.1239369E+001  0.9281260E+02  0.7546771E-02  0.1296180E+00
         -1   -1    0    0    0  501 -0.00000000000E+00  0.00000000000E+00  0.95784051311E+02  0.95784051311E+02  0.00000000000E+00 0.  1.
          1   -1    0    0  501    0  0.00000000000E+00 -0.00000000000E+00 -0.22483332980E+02  0.22483332980E+02  0.00000000000E+00 0. -1.
         23    2    1    2    0    0  0.00000000000E+00  0.00000000000E+00  0.73300718331E+02  0.11826738429E+03  0.92812600864E+02 0.  0.
        -11    1    3    3    0    0  0.55665243092E+01  0.39852508380E+02  0.66105785155E+02  0.77389814885E+02  0.00000000000E+00 0.  1.
         11    1    3    3    0    0 -0.55665243092E+01 -0.39852508380E+02  0.71949331761E+01  0.40877569405E+02  0.00000000000E+00 0. -1.
<mgrwt>
<rscale>  0 0.92812601E+02</rscale>
<asrwt>0</asrwt>
<pdfrwt beam="2">  1        1 0.34589744E-02 0.92812601E+02</pdfrwt>
<pdfrwt beam="1">  1       -1 0.14736008E-01 0.92812601E+02</pdfrwt>
<totfact> 0.78346780E+04</totfact>
</mgrwt>
</event>
<event>
 5    1  0.1239369E+001  0.9239547E+02  0.7546771E-02  0.1297152E+00
         -2   -1    0    0    0  501 -0.00000000000E+00  0.00000000000E+00  0.33873693847E+02  0.33873693847E+02  0.00000000000E+00 0.  1.
          2   -1    0    0  501    0  0.00000000000E+00 -0.00000000000E+00 -0.63005544642E+02  0.63005544642E+02  0.00000000000E+00 0. -1.
         23    2    1    2    0    0  0.00000000000E+00  0.00000000000E+00 -0.29131850795E+02  0.96879238489E+02  0.92395465903E+02 0.  0.
        -13    1    3    3    0    0 -0.40695276464E+02  0.76595996912E+01  0.69085726840E+01  0.41982179201E+02  0.00000000000E+00 0.  1.
         13    1    3    3    0    0  0.40695276464E+02 -0.76595996912E+01 -0.36040423479E+02  0.54897059288E+02  0.00000000000E+00 0. -1.
<mgrwt>
<rscale>  0 0.92395466E+02</rscale>
<asrwt>0</asrwt>
<pdfrwt beam="2">  1        2 0.96931606E-02 0.92395466E+02</pdfrwt>
<pdfrwt beam="1">  1       -2 0.52113376E-02 0.92395466E+02</pdfrwt>
<totfact> 0.10352770E+05</totfact>
</mgrwt>
</event>
<event>
 5    1  0.1239369E+001  0.9138776E+02  0.7546771E-02  0.1299525E+00
          1   -1    0    0  501    0  0.00000000000E+00  0.00000000000E+00  0.14548415497E+02  0.14548415497E+02  0.00000000000E+00 0. -1.
         -1   -1    0    0    0  501 -0.00000000000E+00 -0.00000000000E+00 -0.14351600392E+03  0.14351600392E+03  0.00000000000E+00 0.  1.
         23    2    1    2    0    0  0.00000000000E+00  0.00000000000E+00 -0.12896758842E+03  0.15806441942E+03  0.91387755316E+02 0.  0.
        -11    1    3    3    0    0 -0.24653870274E+02  0.50255980618E+01 -0.13045535920E+03  0.13285959017E+03  0.00000000000E+00 0.  1.
         11    1    3    3    0    0  0.24653870274E+02 -0.50255980618E+01  0.14877707814E+01  0.25204829245E+02  0.00000000000E+00 0. -1.
<mgrwt>
<rscale>  0 0.91387755E+02</rscale>
<asrwt>0</asrwt>
<pdfrwt beam="1">  1        1 0.22382178E-02 0.91387755E+02</pdfrwt>
<pdfrwt beam="2">  1       -1 0.22079385E-01 0.91387755E+02</pdfrwt>
<totfact> 0.75103548E+04</totfact>
</mgrwt>
</event>
<event>
 5    1  0.1239369E+001  0.9083944E+02  0.7546771E-02  0.1300832E+00
         -1   -1    0    0    0  501 -0.00000000000E+00  0.00000000000E+00  0.18971423817E+03  0.18971423817E+03  0.00000000000E+00 0.  1.
          1   -1    0    0  501    0  0.00000000000E+00 -0.00000000000E+00 -0.10873990778E+02  0.10873990778E+02  0.00000000000E+00 0. -1.
         23    2    1    2    0    0  0.00000000000E+00  0.00000000000E+00  0.17884024739E+03  0.20058822895E+03  0.90839438049E+02 0.  0.
        -11    1    3    3    0    0  0.98066732918E+01  0.42982735686E+02  0.11353508353E+03  0.12179450563E+03  0.00000000000E+00 0. -1.
         11    1    3    3    0    0 -0.98066732918E+01 -0.42982735686E+02  0.65305163862E+02  0.78793723323E+02  0.00000000000E+00 0.  1.
<mgrwt>
<rscale>  0 0.90839438E+02</rscale>
<asrwt>0</asrwt>
<pdfrwt beam="2">  1        1 0.16729218E-02 0.90839438E+02</pdfrwt>
<pdfrwt beam="1">  1       -1 0.29186803E-01 0.90839438E+02</pdfrwt>
<totfact> 0.71144378E+04</totfact>
</mgrwt>
</event>
<event>
 5    1  0.1239369E+001  0.8608710E+02  0.7546771E-02  0.1312614E+00
         -2   -1    0    0    0  501 -0.00000000000E+00  0.00000000000E+00  0.61567491195E+02  0.61567491195E+02  0.00000000000E+00 0. -1.
          2   -1    0    0  501    0  0.00000000000E+00 -0.00000000000E+00 -0.30092943538E+02  0.30092943538E+02  0.00000000000E+00 0.  1.
         23    2    1    2    0    0  0.00000000000E+00  0.00000000000E+00  0.31474547656E+02  0.91660434733E+02  0.86087096276E+02 0.  0.
        -11    1    3    3    0    0 -0.31465840359E+02 -0.22142467440E+02 -0.48086094970E+01  0.38775129904E+02  0.00000000000E+00 0.  1.
         11    1    3    3    0    0  0.31465840359E+02  0.22142467440E+02  0.36283157153E+02  0.52885304829E+02  0.00000000000E+00 0. -1.
<mgrwt>
<rscale>  0 0.86087096E+02</rscale>
<asrwt>0</asrwt>
<pdfrwt beam="2">  1        2 0.46296836E-02 0.86087096E+02</pdfrwt>
<pdfrwt beam="1">  1       -2 0.94719217E-02 0.86087096E+02</pdfrwt>
<totfact> 0.10485092E+05</totfact>
</mgrwt>
</event>
<event>
 5    1  0.1239369E+001  0.1006145E+03  0.7546771E-02  0.1279009E+00
         -3   -1    0    0    0  501 -0.00000000000E+00  0.00000000000E+00  0.26884644878E+02  0.26884644878E+02  0.00000000000E+00 0.  1.
          3   -1    0    0  501    0  0.00000000000E+00 -0.00000000000E+00 -0.94136264940E+02  0.94136264940E+02  0.00000000000E+00 0. -1.
         23    2    1    2    0    0  0.00000000000E+00  0.00000000000E+00 -0.67251620062E+02  0.12102090982E+03  0.10061451293E+03 0.  0.
        -11    1    3    3    0    0  0.63636156855E+01 -0.32482887854E+02  0.11941558202E+02  0.35188555245E+02  0.00000000000E+00 0.  1.
         11    1    3    3    0    0 -0.63636156855E+01  0.32482887854E+02 -0.79193178264E+02  0.85832354573E+02  0.00000000000E+00 0. -1.
<mgrwt>
<rscale>  0 0.10061451E+03</rscale>
<asrwt>0</asrwt>
<pdfrwt beam="2">  1        3 0.14482502E-01 0.10061451E+03</pdfrwt>
<pdfrwt beam="1">  1       -3 0.41360992E-02 0.10061451E+03</pdfrwt>
<totfact> 0.25343705E+04</totfact>
</mgrwt>
</event>
<event>
 5    1  0.1239369E+001  0.8874446E+02  0.7546771E-02  0.1305921E+00
         -1   -1    0    0    0  501 -0.00000000000E+00  0.00000000000E+00  0.20029092975E+02  0.20029092975E+02  0.00000000000E+00 0.  1.
          1   -1    0    0  501    0  0.00000000000E+00 -0.00000000000E+00 -0.98301739801E+02  0.98301739801E+02  0.00000000000E+00 0. -1.
         23    2    1    2    0    0  0.00000000000E+00  0.00000000000E+00 -0.78272646826E+02  0.11833083278E+03  0.88744457542E+02 0.  0.
        -13    1    3    3    0    0  0.11003951986E+02 -0.41279712067E+02 -0.55125485418E+02  0.69741814790E+02  0.00000000000E+00 0.  1.
         13    1    3    3    0    0 -0.11003951986E+02  0.41279712067E+02 -0.23147161408E+02  0.48589017986E+02  0.00000000000E+00 0. -1.
<mgrwt>
<rscale>  0 0.88744458E+02</rscale>
<asrwt>0</asrwt>
<pdfrwt beam="2">  1        1 0.15123345E-01 0.88744458E+02</pdfrwt>
<pdfrwt beam="1">  1       -1 0.30813989E-02 0.88744458E+02</pdfrwt>
<totfact> 0.11210585E+05</totfact>
</mgrwt>
</event>
<event>
 4    1  0.1239369E+001  0.4484093E+02  0.7546771E-02  0.1475337E+00
         -1   -1    0    0    0  501 -0.00000000000E+00  0.00000000000E+00  0.37523687944E+02  0.37523687944E+02  0.00000000000E+00 0.  1.
          1   -1    0    0  501    0  0.00000000000E+00 -0.00000000000E+00 -0.13396267542E+02  0.13396267542E+02  0.00000000000E+00 0. -1.
        -13    1    1    2    0    0 -0.16705256718E+02 -0.93161031993E+01 -0.12191405953E+01  0.19166159882E+02  0.00000000000E+00 0. -1.
         13    1    1    2    0    0  0.16705256718E+02  0.93161031993E+01  0.25346560997E+02  0.31753795604E+02  0.00000000000E+00 0.  1.
<mgrwt>
<rscale>  0 0.44840935E+02</rscale>
<asrwt>0</asrwt>
<pdfrwt beam="2">  1        1 0.20609642E-02 0.44840935E+02</pdfrwt>
<pdfrwt beam="1">  1       -1 0.57728750E-02 0.44840935E+02</pdfrwt>
<totfact> 0.54902666E+05</totfact>
</mgrwt>
</event>
<event>
 5    1  0.1239369E+001  0.9083632E+02  0.7546771E-02  0.1300839E+00
          1   -1    0    0  501    0  0.00000000000E+00  0.00000000000E+00  0.15564826875E+03  0.15564826875E+03  0.00000000000E+00 0. -1.
         -1   -1    0    0    0  501 -0.00000000000E+00 -0.00000000000E+00 -0.13253016944E+02  0.13253016944E+02  0.00000000000E+00 0.  1.
         23    2    1    2    0    0  0.00000000000E+00  0.00000000000E+00  0.14239525180E+03  0.16890128569E+03  0.90836317472E+02 0.  0.
        -11    1    3    3    0    0 -0.34204847890E+02  0.24134834951E+02  0.10395411882E+03  0.11206659045E+03  0.00000000000E+00 0. -1.
         11    1    3    3    0    0  0.34204847890E+02 -0.24134834951E+02  0.38441132987E+02  0.56834695236E+02  0.00000000000E+00 0.  1.
<mgrwt>
<rscale>  0 0.90836317E+02</rscale>
<asrwt>0</asrwt>
<pdfrwt beam="1">  1        1 0.23945886E-01 0.90836317E+02</pdfrwt>
<pdfrwt beam="2">  1       -1 0.20389258E-02 0.90836317E+02</pdfrwt>
<totfact> 0.11404441E+05</totfact>
</mgrwt>
</event>
<event>
 5    1  0.1239369E+001  0.9463145E+02  0.7546771E-02  0.1292008E+00
          1   -1    0    0  501    0  0.00000000000E+00  0.00000000000E+00  0.33263142688E+02  0.33263142688E+02  0.00000000000E+00 0. -1.
         -1   -1    0    0    0  501 -0.00000000000E+00 -0.00000000000E+00 -0.67305063241E+02  0.67305063241E+02  0.00000000000E+00 0.  1.
         23    2    1    2    0    0  0.00000000000E+00  0.00000000000E+00 -0.34041920553E+02  0.10056820593E+03  0.94631451901E+02 0.  0.
        -11    1    3    3    0    0 -0.46792874562E+01  0.24938194343E+02 -0.59463491363E+02  0.64650723687E+02  0.00000000000E+00 0.  1.
         11    1    3    3    0    0  0.46792874562E+01 -0.24938194343E+02  0.25421570810E+02  0.35917482242E+02  0.00000000000E+00 0. -1.
<mgrwt>
<rscale>  0 0.94631452E+02</rscale>
<asrwt>0</asrwt>
<pdfrwt beam="1">  1        1 0.51174066E-02 0.94631452E+02</pdfrwt>
<pdfrwt beam="2">  1       -1 0.10354625E-01 0.94631452E+02</pdfrwt>
<totfact> 0.79211855E+04</totfact>
</mgrwt>
</event>
<event>
 5    1  0.1239369E+001  0.9216920E+02  0.7546771E-02  0.1297682E+00
         -2   -1    0    0    0  501 -0.00000000000E+00  0.00000000000E+00  0.79377894716E+01  0.79377894716E+01  0.00000000000E+00 0.  1.
          2   -1    0    0  501    0  0.00000000000E+00 -0.00000000000E+00 -0.26755436445E+03  0.26755436445E+03  0.00000000000E+00 0. -1.
         23    2    1    2    0    0  0.00000000000E+00  0.00000000000E+00 -0.25961657497E+03  0.27549215392E+03  0.92169196962E+02 0.  0.
        -13    1    3    3    0    0  0.55203732496E+01 -0.41179773556E+02 -0.18940398548E+03  0.19390749853E+03  0.00000000000E+00 0. -1.
         13    1    3    3    0    0 -0.55203732496E+01  0.41179773556E+02 -0.70212589492E+02  0.81584655384E+02  0.00000000000E+00 0.  1.
<mgrwt>
<rscale>  0 0.92169197E+02</rscale>
<asrwt>0</asrwt>
<pdfrwt beam="2">  1        2 0.41162208E-01 0.92169197E+02</pdfrwt>
<pdfrwt beam="1">  1       -2 0.12211984E-02 0.92169197E+02</pdfrwt>
<totfact> 0.16723267E+05</totfact>
</mgrwt>
</event>
<event>
 5    1  0.1239369E+001  0.9403192E+02  0.7546771E-02  0.1293371E+00
          3   -1    0    0  501    0  0.00000000000E+00  0.00000000000E+00  0.85383018899E+01  0.85383018899E+01  0.00000000000E+00 0. -1.
         -3   -1    0    0    0  501 -0.00000000000E+00 -0.00000000000E+00 -0.25889228786E+03  0.25889228786E+03  0.00000000000E+00 0.  1.
         23    2    1    2    0    0  0.00000000000E+00  0.00000000000E+00 -0.25035398597E+03  0.26743058975E+03  0.94031920341E+02 0.  0.
        -11    1    3    3    0    0  0.29180418431E+02 -0.36839519875E+02 -0.12130505739E+03  0.13009059917E+03  0.00000000000E+00 0.  1.
         11    1    3    3    0    0 -0.29180418431E+02  0.36839519875E+02 -0.12904892858E+03  0.13733999058E+03  0.00000000000E+00 0. -1.
<mgrwt>
<rscale>  0 0.94031920E+02</rscale>
<asrwt>0</asrwt>
<pdfrwt beam="1">  1        3 0.13135851E-02 0.94031920E+02</pdfrwt>
<pdfrwt beam="2">  1       -3 0.39829576E-01 0.94031920E+02</pdfrwt>
<totfact> 0.23321598E+04</totfact>
</mgrwt>
</event>
<event>
 4    1  0.1239369E+001  0.1315814E+03  0.7546771E-02  0.1225128E+00
          3   -1    0    0  501    0  0.00000000000E+00  0.00000000000E+00  0.57310245998E+02  0.57310245998E+02  0.00000000000E+00 0. -1.
         -3   -1    0    0    0  501 -0.00000000000E+00 -0.00000000000E+00 -0.75526026994E+02  0.75526026994E+02  0.00000000000E+00 0.  1.
        -11    1    1    2    0    0 -0.27144884802E+02  0.55303788586E+02 -0.32416203491E+02  0.69614395434E+02  0.00000000000E+00 0.  1.
         11    1    1    2    0    0  0.27144884802E+02 -0.55303788586E+02  0.14200422495E+02  0.63221877557E+02  0.00000000000E+00 0. -1.
<mgrwt>
<rscale>  0 0.13158138E+03</rscale>
<asrwt>0</asrwt>
<pdfrwt beam="1">  1        3 0.88169609E-02 0.13158138E+03</pdfrwt>
<pdfrwt beam="2">  1       -3 0.11619389E-01 0.13158138E+03</pdfrwt>
<totfact> 0.11702974E+04</totfact>
</mgrwt>
</event>
<event>
 5    1  0.1239369E+001  0.8881979E+02  0.7546771E-02  0.1305735E+00
         -2   -1    0    0    0  501 -0.00000000000E+00  0.00000000000E+00  0.56876706788E+02  0.56876706788E+02  0.00000000000E+00 0.  1.
          2   -1    0    0  501    0  0.00000000000E+00 -0.00000000000E+00 -0.34675681200E+02  0.34675681200E+02  0.00000000000E+00 0. -1.
         23    2    1    2    0    0  0.00000000000E+00  0.00000000000E+00  0.22201025588E+02  0.91552387988E+02  0.88819785010E+02 0.  0.
        -13    1    3    3    0    0 -0.33862708134E+02  0.21921913170E+02 -0.80447017295E+01  0.41133569079E+02  0.00000000000E+00 0.  1.
         13    1    3    3    0    0  0.33862708134E+02 -0.21921913170E+02  0.30245727318E+02  0.50418818909E+02  0.00000000000E+00 0. -1.
<mgrwt>
<rscale>  0 0.88819785E+02</rscale>
<asrwt>0</asrwt>
<pdfrwt beam="2">  1        2 0.53347202E-02 0.88819785E+02</pdfrwt>
<pdfrwt beam="1">  1       -2 0.87502626E-02 0.88819785E+02</pdfrwt>
<totfact> 0.99216141E+04</totfact>
</mgrwt>
</event>
<event>
 5    1  0.1239369E+001  0.9142215E+02  0.7546771E-02  0.1299444E+00
         -1   -1    0    0    0  501 -0.00000000000E+00  0.00000000000E+00  0.25907654128E+02  0.25907654128E+02  0.00000000000E+00 0.  1.
          1   -1    0    0  501    0  0.00000000000E+00 -0.00000000000E+00 -0.80651938628E+02  0.80651938628E+02  0.00000000000E+00 0. -1.
         23    2    1    2    0    0  0.00000000000E+00  0.00000000000E+00 -0.54744284500E+02  0.10655959276E+03  0.91422153348E+02 0.  0.
        -11    1    3    3    0    0 -0.69905315248E+01  0.20864974464E+02  0.19327931205E+02  0.29287943169E+02  0.00000000000E+00 0.  1.
         11    1    3    3    0    0  0.69905315248E+01 -0.20864974464E+02 -0.74072215705E+02  0.77271649586E+02  0.00000000000E+00 0. -1.
<mgrwt>
<rscale>  0 0.91422153E+02</rscale>
<asrwt>0</asrwt>
<pdfrwt beam="2">  1        1 0.12407991E-01 0.91422153E+02</pdfrwt>
<pdfrwt beam="1">  1       -1 0.39857929E-02 0.91422153E+02</pdfrwt>
<totfact> 0.10013154E+05</totfact>
</mgrwt>
</event>
<event>
 5    1  0.1239369E+001  0.9246911E+02  0.7546771E-02  0.1296980E+00
          1   -1    0    0  501    0  0.00000000000E+00  0.00000000000E+00  0.14161205686E+03  0.14161205686E+03  0.00000000000E+00 0. -1.
         -1   -1    0    0    0  501 -0.00000000000E+00 -0.00000000000E+00 -0.15095000470E+02  0.15095000470E+02  0.00000000000E+00 0.  1.
         23    2    1    2    0    0  0.00000000000E+00  0.00000000000E+00  0.12651705639E+03  0.15670705733E+03  0.92469109759E+02 0.  0.
        -11    1    3    3    0    0  0.35713201638E+02 -0.13792267478E+02  0.19327807879E+02  0.42886169925E+02  0.00000000000E+00 0.  1.
         11    1    3    3    0    0 -0.35713201638E+02  0.13792267478E+02  0.10718924851E+03  0.11382088741E+03  0.00000000000E+00 0. -1.
<mgrwt>
<rscale>  0 0.92469110E+02</rscale>
<asrwt>0</asrwt>
<pdfrwt beam="1">  1        1 0.21786469E-01 0.92469110E+02</pdfrwt>
<pdfrwt beam="2">  1       -1 0.23223079E-02 0.92469110E+02</pdfrwt>
<totfact> 0.10681399E+05</totfact>
</mgrwt>
</event>
<event>
 5    1  0.1239369E+001  0.7558720E+02  0.7546771E-02  0.1342062E+00
          1   -1    0    0  501    0  0.00000000000E+00  0.00000000000E+00  0.24724879743E+02  0.24724879743E+02  0.00000000000E+00 0. -1.
         -1   -1    0    0    0  501 -0.00000000000E+00 -0.00000000000E+00 -0.57769991232E+02  0.57769991232E+02  0.00000000000E+00 0.  1.
         23    2    1    2    0    0  0.00000000000E+00  0.00000000000E+00 -0.33045111489E+02  0.82494870975E+02  0.75587196957E+02 0.  0.
        -11    1    3    3    0    0  0.17848834690E+02 -0.31614303841E+02 -0.27985286097E+02  0.45839080980E+02  0.00000000000E+00 0. -1.
         11    1    3    3    0    0 -0.17848834690E+02  0.31614303841E+02 -0.50598253919E+01  0.36655789995E+02  0.00000000000E+00 0.  1.
<mgrwt>
<rscale>  0 0.75587197E+02</rscale>
<asrwt>0</asrwt>
<pdfrwt beam="1">  1        1 0.38038277E-02 0.75587197E+02</pdfrwt>
<pdfrwt beam="2">  1       -1 0.88876909E-02 0.75587197E+02</pdfrwt>
<totfact> 0.14330335E+05</totfact>
</mgrwt>
</event>
<event>
 5    1  0.1239369E+001  0.8524614E+02  0.7546771E-02  0.1314790E+00
         -2   -1    0    0    0  501 -0.00000000000E+00  0.00000000000E+00  0.20522893448E+02  0.20522893448E+02  0.00000000000E+00 0.  1.
          2   -1    0    0  501    0  0.00000000000E+00 -0.00000000000E+00 -0.88521926923E+02  0.88521926923E+02  0.00000000000E+00 0. -1.
         23    2    1    2    0    0  0.00000000000E+00  0.00000000000E+00 -0.67999033475E+02  0.10904482037E+03  0.85246139480E+02 0.  0.
        -11    1    3    3    0    0 -0.21930172978E+02 -0.31029137082E+02 -0.92949793499E+01  0.39116958931E+02  0.00000000000E+00 0.  1.
         11    1    3    3    0    0  0.21930172978E+02  0.31029137082E+02 -0.58704054125E+02  0.69927861440E+02  0.00000000000E+00 0. -1.
<mgrwt>
<rscale>  0 0.85246139E+02</rscale>
<asrwt>0</asrwt>
<pdfrwt beam="2">  1        2 0.13618758E-01 0.85246139E+02</pdfrwt>
<pdfrwt beam="1">  1       -2 0.31573682E-02 0.85246139E+02</pdfrwt>
<totfact> 0.14231628E+05</totfact>
</mgrwt>
</event>
<event>
 5    1  0.1239369E+001  0.9194926E+02  0.7546771E-02  0.1298199E+00
         -3   -1    0    0    0  501 -0.00000000000E+00  0.00000000000E+00  0.18676355716E+03  0.18676355716E+03  0.00000000000E+00 0.  1.
          3   -1    0    0  501    0  0.00000000000E+00 -0.00000000000E+00 -0.11317339169E+02  0.11317339169E+02  0.00000000000E+00 0. -1.
         23    2    1    2    0    0  0.00000000000E+00  0.00000000000E+00  0.17544621799E+03  0.19808089633E+03  0.91949258200E+02 0.  0.
        -11    1    3    3    0    0  0.34891553945E+02  0.25428155066E+02  0.12176113942E+03  0.12918895726E+03  0.00000000000E+00 0.  1.
         11    1    3    3    0    0 -0.34891553945E+02 -0.25428155066E+02  0.53685078575E+02  0.68891939067E+02  0.00000000000E+00 0. -1.
<mgrwt>
<rscale>  0 0.91949258E+02</rscale>
<asrwt>0</asrwt>
<pdfrwt beam="2">  1        3 0.17411292E-02 0.91949258E+02</pdfrwt>
<pdfrwt beam="1">  1       -3 0.28732853E-01 0.91949258E+02</pdfrwt>
<totfact> 0.27952083E+04</totfact>
</mgrwt>
</event>
<event>
 5    1  0.1239369E+001  0.9119619E+02  0.7546771E-02  0.1299981E+00
          2   -1    0    0  501    0  0.00000000000E+00  0.00000000000E+00  0.20774343944E+03  0.20774343944E+03  0.00000000000E+00 0. -1.
         -2   -1    0    0    0  501 -0.00000000000E+00 -0.00000000000E+00 -0.10008431868E+02  0.10008431868E+02  0.00000000000E+00 0.  1.
         23    2    1    2    0    0  0.00000000000E+00  0.00000000000E+00  0.19773500757E+03  0.21775187131E+03  0.91196185439E+02 0.  0.
        -11    1    3    3    0    0 -0.48764031574E+01 -0.45334487998E+02  0.97824117989E+02  0.10792846321E+03  0.00000000000E+00 0. -1.
         11    1    3    3    0    0  0.48764031574E+01  0.45334487998E+02  0.99910889583E+02  0.10982340810E+03  0.00000000000E+00 0.  1.
<mgrwt>
<rscale>  0 0.91196185E+02</rscale>
<asrwt>0</asrwt>
<pdfrwt beam="1">  1        2 0.31960526E-01 0.91196185E+02</pdfrwt>
<pdfrwt beam="2">  1       -2 0.15397589E-02 0.91196185E+02</pdfrwt>
<totfact> 0.15673549E+05</totfact>
</mgrwt>
</event>
<event>
 5    1  0.1239369E+001  0.9107652E+02  0.7546771E-02  0.1300265E+00
          1   -1    0    0  501    0  0.00000000000E+00  0.00000000000E+00  0.10315374485E+03  0.10315374485E+03  0.00000000000E+00 0. -1.
         -1   -1    0    0    0  501 -0.00000000000E+00 -0.00000000000E+00 -0.20103322946E+02  0.20103322946E+02  0.00000000000E+00 0.  1.
         23    2    1    2    0    0  0.00000000000E+00  0.00000000000E+00  0.83050421901E+02  0.12325706779E+03  0.91076518286E+02 0.  0.
        -13    1    3    3    0    0 -0.31723570997E+02  0.17519357295E+02  0.42060185279E+01  0.36482919684E+02  0.00000000000E+00 0.  1.
         13    1    3    3    0    0  0.31723570997E+02 -0.17519357295E+02  0.78844403373E+02  0.86774148109E+02  0.00000000000E+00 0. -1.
<mgrwt>
<rscale>  0 0.91076518E+02</rscale>
<asrwt>0</asrwt>
<pdfrwt beam="1">  1        1 0.15869807E-01 0.91076518E+02</pdfrwt>
<pdfrwt beam="2">  1       -1 0.30928190E-02 0.91076518E+02</pdfrwt>
<totfact> 0.10530998E+05</totfact>
</mgrwt>
</event>
<event>
 5    1  0.1239369E+001  0.8789217E+02  0.7546771E-02  0.1308038E+00
         -2   -1    0    0    0  501 -0.00000000000E+00  0.00000000000E+00  0.22958405435E+02  0.22958405435E+02  0.00000000000E+00 0.  1.
          2   -1    0    0  501    0  0.00000000000E+00 -0.00000000000E+00 -0.84119882496E+02  0.84119882496E+02  0.00000000000E+00 0. -1.
         23    2    1    2    0    0  0.00000000000E+00  0.00000000000E+00 -0.61161477061E+02  0.10707828793E+03  0.87892169561E+02 0.  0.
        -11    1    3    3    0    0 -0.37655312337E+02  0.18767477231E+02 -0.46044770932E+02  0.62371962283E+02  0.00000000000E+00 0. -1.
         11    1    3    3    0    0  0.37655312337E+02 -0.18767477231E+02 -0.15116706129E+02  0.44706325649E+02  0.00000000000E+00 0.  1.
<mgrwt>
<rscale>  0 0.87892170E+02</rscale>
<asrwt>0</asrwt>
<pdfrwt beam="2">  1        2 0.12941521E-01 0.87892170E+02</pdfrwt>
<pdfrwt beam="1">  1       -2 0.35320623E-02 0.87892170E+02</pdfrwt>
<totfact> 0.12896039E+05</totfact>
</mgrwt>
</event>
<event>
 5    1  0.1239369E+001  0.9072966E+02  0.7546771E-02  0.1301094E+00
         -1   -1    0    0    0  501 -0.00000000000E+00  0.00000000000E+00  0.23936163178E+02  0.23936163178E+02  0.00000000000E+00 0.  1.
          1   -1    0    0  501    0  0.00000000000E+00 -0.00000000000E+00 -0.85977337954E+02  0.85977337954E+02  0.00000000000E+00 0. -1.
         23    2    1    2    0    0  0.00000000000E+00  0.00000000000E+00 -0.62041174776E+02  0.10991350113E+03  0.90729655370E+02 0.  0.
        -11    1    3    3    0    0 -0.74844462496E+01  0.32018410619E+02  0.68409626328E+01  0.33585626747E+02  0.00000000000E+00 0.  1.
         11    1    3    3    0    0  0.74844462496E+01 -0.32018410619E+02 -0.68882137408E+02  0.76327874385E+02  0.00000000000E+00 0. -1.
<mgrwt>
<rscale>  0 0.90729655E+02</rscale>
<asrwt>0</asrwt>
<pdfrwt beam="2">  1        1 0.13227283E-01 0.90729655E+02</pdfrwt>
<pdfrwt beam="1">  1       -1 0.36824866E-02 0.90729655E+02</pdfrwt>
<totfact> 0.10328623E+05</totfact>
</mgrwt>
</event>
<event>
 5    1  0.1239369E+001  0.9159907E+02  0.7546771E-02  0.1299025E+00
         -1   -1    0    0    0  501 -0.00000000000E+00  0.00000000000E+00  0.76222094072E+02  0.76222094072E+02  0.00000000000E+00 0.  1.
          1   -1    0    0  501    0  0.00000000000E+00 -0.00000000000E+00 -0.27519542807E+02  0.27519542807E+02  0.00000000000E+00 0. -1.
         23    2    1    2    0    0  0.00000000000E+00  0.00000000000E+00  0.48702551265E+02  0.10374163688E+03  0.91599065075E+02 0.  0.
        -13    1    3    3    0    0  0.96117809679E+01  0.43485804527E+02  0.36454103016E+02  0.57552612065E+02  0.00000000000E+00 0.  1.
         13    1    3    3    0    0 -0.96117809679E+01 -0.43485804527E+02  0.12248448250E+02  0.46189024814E+02  0.00000000000E+00 0. -1.
<mgrwt>
<rscale>  0 0.91599065E+02</rscale>
<asrwt>0</asrwt>
<pdfrwt beam="2">  1        1 0.42337759E-02 0.91599065E+02</pdfrwt>
<pdfrwt beam="1">  1       -1 0.11726476E-01 0.91599065E+02</pdfrwt>
<totfact> 0.84336898E+04</totfact>
</mgrwt>
</event>
<event>
 5    1  0.1239369E+001  0.8870552E+02  0.7546771E-02  0.1306017E+00
          4   -1    0    0  501    0  0.00000000000E+00  0.00000000000E+00  0.29887296968E+02  0.29887296968E+02  0.00000000000E+00 0. -1.
         -4   -1    0    0    0  501 -0.00000000000E+00 -0.00000000000E+00 -0.65819509408E+02  0.65819509408E+02  0.00000000000E+00 0.  1.
         23    2    1    2    0    0  0.00000000000E+00  0.00000000000E+00 -0.35932212440E+02  0.95706806377E+02  0.88705517844E+02 0.  0.
        -11    1    3    3    0    0 -0.27473876844E+02 -0.33671481197E+01  0.19424845411E+02  0.33815325144E+02  0.00000000000E+00 0. -1.
         11    1    3    3    0    0  0.27473876844E+02  0.33671481197E+01 -0.55357057851E+02  0.61891481233E+02  0.00000000000E+00 0.  1.
<mgrwt>
<rscale>  0 0.88705518E+02</rscale>
<asrwt>0</asrwt>
<pdfrwt beam="1">  1        4 0.45980457E-02 0.88705518E+02</pdfrwt>
<pdfrwt beam="2">  1       -4 0.10126078E-01 0.88705518E+02</pdfrwt>
<totfact> 0.28786977E+04</totfact>
</mgrwt>
</event>
<event>
 5    1  0.1239369E+001  0.9154578E+02  0.7546771E-02  0.1299151E+00
          3   -1    0    0  501    0  0.00000000000E+00  0.00000000000E+00  0.49082303025E+02  0.49082303025E+02  0.00000000000E+00 0. -1.
         -3   -1    0    0    0  501 -0.00000000000E+00 -0.00000000000E+00 -0.42686617643E+02  0.42686617643E+02  0.00000000000E+00 0.  1.
         23    2    1    2    0    0  0.00000000000E+00  0.00000000000E+00  0.63956853821E+01  0.91768920668E+02  0.91545780946E+02 0.  0.
        -13    1    3    3    0    0  0.44297611071E+02 -0.10315467889E+01 -0.83112163286E+01  0.45082355220E+02  0.00000000000E+00 0.  1.
         13    1    3    3    0    0 -0.44297611071E+02  0.10315467889E+01  0.14706901711E+02  0.46686565448E+02  0.00000000000E+00 0. -1.
<mgrwt>
<rscale>  0 0.91545781E+02</rscale>
<asrwt>0</asrwt>
<pdfrwt beam="1">  1        3 0.75511235E-02 0.91545781E+02</pdfrwt>
<pdfrwt beam="2">  1       -3 0.65671720E-02 0.91545781E+02</pdfrwt>
<totfact> 0.34906171E+04</totfact>
</mgrwt>
</event>
<event>
 5    1  0.1239369E+001  0.9266993E+02  0.7546771E-02  0.1296512E+00
          2   -1    0    0  501    0  0.00000000000E+00  0.00000000000E+00  0.11244537357E+02  0.11244537357E+02  0.00000000000E+00 0. -1.
         -2   -1    0    0    0  501 -0.00000000000E+00 -0.00000000000E+00 -0.19093084875E+03  0.19093084875E+03  0.00000000000E+00 0.  1.
         23    2    1    2    0    0  0.00000000000E+00  0.00000000000E+00 -0.17968631139E+03  0.20217538610E+03  0.92669931722E+02 0.  0.
        -13    1    3    3    0    0 -0.31093822655E+01  0.46230442942E+02 -0.89661294463E+02  0.10092606124E+03  0.00000000000E+00 0.  1.
         13    1    3    3    0    0  0.31093822655E+01 -0.46230442942E+02 -0.90025016927E+02  0.10124932486E+03  0.00000000000E+00 0. -1.
<mgrwt>
<rscale>  0 0.92669932E+02</rscale>
<asrwt>0</asrwt>
<pdfrwt beam="1">  1        2 0.17299288E-02 0.92669932E+02</pdfrwt>
<pdfrwt beam="2">  1       -2 0.29373977E-01 0.92669932E+02</pdfrwt>
<totfact> 0.60983655E+04</totfact>
</mgrwt>
</event>
<event>
 5    1  0.1239369E+001  0.9266569E+02  0.7546771E-02  0.1296522E+00
          2   -1    0    0  501    0  0.00000000000E+00  0.00000000000E+00  0.20376116229E+03  0.20376116229E+03  0.00000000000E+00 0. -1.
         -2   -1    0    0    0  501 -0.00000000000E+00 -0.00000000000E+00 -0.10535534382E+02  0.10535534382E+02  0.00000000000E+00 0.  1.
         23    2    1    2    0    0  0.00000000000E+00  0.00000000000E+00  0.19322562791E+03  0.21429669668E+03  0.92665694429E+02 0.  0.
        -13    1    3    3    0    0  0.23786125019E+02 -0.34719571691E+02  0.51799819382E+02  0.66741663823E+02  0.00000000000E+00 0.  1.
         13    1    3    3    0    0 -0.23786125019E+02  0.34719571691E+02  0.14142580853E+03  0.14755503285E+03  0.00000000000E+00 0. -1.
<mgrwt>
<rscale>  0 0.92665694E+02</rscale>
<asrwt>0</asrwt>
<pdfrwt beam="1">  1        2 0.31347868E-01 0.92665694E+02</pdfrwt>
<pdfrwt beam="2">  1       -2 0.16208516E-02 0.92665694E+02</pdfrwt>
<totfact> 0.14907336E+05</totfact>
</mgrwt>
</event>
<event>
 5    1  0.1239369E+001  0.9144256E+02  0.7546771E-02  0.1299395E+00
         -1   -1    0    0    0  501 -0.00000000000E+00  0.00000000000E+00  0.77036384054E+01  0.77036384054E+01  0.00000000000E+00 0.  1.
          1   -1    0    0  501    0  0.00000000000E+00 -0.00000000000E+00 -0.27135692090E+03  0.27135692090E+03  0.00000000000E+00 0. -1.
         23    2    1    2    0    0  0.00000000000E+00  0.00000000000E+00 -0.26365328249E+03  0.27906055930E+03  0.91442563336E+02 0.  0.
        -13    1    3    3    0    0 -0.25630242196E+02  0.26642936865E+02 -0.21392290886E+03  0.21709391133E+03  0.00000000000E+00 0. -1.
         13    1    3    3    0    0  0.25630242196E+02 -0.26642936865E+02 -0.49730373631E+02  0.61966647975E+02  0.00000000000E+00 0.  1.
<mgrwt>
<rscale>  0 0.91442563E+02</rscale>
<asrwt>0</asrwt>
<pdfrwt beam="2">  1        1 0.41747215E-01 0.91442563E+02</pdfrwt>
<pdfrwt beam="1">  1       -1 0.11851753E-02 0.91442563E+02</pdfrwt>
<totfact> 0.12469223E+05</totfact>
</mgrwt>
</event>
<event>
 5    1  0.1239369E+001  0.8984179E+02  0.7546771E-02  0.1303235E+00
          1   -1    0    0  501    0  0.00000000000E+00  0.00000000000E+00  0.19540226874E+03  0.19540226874E+03  0.00000000000E+00 0. -1.
         -1   -1    0    0    0  501 -0.00000000000E+00 -0.00000000000E+00 -0.10326833246E+02  0.10326833246E+02  0.00000000000E+00 0.  1.
         23    2    1    2    0    0  0.00000000000E+00  0.00000000000E+00  0.18507543550E+03  0.20572910199E+03  0.89841786384E+02 0.  0.
        -11    1    3    3    0    0 -0.26866871653E+02 -0.26781070002E+02  0.14763036883E+03  0.15242631106E+03  0.00000000000E+00 0.  1.
         11    1    3    3    0    0  0.26866871653E+02  0.26781070002E+02  0.37445066664E+02  0.53302790924E+02  0.00000000000E+00 0. -1.
<mgrwt>
<rscale>  0 0.89841786E+02</rscale>
<asrwt>0</asrwt>
<pdfrwt beam="1">  1        1 0.30061885E-01 0.89841786E+02</pdfrwt>
<pdfrwt beam="2">  1       -1 0.15887437E-02 0.89841786E+02</pdfrwt>
<totfact> 0.12262538E+05</totfact>
</mgrwt>
</event>
<event>
 5    1  0.1239369E+001  0.9202220E+02  0.7546771E-02  0.1298027E+00
          4   -1    0    0  501    0  0.00000000000E+00  0.00000000000E+00  0.30137827048E+02  0.30137827048E+02  0.00000000000E+00 0. -1.
         -4   -1    0    0    0  501 -0.00000000000E+00 -0.00000000000E+00 -0.70244661825E+02  0.70244661825E+02  0.00000000000E+00 0.  1.
         23    2    1    2    0    0  0.00000000000E+00  0.00000000000E+00 -0.40106834778E+02  0.10038248887E+03  0.92022203171E+02 0.  0.
        -11    1    3    3    0    0 -0.45335294077E+02 -0.54869977397E+01 -0.26187979845E+02  0.52642248447E+02  0.00000000000E+00 0. -1.
         11    1    3    3    0    0  0.45335294077E+02  0.54869977397E+01 -0.13918854933E+02  0.47740240426E+02  0.00000000000E+00 0.  1.
<mgrwt>
<rscale>  0 0.92022203E+02</rscale>
<asrwt>0</asrwt>
<pdfrwt beam="1">  1        4 0.46365888E-02 0.92022203E+02</pdfrwt>
<pdfrwt beam="2">  1       -4 0.10806871E-01 0.92022203E+02</pdfrwt>
<totfact> 0.25779854E+04</totfact>
</mgrwt>
</event>
<event>
 5    1  0.1239369E+001  0.9124142E+02  0.7546771E-02  0.1299873E+00
          4   -1    0    0  501    0  0.00000000000E+00  0.00000000000E+00  0.23332557286E+02  0.23332557286E+02  0.00000000000E+00 0. -1.
         -4   -1    0    0    0  501 -0.00000000000E+00 -0.00000000000E+00 -0.89199367111E+02  0.89199367111E+02  0.00000000000E+00 0.  1.
         23    2    1    2    0    0  0.00000000000E+00  0.00000000000E+00 -0.65866809824E+02  0.11253192440E+03  0.91241423553E+02 0.  0.
        -11    1    3    3    0    0 -0.29454336974E+02 -0.19660592502E+02 -0.68404653918E+02  0.77027875096E+02  0.00000000000E+00 0.  1.
         11    1    3    3    0    0  0.29454336974E+02  0.19660592502E+02  0.25378440937E+01  0.35504049301E+02  0.00000000000E+00 0. -1.
<mgrwt>
<rscale>  0 0.91241424E+02</rscale>
<asrwt>0</asrwt>
<pdfrwt beam="1">  1        4 0.35896241E-02 0.91241424E+02</pdfrwt>
<pdfrwt beam="2">  1       -4 0.13722980E-01 0.91241424E+02</pdfrwt>
<totfact> 0.25654080E+04</totfact>
</mgrwt>
</event>
<event>
 5    1  0.1239369E+001  0.1157457E+03  0.7546771E-02  0.1250285E+00
         -1   -1    0    0    0  501 -0.00000000000E+00  0.00000000000E+00  0.11828100957E+02  0.11828100957E+02  0.00000000000E+00 0.  1.
          1   -1    0    0  501    0  0.00000000000E+00 -0.00000000000E+00 -0.28316172216E+03  0.28316172216E+03  0.00000000000E+00 0. -1.
         23    2    1    2    0    0  0.00000000000E+00  0.00000000000E+00 -0.27133362120E+03  0.29498982312E+03  0.11574567702E+03 0.  0.
        -13    1    3    3    0    0 -0.55754755250E+02  0.12247012366E+02 -0.11139701424E+03  0.12517138981E+03  0.00000000000E+00 0.  1.
         13    1    3    3    0    0  0.55754755250E+02 -0.12247012366E+02 -0.15993660696E+03  0.16981843331E+03  0.00000000000E+00 0. -1.
<mgrwt>
<rscale>  0 0.11574568E+03</rscale>
<asrwt>0</asrwt>
<pdfrwt beam="2">  1        1 0.43563341E-01 0.11574568E+03</pdfrwt>
<pdfrwt beam="1">  1       -1 0.18197079E-02 0.11574568E+03</pdfrwt>
<totfact> 0.66509638E+04</totfact>
</mgrwt>
</event>
<event>
 5    1  0.1239369E+001  0.9798093E+02  0.7546771E-02  0.1284600E+00
         -2   -1    0    0    0  501 -0.00000000000E+00  0.00000000000E+00  0.12003999142E+02  0.12003999142E+02  0.00000000000E+00 0.  1.
          2   -1    0    0  501    0  0.00000000000E+00 -0.00000000000E+00 -0.19993885332E+03  0.19993885332E+03  0.00000000000E+00 0. -1.
         23    2    1    2    0    0  0.00000000000E+00  0.00000000000E+00 -0.18793485418E+03  0.21194285246E+03  0.97980933321E+02 0.  0.
        -13    1    3    3    0    0  0.44106969141E+02 -0.21937136007E+00 -0.47847505300E+02  0.65075775939E+02  0.00000000000E+00 0.  1.
         13    1    3    3    0    0 -0.44106969141E+02  0.21937136007E+00 -0.14008734888E+03  0.14686707652E+03  0.00000000000E+00 0. -1.
<mgrwt>
<rscale>  0 0.97980933E+02</rscale>
<asrwt>0</asrwt>
<pdfrwt beam="2">  1        2 0.30759821E-01 0.97980933E+02</pdfrwt>
<pdfrwt beam="1">  1       -2 0.18467692E-02 0.97980933E+02</pdfrwt>
<totfact> 0.12729514E+05</totfact>
</mgrwt>
</event>
<event>
 5    1  0.1239369E+001  0.9071945E+02  0.7546771E-02  0.1301119E+00
          1   -1    0    0  501    0  0.00000000000E+00  0.00000000000E+00  0.71638087665E+02  0.71638087665E+02  0.00000000000E+00 0. -1.
         -1   -1    0    0    0  501 -0.00000000000E+00 -0.00000000000E+00 -0.28720821389E+02  0.28720821389E+02  0.00000000000E+00 0.  1.
         23    2    1    2    0    0  0.00000000000E+00  0.00000000000E+00  0.42917266276E+02  0.10035890905E+03  0.90719451508E+02 0.  0.
        -11    1    3    3    0    0  0.23935001800E+02 -0.94968441981E+01 -0.19851246607E+02  0.32513787118E+02  0.00000000000E+00 0.  1.
         11    1    3    3    0    0 -0.23935001800E+02  0.94968441981E+01  0.62768512883E+02  0.67845121936E+02  0.00000000000E+00 0. -1.
<mgrwt>
<rscale>  0 0.90719452E+02</rscale>
<asrwt>0</asrwt>
<pdfrwt beam="1">  1        1 0.11021244E-01 0.90719452E+02</pdfrwt>
<pdfrwt beam="2">  1       -1 0.44185879E-02 0.90719452E+02</pdfrwt>
<totfact> 0.10040130E+05</totfact>
</mgrwt>
</event>
<event>
 5    1  0.1239369E+001  0.8997037E+02  0.7546771E-02  0.1302923E+00
         -1   -1    0    0    0  501 -0.00000000000E+00  0.00000000000E+00  0.12024315817E+03  0.12024315817E+03  0.00000000000E+00 0.  1.
          1   -1    0    0  501    0  0.00000000000E+00 -0.00000000000E+00 -0.16829786711E+02  0.16829786711E+02  0.00000000000E+00 0. -1.
         23    2    1    2    0    0  0.00000000000E+00  0.00000000000E+00  0.10341337146E+03  0.13707294488E+03  0.89970366354E+02 0.  0.
        -13    1    3    3    0    0 -0.21437107893E+02  0.13346682766E+02  0.10842603409E+03  0.11132784200E+03  0.00000000000E+00 0.  1.
         13    1    3    3    0    0  0.21437107893E+02 -0.13346682766E+02 -0.50126626327E+01  0.25745102881E+02  0.00000000000E+00 0. -1.
<mgrwt>
<rscale>  0 0.89970366E+02</rscale>
<asrwt>0</asrwt>
<pdfrwt beam="2">  1        1 0.25891980E-02 0.89970366E+02</pdfrwt>
<pdfrwt beam="1">  1       -1 0.18498947E-01 0.89970366E+02</pdfrwt>
<totfact> 0.81245627E+04</totfact>
</mgrwt>
</event>
<event>
 5    1  0.1239369E+001  0.9212957E+02  0.7546771E-02  0.1297775E+00
          1   -1    0    0  501    0  0.00000000000E+00  0.00000000000E+00  0.18652245873E+03  0.18652245873E+03  0.00000000000E+00 0. -1.
         -1   -1    0    0    0  501 -0.00000000000E+00 -0.00000000000E+00 -0.11376456135E+02  0.11376456135E+02  0.00000000000E+00 0.  1.
         23    2    1    2    0    0  0.00000000000E+00  0.00000000000E+00  0.17514600259E+03  0.19789891486E+03  0.92129573316E+02 0.  0.
        -11    1    3    3    0    0 -0.42815387803E+02 -0.94862294292E+01  0.57284844421E+02  0.72143602501E+02  0.00000000000E+00 0.  1.
         11    1    3    3    0    0  0.42815387803E+02  0.94862294292E+01  0.11786115817E+03  0.12575531236E+03  0.00000000000E+00 0. -1.
<mgrwt>
<rscale>  0 0.92129573E+02</rscale>
<asrwt>0</asrwt>
<pdfrwt beam="1">  1        1 0.28695761E-01 0.92129573E+02</pdfrwt>
<pdfrwt beam="2">  1       -1 0.17502242E-02 0.92129573E+02</pdfrwt>
<totfact> 0.11360077E+05</totfact>
</mgrwt>
</event>
<event>
 5    1  0.1239369E+001  0.9300929E+02  0.7546771E-02  0.1295724E+00
          1   -1    0    0  501    0  0.00000000000E+00  0.00000000000E+00  0.22500732779E+03  0.22500732779E+03  0.00000000000E+00 0. -1.
         -1   -1    0    0    0  501 -0.00000000000E+00 -0.00000000000E+00 -0.96116079768E+01  0.96116079768E+01  0.00000000000E+00 0.  1.
         23    2    1    2    0    0  0.00000000000E+00  0.00000000000E+00  0.21539571982E+03  0.23461893577E+03  0.93009294733E+02 0.  0.
        -13    1    3    3    0    0 -0.20429147574E+02  0.40784105626E+02  0.84856908086E+02  0.96339961554E+02  0.00000000000E+00 0. -1.
         13    1    3    3    0    0  0.20429147574E+02 -0.40784105626E+02  0.13053881173E+03  0.13827897422E+03  0.00000000000E+00 0.  1.
<mgrwt>
<rscale>  0 0.93009295E+02</rscale>
<asrwt>0</asrwt>
<pdfrwt beam="1">  1        1 0.34616508E-01 0.93009295E+02</pdfrwt>
<pdfrwt beam="2">  1       -1 0.14787091E-02 0.93009295E+02</pdfrwt>
<totfact> 0.11486024E+05</totfact>
</mgrwt>
</event>
<event>
 5    1  0.1239369E+001  0.8920343E+02  0.7546771E-02  0.1304792E+00
         -1   -1    0    0    0  501 -0.00000000000E+00  0.00000000000E+00  0.14032341978E+02  0.14032341978E+02  0.00000000000E+00 0.  1.
          1   -1    0    0  501    0  0.00000000000E+00 -0.00000000000E+00 -0.14176626978E+03  0.14176626978E+03  0.00000000000E+00 0. -1.
         23    2    1    2    0    0  0.00000000000E+00  0.00000000000E+00 -0.12773392780E+03  0.15579861176E+03  0.89203425463E+02 0.  0.
        -11    1    3    3    0    0  0.31918157096E+02 -0.28245651900E+02 -0.40912751990E+02  0.59079936349E+02  0.00000000000E+00 0.  1.
         11    1    3    3    0    0 -0.31918157096E+02  0.28245651900E+02 -0.86821175812E+02  0.96718675410E+02  0.00000000000E+00 0. -1.
<mgrwt>
<rscale>  0 0.89203425E+02</rscale>
<asrwt>0</asrwt>
<pdfrwt beam="2">  1        1 0.21810194E-01 0.89203425E+02</pdfrwt>
<pdfrwt beam="1">  1       -1 0.21588220E-02 0.89203425E+02</pdfrwt>
<totfact> 0.11772542E+05</totfact>
</mgrwt>
</event>
<event>
 5    1  0.1239369E+001  0.8908660E+02  0.7546771E-02  0.1305079E+00
         -3   -1    0    0    0  501 -0.00000000000E+00  0.00000000000E+00  0.10878028311E+03  0.10878028311E+03  0.00000000000E+00 0.  1.
          3   -1    0    0  501    0  0.00000000000E+00 -0.00000000000E+00 -0.18239568585E+02  0.18239568585E+02  0.00000000000E+00 0. -1.
         23    2    1    2    0    0  0.00000000000E+00  0.00000000000E+00  0.90540714523E+02  0.12701985169E+03  0.89086596846E+02 0.  0.
        -11    1    3    3    0    0  0.43395801396E+02 -0.79954498017E+01  0.36599577088E+02  0.57329327917E+02  0.00000000000E+00 0.  1.
         11    1    3    3    0    0 -0.43395801396E+02  0.79954498017E+01  0.53941137435E+02  0.69690523776E+02  0.00000000000E+00 0. -1.
<mgrwt>
<rscale>  0 0.89086597E+02</rscale>
<asrwt>0</asrwt>
<pdfrwt beam="2">  1        3 0.28060875E-02 0.89086597E+02</pdfrwt>
<pdfrwt beam="1">  1       -3 0.16735428E-01 0.89086597E+02</pdfrwt>
<totfact> 0.34897500E+04</totfact>
</mgrwt>
</event>
<event>
 5    1  0.1239369E+001  0.8555485E+02  0.7546771E-02  0.1313988E+00
          3   -1    0    0  501    0  0.00000000000E+00  0.00000000000E+00  0.39568033977E+02  0.39568033977E+02  0.00000000000E+00 0. -1.
         -3   -1    0    0    0  501 -0.00000000000E+00 -0.00000000000E+00 -0.46247136944E+02  0.46247136944E+02  0.00000000000E+00 0.  1.
         23    2    1    2    0    0  0.00000000000E+00  0.00000000000E+00 -0.66791029675E+01  0.85815170921E+02  0.85554854589E+02 0.  0.
        -13    1    3    3    0    0  0.77289150435E+01  0.29207883538E+02  0.27035782344E+02  0.40543434925E+02  0.00000000000E+00 0. -1.
         13    1    3    3    0    0 -0.77289150435E+01 -0.29207883538E+02 -0.33714885312E+02  0.45271735996E+02  0.00000000000E+00 0.  1.
<mgrwt>
<rscale>  0 0.85554855E+02</rscale>
<asrwt>0</asrwt>
<pdfrwt beam="1">  1        3 0.60873899E-02 0.85554855E+02</pdfrwt>
<pdfrwt beam="2">  1       -3 0.71149441E-02 0.85554855E+02</pdfrwt>
<totfact> 0.42494016E+04</totfact>
</mgrwt>
</event>
<event>
 5    1  0.1239369E+001  0.9233918E+02  0.7546771E-02  0.1297284E+00
         -2   -1    0    0    0  501 -0.00000000000E+00  0.00000000000E+00  0.93377573430E+02  0.93377573430E+02  0.00000000000E+00 0.  1.
          2   -1    0    0  501    0  0.00000000000E+00 -0.00000000000E+00 -0.22828084205E+02  0.22828084205E+02  0.00000000000E+00 0. -1.
         23    2    1    2    0    0  0.00000000000E+00  0.00000000000E+00  0.70549489225E+02  0.11620565764E+03  0.92339181481E+02 0.  0.
        -13    1    3    3    0    0  0.28422041415E+02  0.11534986145E+02  0.78701149310E+02  0.84467385696E+02  0.00000000000E+00 0.  1.
         13    1    3    3    0    0 -0.28422041415E+02 -0.11534986145E+02 -0.81516600848E+01  0.31738271940E+02  0.00000000000E+00 0. -1.
<mgrwt>
<rscale>  0 0.92339181E+02</rscale>
<asrwt>0</asrwt>
<pdfrwt beam="2">  1        2 0.35120130E-02 0.92339181E+02</pdfrwt>
<pdfrwt beam="1">  1       -2 0.14365780E-01 0.92339181E+02</pdfrwt>
<totfact> 0.78913123E+04</totfact>
</mgrwt>
</event>
<event>
 5    1  0.1239369E+001  0.8483593E+02  0.7546771E-02  0.1315862E+00
          3   -1    0    0  501    0  0.00000000000E+00  0.00000000000E+00  0.15574287935E+03  0.15574287935E+03  0.00000000000E+00 0. -1.
         -3   -1    0    0    0  501 -0.00000000000E+00 -0.00000000000E+00 -0.11552912442E+02  0.11552912442E+02  0.00000000000E+00 0.  1.
         23    2    1    2    0    0  0.00000000000E+00  0.00000000000E+00  0.14418996690E+03  0.16729579179E+03  0.84835932210E+02 0.  0.
        -13    1    3    3    0    0  0.17347539924E+02  0.16091500300E+02  0.26704875112E+01  0.23811867353E+02  0.00000000000E+00 0.  1.
         13    1    3    3    0    0 -0.17347539924E+02 -0.16091500300E+02  0.14151947939E+03  0.14348392443E+03  0.00000000000E+00 0. -1.
<mgrwt>
<rscale>  0 0.84835932E+02</rscale>
<asrwt>0</asrwt>
<pdfrwt beam="1">  1        3 0.23960441E-01 0.84835932E+02</pdfrwt>
<pdfrwt beam="2">  1       -3 0.17773713E-02 0.84835932E+02</pdfrwt>
<totfact> 0.36758418E+04</totfact>
</mgrwt>
</event>
<event>
 5    1  0.1239369E+001  0.9672853E+02  0.7546771E-02  0.1287330E+00
         -1   -1    0    0    0  501 -0.00000000000E+00  0.00000000000E+00  0.43740311193E+02  0.43740311193E+02  0.00000000000E+00 0.  1.
          1   -1    0    0  501    0  0.00000000000E+00 -0.00000000000E+00 -0.53477030818E+02  0.53477030818E+02  0.00000000000E+00 0. -1.
         23    2    1    2    0    0  0.00000000000E+00  0.00000000000E+00 -0.97367196257E+01  0.97217342011E+02  0.96728526705E+02 0.  0.
        -13    1    3    3    0    0  0.13383968751E+02  0.28485413632E+02 -0.41776580518E+02  0.52305182239E+02  0.00000000000E+00 0. -1.
         13    1    3    3    0    0 -0.13383968751E+02 -0.28485413632E+02  0.32039860892E+02  0.44912159771E+02  0.00000000000E+00 0.  1.
<mgrwt>
<rscale>  0 0.96728527E+02</rscale>
<asrwt>0</asrwt>
<pdfrwt beam="2">  1        1 0.82272355E-02 0.96728527E+02</pdfrwt>
<pdfrwt beam="1">  1       -1 0.67292787E-02 0.96728527E+02</pdfrwt>
<totfact> 0.80256919E+04</totfact>
</mgrwt>
</event>
<event>
 5    1  0.1239369E+001  0.9097683E+02  0.7546771E-02  0.1300503E+00
          1   -1    0    0  501    0  0.00000000000E+00  0.00000000000E+00  0.25744696649E+02  0.25744696649E+02  0.00000000000E+00 0. -1.
         -1   -1    0    0    0  501 -0.00000000000E+00 -0.00000000000E+00 -0.80373673457E+02  0.80373673457E+02  0.00000000000E+00 0.  1.
         23    2    1    2    0    0  0.00000000000E+00  0.00000000000E+00 -0.54628976808E+02  0.10611837011E+03  0.90976828736E+02 0.  0.
        -13    1    3    3    0    0  0.12007708952E+02 -0.72485154865E+01 -0.77788426029E+02  0.79042806599E+02  0.00000000000E+00 0.  1.
         13    1    3    3    0    0 -0.12007708952E+02  0.72485154865E+01  0.23159449220E+02  0.27075563507E+02  0.00000000000E+00 0. -1.
<mgrwt>
<rscale>  0 0.90976829E+02</rscale>
<asrwt>0</asrwt>
<pdfrwt beam="1">  1        1 0.39607226E-02 0.90976829E+02</pdfrwt>
<pdfrwt beam="2">  1       -1 0.12365181E-01 0.90976829E+02</pdfrwt>
<totfact> 0.85061018E+04</totfact>
</mgrwt>
</event>
<event>
 5    1  0.1239369E+001  0.9323744E+02  0.7546771E-02  0.1295196E+00
         -2   -1    0    0    0  501 -0.00000000000E+00  0.00000000000E+00  0.52844682855E+02  0.52844682855E+02  0.00000000000E+00 0.  1.
          2   -1    0    0  501    0  0.00000000000E+00 -0.00000000000E+00 -0.41126273788E+02  0.41126273788E+02  0.00000000000E+00 0. -1.
         23    2    1    2    0    0  0.00000000000E+00  0.00000000000E+00  0.11718409067E+02  0.93970956643E+02  0.93237436588E+02 0.  0.
        -13    1    3    3    0    0  0.11267847888E+02 -0.25064440191E+02 -0.32094917286E+02  0.42252506123E+02  0.00000000000E+00 0. -1.
         13    1    3    3    0    0 -0.11267847888E+02  0.25064440191E+02  0.43813326353E+02  0.51718450520E+02  0.00000000000E+00 0.  1.
<mgrwt>
<rscale>  0 0.93237437E+02</rscale>
<asrwt>0</asrwt>
<pdfrwt beam="2">  1        2 0.63271191E-02 0.93237437E+02</pdfrwt>
<pdfrwt beam="1">  1       -2 0.81299512E-02 0.93237437E+02</pdfrwt>
<totfact> 0.90046480E+04</totfact>
</mgrwt>
</event>
<event>
 5    1  0.1239369E+001  0.9035979E+02  0.7546771E-02  0.1301983E+00
         -2   -1    0    0    0  501 -0.00000000000E+00  0.00000000000E+00  0.77406171326E+01  0.77406171326E+01  0.00000000000E+00 0.  1.
          2   -1    0    0  501    0  0.00000000000E+00 -0.00000000000E+00 -0.26370287039E+03  0.26370287039E+03  0.00000000000E+00 0. -1.
         23    2    1    2    0    0  0.00000000000E+00  0.00000000000E+00 -0.25596225326E+03  0.27144348752E+03  0.90359790980E+02 0.  0.
        -11    1    3    3    0    0  0.24890682148E+02  0.37549971860E+02 -0.11771608360E+03  0.12604214685E+03  0.00000000000E+00 0. -1.
         11    1    3    3    0    0 -0.24890682148E+02 -0.37549971860E+02 -0.13824616966E+03  0.14540134067E+03  0.00000000000E+00 0.  1.
<mgrwt>
<rscale>  0 0.90359791E+02</rscale>
<asrwt>0</asrwt>
<pdfrwt beam="2">  1        2 0.40569666E-01 0.90359791E+02</pdfrwt>
<pdfrwt beam="1">  1       -2 0.11908644E-02 0.90359791E+02</pdfrwt>
<totfact> 0.17539123E+05</totfact>
</mgrwt>
</event>
<event>
 5    1  0.1239369E+001  0.9061025E+02  0.7546771E-02  0.1301381E+00
         -2   -1    0    0    0  501 -0.00000000000E+00  0.00000000000E+00  0.10037476704E+02  0.10037476704E+02  0.00000000000E+00 0.  1.
          2   -1    0    0  501    0  0.00000000000E+00 -0.00000000000E+00 -0.20448906224E+03  0.20448906224E+03  0.00000000000E+00 0. -1.
         23    2    1    2    0    0  0.00000000000E+00  0.00000000000E+00 -0.19445158554E+03  0.21452653895E+03  0.90610246626E+02 0.  0.
        -13    1    3    3    0    0 -0.21245757740E+02  0.35483878382E+02 -0.53437411453E+02  0.67572515047E+02  0.00000000000E+00 0. -1.
         13    1    3    3    0    0  0.21245757740E+02 -0.35483878382E+02 -0.14101417409E+03  0.14695402390E+03  0.00000000000E+00 0.  1.
<mgrwt>
<rscale>  0 0.90610247E+02</rscale>
<asrwt>0</asrwt>
<pdfrwt beam="2">  1        2 0.31459855E-01 0.90610247E+02</pdfrwt>
<pdfrwt beam="1">  1       -2 0.15442272E-02 0.90610247E+02</pdfrwt>
<totfact> 0.15856382E+05</totfact>
</mgrwt>
</event>
<event>
 5    1  0.1239369E+001  0.9058875E+02  0.7546771E-02  0.1301432E+00
         -1   -1    0    0    0  501 -0.00000000000E+00  0.00000000000E+00  0.12136971266E+02  0.12136971266E+02  0.00000000000E+00 0.  1.
          1   -1    0    0  501    0  0.00000000000E+00 -0.00000000000E+00 -0.16903562464E+03  0.16903562464E+03  0.00000000000E+00 0. -1.
         23    2    1    2    0    0  0.00000000000E+00  0.00000000000E+00 -0.15689865337E+03  0.18117259591E+03  0.90588752486E+02 0.  0.
        -11    1    3    3    0    0 -0.18664828417E+02  0.41241601197E+02 -0.81505404943E+02  0.93232915454E+02  0.00000000000E+00 0. -1.
         11    1    3    3    0    0  0.18664828417E+02 -0.41241601197E+02 -0.75393248430E+02  0.87939680452E+02  0.00000000000E+00 0.  1.
<mgrwt>
<rscale>  0 0.90588752E+02</rscale>
<asrwt>0</asrwt>
<pdfrwt beam="2">  1        1 0.26005481E-01 0.90588752E+02</pdfrwt>
<pdfrwt beam="1">  1       -1 0.18672264E-02 0.90588752E+02</pdfrwt>
<totfact> 0.11666465E+05</totfact>
</mgrwt>
</event>
<event>
 5    1  0.1239369E+001  0.8900869E+02  0.7546771E-02  0.1305270E+00
         -2   -1    0    0    0  501 -0.00000000000E+00  0.00000000000E+00  0.56660654240E+01  0.56660654240E+01  0.00000000000E+00 0.  1.
          2   -1    0    0  501    0  0.00000000000E+00 -0.00000000000E+00 -0.34956124362E+03  0.34956124362E+03  0.00000000000E+00 0. -1.
         23    2    1    2    0    0  0.00000000000E+00  0.00000000000E+00 -0.34389517820E+03  0.35522730904E+03  0.89008693419E+02 0.  0.
        -11    1    3    3    0    0  0.39263998532E+02  0.13967887073E+02 -0.10962346844E+03  0.11727773993E+03  0.00000000000E+00 0.  1.
         11    1    3    3    0    0 -0.39263998532E+02 -0.13967887073E+02 -0.23427170976E+03  0.23794956912E+03  0.00000000000E+00 0. -1.
<mgrwt>
<rscale>  0 0.89008693E+02</rscale>
<asrwt>0</asrwt>
<pdfrwt beam="2">  1        2 0.53778674E-01 0.89008693E+02</pdfrwt>
<pdfrwt beam="1">  1       -2 0.87170203E-03 0.89008693E+02</pdfrwt>
<totfact> 0.20265756E+05</totfact>
</mgrwt>
</event>
<event>
 5    1  0.1239369E+001  0.8773384E+02  0.7546771E-02  0.1308434E+00
         -4   -1    0    0    0  501 -0.00000000000E+00  0.00000000000E+00  0.25174296713E+02  0.25174296713E+02  0.00000000000E+00 0.  1.
          4   -1    0    0  501    0  0.00000000000E+00 -0.00000000000E+00 -0.76439340688E+02  0.76439340688E+02  0.00000000000E+00 0. -1.
         23    2    1    2    0    0  0.00000000000E+00  0.00000000000E+00 -0.51265043975E+02  0.10161363740E+03  0.87733839378E+02 0.  0.
        -11    1    3    3    0    0 -0.34451453518E+02 -0.12299082008E+02  0.24078824813E+01  0.36660168655E+02  0.00000000000E+00 0.  1.
         11    1    3    3    0    0  0.34451453518E+02  0.12299082008E+02 -0.53672926456E+02  0.64953468746E+02  0.00000000000E+00 0. -1.
<mgrwt>
<rscale>  0 0.87733839E+02</rscale>
<asrwt>0</asrwt>
<pdfrwt beam="2">  1        4 0.11759898E-01 0.87733839E+02</pdfrwt>
<pdfrwt beam="1">  1       -4 0.38729688E-02 0.87733839E+02</pdfrwt>
<totfact> 0.29242574E+04</totfact>
</mgrwt>
</event>
<event>
 5    1  0.1239369E+001  0.9213730E+02  0.7546771E-02  0.1297757E+00
         -2   -1    0    0    0  501 -0.00000000000E+00  0.00000000000E+00  0.15205379629E+02  0.15205379629E+02  0.00000000000E+00 0.  1.
          2   -1    0    0  501    0  0.00000000000E+00 -0.00000000000E+00 -0.13957694332E+03  0.13957694332E+03  0.00000000000E+00 0. -1.
         23    2    1    2    0    0  0.00000000000E+00  0.00000000000E+00 -0.12437156369E+03  0.15478232294E+03  0.92137297779E+02 0.  0.
        -13    1    3    3    0    0 -0.16542490302E+02  0.22747494178E+02 -0.12347872405E+03  0.12664161152E+03  0.00000000000E+00 0. -1.
         13    1    3    3    0    0  0.16542490302E+02 -0.22747494178E+02 -0.89283964143E+00  0.28140711423E+02  0.00000000000E+00 0.  1.
<mgrwt>
<rscale>  0 0.92137298E+02</rscale>
<asrwt>0</asrwt>
<pdfrwt beam="2">  1        2 0.21473376E-01 0.92137298E+02</pdfrwt>
<pdfrwt beam="1">  1       -2 0.23392892E-02 0.92137298E+02</pdfrwt>
<totfact> 0.13261463E+05</totfact>
</mgrwt>
</event>
<event>
 5    1  0.1239369E+001  0.8492125E+02  0.7546771E-02  0.1315639E+00
          1   -1    0    0  501    0  0.00000000000E+00  0.00000000000E+00  0.31337367796E+02  0.31337367796E+02  0.00000000000E+00 0. -1.
         -1   -1    0    0    0  501 -0.00000000000E+00 -0.00000000000E+00 -0.57532108317E+02  0.57532108317E+02  0.00000000000E+00 0.  1.
         23    2    1    2    0    0  0.00000000000E+00  0.00000000000E+00 -0.26194740521E+02  0.88869476113E+02  0.84921253839E+02 0.  0.
        -13    1    3    3    0    0  0.18683477970E+02  0.12339554396E+02 -0.50851949503E+02  0.55563096746E+02  0.00000000000E+00 0.  1.
         13    1    3    3    0    0 -0.18683477970E+02 -0.12339554396E+02  0.24657208982E+02  0.33306379367E+02  0.00000000000E+00 0. -1.
<mgrwt>
<rscale>  0 0.84921254E+02</rscale>
<asrwt>0</asrwt>
<pdfrwt beam="1">  1        1 0.48211336E-02 0.84921254E+02</pdfrwt>
<pdfrwt beam="2">  1       -1 0.88510935E-02 0.84921254E+02</pdfrwt>
<totfact> 0.10683479E+05</totfact>
</mgrwt>
</event>
<event>
 5    1  0.1239369E+001  0.8418616E+02  0.7546771E-02  0.1317575E+00
         -1   -1    0    0    0  501 -0.00000000000E+00  0.00000000000E+00  0.22878555110E+02  0.22878555110E+02  0.00000000000E+00 0.  1.
          1   -1    0    0  501    0  0.00000000000E+00 -0.00000000000E+00 -0.77444897257E+02  0.77444897257E+02  0.00000000000E+00 0. -1.
         23    2    1    2    0    0  0.00000000000E+00  0.00000000000E+00 -0.54566342147E+02  0.10032345237E+03  0.84186159191E+02 0.  0.
        -11    1    3    3    0    0 -0.21307434687E+02  0.32327268324E+02 -0.76016472242E+01  0.39456863671E+02  0.00000000000E+00 0. -1.
         11    1    3    3    0    0  0.21307434687E+02 -0.32327268324E+02 -0.46964694923E+02  0.60866588695E+02  0.00000000000E+00 0.  1.
<mgrwt>
<rscale>  0 0.84186159E+02</rscale>
<asrwt>0</asrwt>
<pdfrwt beam="2">  1        1 0.11914599E-01 0.84186159E+02</pdfrwt>
<pdfrwt beam="1">  1       -1 0.35197777E-02 0.84186159E+02</pdfrwt>
<totfact> 0.12462461E+05</totfact>
</mgrwt>
</event>
<event>
 5    1  0.1239369E+001  0.9261726E+02  0.7546771E-02  0.1296635E+00
          4   -1    0    0  501    0  0.00000000000E+00  0.00000000000E+00  0.39710952724E+02  0.39710952724E+02  0.00000000000E+00 0.  1.
         -4   -1    0    0    0  501 -0.00000000000E+00 -0.00000000000E+00 -0.54002456157E+02  0.54002456157E+02  0.00000000000E+00 0. -1.
         23    2    1    2    0    0  0.00000000000E+00  0.00000000000E+00 -0.14291503432E+02  0.93713408881E+02  0.92617255054E+02 0.  0.
        -11    1    3    3    0    0 -0.43900779620E+02  0.13472686373E+02 -0.11003211748E+01  0.45934762828E+02  0.00000000000E+00 0. -1.
         11    1    3    3    0    0  0.43900779620E+02 -0.13472686373E+02 -0.13191182257E+02  0.47778646053E+02  0.00000000000E+00 0.  1.
<mgrwt>
<rscale>  0 0.92617255E+02</rscale>
<asrwt>0</asrwt>
<pdfrwt beam="1">  1        4 0.61093774E-02 0.92617255E+02</pdfrwt>
<pdfrwt beam="2">  1       -4 0.83080701E-02 0.92617255E+02</pdfrwt>
<totfact> 0.25732606E+04</totfact>
</mgrwt>
</event>
<event>
 5    1  0.1239369E+001  0.8365009E+02  0.7546771E-02  0.1319001E+00
          2   -1    0    0  501    0  0.00000000000E+00  0.00000000000E+00  0.27016406359E+02  0.27016406359E+02  0.00000000000E+00 0. -1.
         -2   -1    0    0    0  501 -0.00000000000E+00 -0.00000000000E+00 -0.64750814973E+02  0.64750814973E+02  0.00000000000E+00 0.  1.
         23    2    1    2    0    0  0.00000000000E+00  0.00000000000E+00 -0.37734408614E+02  0.91767221332E+02  0.83650088569E+02 0.  0.
        -13    1    3    3    0    0 -0.33381828757E+02  0.22555683745E+02 -0.65418136229E+01  0.40815446657E+02  0.00000000000E+00 0. -1.
         13    1    3    3    0    0  0.33381828757E+02 -0.22555683745E+02 -0.31192594991E+02  0.50951774676E+02  0.00000000000E+00 0.  1.
<mgrwt>
<rscale>  0 0.83650089E+02</rscale>
<asrwt>0</asrwt>
<pdfrwt beam="1">  1        2 0.41563703E-02 0.83650089E+02</pdfrwt>
<pdfrwt beam="2">  1       -2 0.99616637E-02 0.83650089E+02</pdfrwt>
<totfact> 0.11100523E+05</totfact>
</mgrwt>
</event>
<event>
 5    1  0.1239369E+001  0.9023448E+02  0.7546771E-02  0.1302285E+00
          1   -1    0    0  501    0  0.00000000000E+00  0.00000000000E+00  0.69796867600E+01  0.69796867600E+01  0.00000000000E+00 0. -1.
         -1   -1    0    0    0  501 -0.00000000000E+00 -0.00000000000E+00 -0.29164138425E+03  0.29164138425E+03  0.00000000000E+00 0.  1.
         23    2    1    2    0    0  0.00000000000E+00  0.00000000000E+00 -0.28466169749E+03  0.29862107101E+03  0.90234483615E+02 0.  0.
        -13    1    3    3    0    0  0.37330327457E+02  0.18160031723E+02 -0.20080743781E+03  0.20505357149E+03  0.00000000000E+00 0.  1.
         13    1    3    3    0    0 -0.37330327457E+02 -0.18160031723E+02 -0.83854259676E+02  0.93567499518E+02  0.00000000000E+00 0. -1.
<mgrwt>
<rscale>  0 0.90234484E+02</rscale>
<asrwt>0</asrwt>
<pdfrwt beam="1">  1        1 0.10737981E-02 0.90234484E+02</pdfrwt>
<pdfrwt beam="2">  1       -1 0.44867898E-01 0.90234484E+02</pdfrwt>
<totfact> 0.62941667E+04</totfact>
</mgrwt>
</event>
<event>
 5    1  0.1239369E+001  0.9399046E+02  0.7546771E-02  0.1293466E+00
          2   -1    0    0  501    0  0.00000000000E+00  0.00000000000E+00  0.74674268540E+01  0.74674268540E+01  0.00000000000E+00 0. -1.
         -2   -1    0    0    0  501 -0.00000000000E+00 -0.00000000000E+00 -0.29575803040E+03  0.29575803040E+03  0.00000000000E+00 0.  1.
         23    2    1    2    0    0  0.00000000000E+00  0.00000000000E+00 -0.28829060354E+03  0.30322545725E+03  0.93990456079E+02 0.  0.
        -11    1    3    3    0    0  0.34807760590E+02 -0.25163326083E+02 -0.20567719620E+03  0.21011397434E+03  0.00000000000E+00 0.  1.
         11    1    3    3    0    0 -0.34807760590E+02  0.25163326083E+02 -0.82613407346E+02  0.93111482913E+02  0.00000000000E+00 0. -1.
<mgrwt>
<rscale>  0 0.93990456E+02</rscale>
<asrwt>0</asrwt>
<pdfrwt beam="1">  1        2 0.11488348E-02 0.93990456E+02</pdfrwt>
<pdfrwt beam="2">  1       -2 0.45501241E-01 0.93990456E+02</pdfrwt>
<totfact> 0.47535082E+04</totfact>
</mgrwt>
</event>
<event>
 5    1  0.1239369E+001  0.9098627E+02  0.7546771E-02  0.1300481E+00
         -1   -1    0    0    0  501 -0.00000000000E+00  0.00000000000E+00  0.12231813678E+02  0.12231813678E+02  0.00000000000E+00 0.  1.
          1   -1    0    0  501    0  0.00000000000E+00 -0.00000000000E+00 -0.16920018525E+03  0.16920018525E+03  0.00000000000E+00 0. -1.
         23    2    1    2    0    0  0.00000000000E+00  0.00000000000E+00 -0.15696837157E+03  0.18143199893E+03  0.90986265784E+02 0.  0.
        -11    1    3    3    0    0 -0.73808984338E+01  0.41438534090E+02 -0.44061654513E+02  0.60934876447E+02  0.00000000000E+00 0.  1.
         11    1    3    3    0    0  0.73808984338E+01 -0.41438534090E+02 -0.11290671706E+03  0.12049712248E+03  0.00000000000E+00 0. -1.
<mgrwt>
<rscale>  0 0.90986266E+02</rscale>
<asrwt>0</asrwt>
<pdfrwt beam="2">  1        1 0.26030798E-01 0.90986266E+02</pdfrwt>
<pdfrwt beam="1">  1       -1 0.18818175E-02 0.90986266E+02</pdfrwt>
<totfact> 0.11532127E+05</totfact>
</mgrwt>
</event>
<event>
 5    1  0.1239369E+001  0.9239324E+02  0.7546771E-02  0.1297157E+00
          3   -1    0    0  501    0  0.00000000000E+00  0.00000000000E+00  0.57108138403E+02  0.57108138403E+02  0.00000000000E+00 0. -1.
         -3   -1    0    0    0  501 -0.00000000000E+00 -0.00000000000E+00 -0.37369936958E+02  0.37369936958E+02  0.00000000000E+00 0.  1.
         23    2    1    2    0    0  0.00000000000E+00  0.00000000000E+00  0.19738201445E+02  0.94478075361E+02  0.92393236374E+02 0.  0.
        -11    1    3    3    0    0  0.27479928332E+02 -0.20924041184E+02  0.41239776451E+02  0.53792946771E+02  0.00000000000E+00 0. -1.
         11    1    3    3    0    0 -0.27479928332E+02  0.20924041184E+02 -0.21501575006E+02  0.40685128589E+02  0.00000000000E+00 0.  1.
<mgrwt>
<rscale>  0 0.92393236E+02</rscale>
<asrwt>0</asrwt>
<pdfrwt beam="1">  1        3 0.87858675E-02 0.92393236E+02</pdfrwt>
<pdfrwt beam="2">  1       -3 0.57492211E-02 0.92393236E+02</pdfrwt>
<totfact> 0.33839812E+04</totfact>
</mgrwt>
</event>
<event>
 5    1  0.1239369E+001  0.9166012E+02  0.7546771E-02  0.1298881E+00
          1   -1    0    0  501    0  0.00000000000E+00  0.00000000000E+00  0.24485853295E+03  0.24485853295E+03  0.00000000000E+00 0. -1.
         -1   -1    0    0    0  501 -0.00000000000E+00 -0.00000000000E+00 -0.85779920102E+01  0.85779920102E+01  0.00000000000E+00 0.  1.
         23    2    1    2    0    0  0.00000000000E+00  0.00000000000E+00  0.23628054094E+03  0.25343652496E+03  0.91660123047E+02 0.  0.
        -11    1    3    3    0    0 -0.36730331999E+02  0.25885859620E+02  0.93225005739E+02  0.10348959712E+03  0.00000000000E+00 0.  1.
         11    1    3    3    0    0  0.36730331999E+02 -0.25885859620E+02  0.14305553520E+03  0.14994692784E+03  0.00000000000E+00 0. -1.
<mgrwt>
<rscale>  0 0.91660123E+02</rscale>
<asrwt>0</asrwt>
<pdfrwt beam="1">  1        1 0.37670538E-01 0.91660123E+02</pdfrwt>
<pdfrwt beam="2">  1       -1 0.13196913E-02 0.91660123E+02</pdfrwt>
<totfact> 0.12144073E+05</totfact>
</mgrwt>
</event>
<event>
 5    1  0.1239369E+001  0.9072425E+02  0.7546771E-02  0.1301107E+00
         -2   -1    0    0    0  501 -0.00000000000E+00  0.00000000000E+00  0.10706622563E+02  0.10706622563E+02  0.00000000000E+00 0.  1.
          2   -1    0    0  501    0  0.00000000000E+00 -0.00000000000E+00 -0.19219156558E+03  0.19219156558E+03  0.00000000000E+00 0. -1.
         23    2    1    2    0    0  0.00000000000E+00  0.00000000000E+00 -0.18148494302E+03  0.20289818815E+03  0.90724253702E+02 0.  0.
        -11    1    3    3    0    0  0.56965632325E+01  0.44964458399E+02 -0.86576949099E+02  0.97723187970E+02  0.00000000000E+00 0.  1.
         11    1    3    3    0    0 -0.56965632325E+01 -0.44964458399E+02 -0.94907993921E+02  0.10517500018E+03  0.00000000000E+00 0. -1.
<mgrwt>
<rscale>  0 0.90724254E+02</rscale>
<asrwt>0</asrwt>
<pdfrwt beam="2">  1        2 0.29567931E-01 0.90724254E+02</pdfrwt>
<pdfrwt beam="1">  1       -2 0.16471728E-02 0.90724254E+02</pdfrwt>
<totfact> 0.15453230E+05</totfact>
</mgrwt>
</event>
<event>
 5    1  0.1239369E+001  0.9117681E+02  0.7546771E-02  0.1300027E+00
          3   -1    0    0  501    0  0.00000000000E+00  0.00000000000E+00  0.58150140870E+02  0.58150140870E+02  0.00000000000E+00 0. -1.
         -3   -1    0    0    0  501 -0.00000000000E+00 -0.00000000000E+00 -0.35740286954E+02  0.35740286954E+02  0.00000000000E+00 0.  1.
         23    2    1    2    0    0  0.00000000000E+00  0.00000000000E+00  0.22409853916E+02  0.93890427824E+02  0.91176811112E+02 0.  0.
        -13    1    3    3    0    0 -0.12347679014E+02  0.15232622777E+02  0.53585672476E+02  0.57060689344E+02  0.00000000000E+00 0. -1.
         13    1    3    3    0    0  0.12347679014E+02 -0.15232622777E+02 -0.31175818560E+02  0.36829738481E+02  0.00000000000E+00 0.  1.
<mgrwt>
<rscale>  0 0.91176811E+02</rscale>
<asrwt>0</asrwt>
<pdfrwt beam="1">  1        3 0.89461755E-02 0.91176811E+02</pdfrwt>
<pdfrwt beam="2">  1       -3 0.54985057E-02 0.91176811E+02</pdfrwt>
<totfact> 0.35131167E+04</totfact>
</mgrwt>
</event>
<event>
 5    1  0.1239369E+001  0.8890347E+02  0.7546771E-02  0.1305529E+00
          2   -1    0    0  501    0  0.00000000000E+00  0.00000000000E+00  0.40615155649E+03  0.40615155649E+03  0.00000000000E+00 0. -1.
         -2   -1    0    0    0  501 -0.00000000000E+00 -0.00000000000E+00 -0.48650729807E+01  0.48650729807E+01  0.00000000000E+00 0.  1.
         23    2    1    2    0    0  0.00000000000E+00  0.00000000000E+00  0.40128648351E+03  0.41101662947E+03  0.88903474928E+02 0.  0.
        -11    1    3    3    0    0 -0.22187465911E+02 -0.37505921628E+02  0.24120597851E+03  0.24511079509E+03  0.00000000000E+00 0.  1.
         11    1    3    3    0    0  0.22187465911E+02  0.37505921628E+02  0.16008050500E+03  0.16590583438E+03  0.00000000000E+00 0. -1.
<mgrwt>
<rscale>  0 0.88903475E+02</rscale>
<asrwt>0</asrwt>
<pdfrwt beam="1">  1        2 0.62484828E-01 0.88903475E+02</pdfrwt>
<pdfrwt beam="2">  1       -2 0.74847309E-03 0.88903475E+02</pdfrwt>
<totfact> 0.21460162E+05</totfact>
</mgrwt>
</event>
<event>
 5    1  0.1239369E+001  0.9318084E+02  0.7546771E-02  0.1295327E+00
          1   -1    0    0  501    0  0.00000000000E+00  0.00000000000E+00  0.15503468220E+03  0.15503468220E+03  0.00000000000E+00 0. -1.
         -1   -1    0    0    0  501 -0.00000000000E+00 -0.00000000000E+00 -0.14001173237E+02  0.14001173237E+02  0.00000000000E+00 0.  1.
         23    2    1    2    0    0  0.00000000000E+00  0.00000000000E+00  0.14103350897E+03  0.16903585544E+03  0.93180844455E+02 0.  0.
        -11    1    3    3    0    0  0.72684181248E+01 -0.28923559599E+02  0.55828203481E+01  0.30340897893E+02  0.00000000000E+00 0.  1.
         11    1    3    3    0    0 -0.72684181248E+01  0.28923559599E+02  0.13545068862E+03  0.13869495755E+03  0.00000000000E+00 0. -1.
<mgrwt>
<rscale>  0 0.93180844E+02</rscale>
<asrwt>0</asrwt>
<pdfrwt beam="1">  1        1 0.23851488E-01 0.93180844E+02</pdfrwt>
<pdfrwt beam="2">  1       -1 0.21540268E-02 0.93180844E+02</pdfrwt>
<totfact> 0.10638251E+05</totfact>
</mgrwt>
</event>
<event>
 5    1  0.1239369E+001  0.9326881E+02  0.7546771E-02  0.1295123E+00
          1   -1    0    0  501    0  0.00000000000E+00  0.00000000000E+00  0.17080421485E+02  0.17080421485E+02  0.00000000000E+00 0. -1.
         -1   -1    0    0    0  501 -0.00000000000E+00 -0.00000000000E+00 -0.12732518796E+03  0.12732518796E+03  0.00000000000E+00 0.  1.
         23    2    1    2    0    0  0.00000000000E+00  0.00000000000E+00 -0.11024476647E+03  0.14440560944E+03  0.93268813137E+02 0.  0.
        -13    1    3    3    0    0 -0.44265864967E+02 -0.10461852266E+02 -0.71051603792E+02  0.84363781065E+02  0.00000000000E+00 0.  1.
         13    1    3    3    0    0  0.44265864967E+02  0.10461852266E+02 -0.39193162682E+02  0.60041828379E+02  0.00000000000E+00 0. -1.
<mgrwt>
<rscale>  0 0.93268813E+02</rscale>
<asrwt>0</asrwt>
<pdfrwt beam="1">  1        1 0.26277572E-02 0.93268813E+02</pdfrwt>
<pdfrwt beam="2">  1       -1 0.19588490E-01 0.93268813E+02</pdfrwt>
<totfact> 0.73138759E+04</totfact>
</mgrwt>
</event>
<event>
 5    1  0.1239369E+001  0.9360047E+02  0.7546771E-02  0.1294360E+00
         -2   -1    0    0    0  501 -0.00000000000E+00  0.00000000000E+00  0.51486603497E+02  0.51486603497E+02  0.00000000000E+00 0.  1.
          2   -1    0    0  501    0  0.00000000000E+00 -0.00000000000E+00 -0.42540426270E+02  0.42540426270E+02  0.00000000000E+00 0. -1.
         23    2    1    2    0    0  0.00000000000E+00  0.00000000000E+00  0.89461772275E+01  0.94027029767E+02  0.93600471365E+02 0.  0.
        -11    1    3    3    0    0  0.27815009986E+02 -0.11813714103E+02  0.40371407881E+02  0.50429051109E+02  0.00000000000E+00 0.  1.
         11    1    3    3    0    0 -0.27815009986E+02  0.11813714103E+02 -0.31425230654E+02  0.43597978658E+02  0.00000000000E+00 0. -1.
<mgrwt>
<rscale>  0 0.93600471E+02</rscale>
<asrwt>0</asrwt>
<pdfrwt beam="2">  1        2 0.65446810E-02 0.93600471E+02</pdfrwt>
<pdfrwt beam="1">  1       -2 0.79210159E-02 0.93600471E+02</pdfrwt>
<totfact> 0.89833987E+04</totfact>
</mgrwt>
</event>
<event>
 5    1  0.1239369E+001  0.8855435E+02  0.7546771E-02  0.1306391E+00
          2   -1    0    0  501    0  0.00000000000E+00  0.00000000000E+00  0.10454040123E+02  0.10454040123E+02  0.00000000000E+00 0. -1.
         -2   -1    0    0    0  501 -0.00000000000E+00 -0.00000000000E+00 -0.18753210493E+03  0.18753210493E+03  0.00000000000E+00 0.  1.
         23    2    1    2    0    0  0.00000000000E+00  0.00000000000E+00 -0.17707806481E+03  0.19798614506E+03  0.88554348270E+02 0.  0.
        -13    1    3    3    0    0 -0.17203029318E+02  0.38708134243E+02 -0.11736248517E+03  0.12477266047E+03  0.00000000000E+00 0.  1.
         13    1    3    3    0    0  0.17203029318E+02 -0.38708134243E+02 -0.59715579639E+02  0.73213484591E+02  0.00000000000E+00 0. -1.
<mgrwt>
<rscale>  0 0.88554348E+02</rscale>
<asrwt>0</asrwt>
<pdfrwt beam="1">  1        2 0.16083139E-02 0.88554348E+02</pdfrwt>
<pdfrwt beam="2">  1       -2 0.28851092E-01 0.88554348E+02</pdfrwt>
<totfact> 0.68986012E+04</totfact>
</mgrwt>
</event>
<event>
 5    1  0.1239369E+001  0.9308799E+02  0.7546771E-02  0.1295541E+00
         -2   -1    0    0    0  501 -0.00000000000E+00  0.00000000000E+00  0.58757779857E+02  0.58757779857E+02  0.00000000000E+00 0.  1.
          2   -1    0    0  501    0  0.00000000000E+00 -0.00000000000E+00 -0.36869045979E+02  0.36869045979E+02  0.00000000000E+00 0. -1.
         23    2    1    2    0    0  0.00000000000E+00  0.00000000000E+00  0.21888733878E+02  0.95626825836E+02  0.93087986060E+02 0.  0.
        -11    1    3    3    0    0  0.13761958399E+02 -0.87282290643E+00  0.56611153331E+02  0.58266422580E+02  0.00000000000E+00 0.  1.
         11    1    3    3    0    0 -0.13761958399E+02  0.87282290643E+00 -0.34722419453E+02  0.37360403256E+02  0.00000000000E+00 0. -1.
<mgrwt>
<rscale>  0 0.93087986E+02</rscale>
<asrwt>0</asrwt>
<pdfrwt beam="2">  1        2 0.56721609E-02 0.93087986E+02</pdfrwt>
<pdfrwt beam="1">  1       -2 0.90396585E-02 0.93087986E+02</pdfrwt>
<totfact> 0.87896431E+04</totfact>
</mgrwt>
</event>
<event>
 5    1  0.1239369E+001  0.9282320E+02  0.7546771E-02  0.1296155E+00
          2   -1    0    0  501    0  0.00000000000E+00  0.00000000000E+00  0.89389836878E+01  0.89389836878E+01  0.00000000000E+00 0. -1.
         -2   -1    0    0    0  501 -0.00000000000E+00 -0.00000000000E+00 -0.24097108179E+03  0.24097108179E+03  0.00000000000E+00 0.  1.
         23    2    1    2    0    0  0.00000000000E+00  0.00000000000E+00 -0.23203209810E+03  0.24991006548E+03  0.92823199025E+02 0.  0.
        -13    1    3    3    0    0  0.36215783705E+02  0.17466649275E+02 -0.17842743420E+03  0.18290165691E+03  0.00000000000E+00 0.  1.
         13    1    3    3    0    0 -0.36215783705E+02 -0.17466649275E+02 -0.53604663901E+02  0.67008408564E+02  0.00000000000E+00 0. -1.
<mgrwt>
<rscale>  0 0.92823199E+02</rscale>
<asrwt>0</asrwt>
<pdfrwt beam="1">  1        2 0.13752285E-02 0.92823199E+02</pdfrwt>
<pdfrwt beam="2">  1       -2 0.37072466E-01 0.92823199E+02</pdfrwt>
<totfact> 0.54636507E+04</totfact>
</mgrwt>
</event>
<event>
 5    1  0.1239369E+001  0.1013694E+03  0.7546771E-02  0.1277442E+00
         -1   -1    0    0    0  501 -0.00000000000E+00  0.00000000000E+00  0.14268710548E+03  0.14268710548E+03  0.00000000000E+00 0.  1.
          1   -1    0    0  501    0  0.00000000000E+00 -0.00000000000E+00 -0.18004004006E+02  0.18004004006E+02  0.00000000000E+00 0. -1.
         23    2    1    2    0    0  0.00000000000E+00  0.00000000000E+00  0.12468310148E+03  0.16069110949E+03  0.10136940798E+03 0.  0.
        -13    1    3    3    0    0  0.24613428136E+02  0.19778264938E+02  0.12519118140E+03  0.12911170554E+03  0.00000000000E+00 0.  1.
         13    1    3    3    0    0 -0.24613428136E+02 -0.19778264938E+02 -0.50807991786E+00  0.31579403949E+02  0.00000000000E+00 0. -1.
<mgrwt>
<rscale>  0 0.10136941E+03</rscale>
<asrwt>0</asrwt>
<pdfrwt beam="2">  1        1 0.27698469E-02 0.10136941E+03</pdfrwt>
<pdfrwt beam="1">  1       -1 0.21951862E-01 0.10136941E+03</pdfrwt>
<totfact> 0.57429824E+04</totfact>
</mgrwt>
</event>
<event>
 5    1  0.1239369E+001  0.9220963E+02  0.7546771E-02  0.1297587E+00
         -4   -1    0    0    0  501 -0.00000000000E+00  0.00000000000E+00  0.38587810655E+02  0.38587810655E+02  0.00000000000E+00 0.  1.
          4   -1    0    0  501    0  0.00000000000E+00 -0.00000000000E+00 -0.55086147417E+02  0.55086147417E+02  0.00000000000E+00 0. -1.
         23    2    1    2    0    0  0.00000000000E+00  0.00000000000E+00 -0.16498336762E+02  0.93673958072E+02  0.92209626964E+02 0.  0.
        -11    1    3    3    0    0 -0.18158116141E+01 -0.31346199832E+02 -0.42545816384E+02  0.52877480155E+02  0.00000000000E+00 0. -1.
         11    1    3    3    0    0  0.18158116141E+01  0.31346199832E+02  0.26047479623E+02  0.40796477917E+02  0.00000000000E+00 0.  1.
<mgrwt>
<rscale>  0 0.92209627E+02</rscale>
<asrwt>0</asrwt>
<pdfrwt beam="2">  1        4 0.84747919E-02 0.92209627E+02</pdfrwt>
<pdfrwt beam="1">  1       -4 0.59365863E-02 0.92209627E+02</pdfrwt>
<totfact> 0.26045957E+04</totfact>
</mgrwt>
</event>
<event>
 5    1  0.1239369E+001  0.9087656E+02  0.7546771E-02  0.1300743E+00
          1   -1    0    0  501    0  0.00000000000E+00  0.00000000000E+00  0.36281290986E+02  0.36281290986E+02  0.00000000000E+00 0. -1.
         -1   -1    0    0    0  501 -0.00000000000E+00 -0.00000000000E+00 -0.56906391439E+02  0.56906391439E+02  0.00000000000E+00 0.  1.
         23    2    1    2    0    0  0.00000000000E+00  0.00000000000E+00 -0.20625100453E+02  0.93187682424E+02  0.90876561263E+02 0.  0.
        -11    1    3    3    0    0  0.64386215852E+01  0.20400302915E+02  0.30794451311E+02  0.37495685598E+02  0.00000000000E+00 0. -1.
         11    1    3    3    0    0 -0.64386215852E+01 -0.20400302915E+02 -0.51419551764E+02  0.55691996827E+02  0.00000000000E+00 0.  1.
<mgrwt>
<rscale>  0 0.90876561E+02</rscale>
<asrwt>0</asrwt>
<pdfrwt beam="1">  1        1 0.55817371E-02 0.90876561E+02</pdfrwt>
<pdfrwt beam="2">  1       -1 0.87548294E-02 0.90876561E+02</pdfrwt>
<totfact> 0.90160100E+04</totfact>
</mgrwt>
</event>
<event>
 5    1  0.1239369E+001  0.9157526E+02  0.7546771E-02  0.1299081E+00
          1   -1    0    0  501    0  0.00000000000E+00  0.00000000000E+00  0.10229192910E+03  0.10229192910E+03  0.00000000000E+00 0. -1.
         -1   -1    0    0    0  501 -0.00000000000E+00 -0.00000000000E+00 -0.20495333583E+02  0.20495333583E+02  0.00000000000E+00 0.  1.
         23    2    1    2    0    0  0.00000000000E+00  0.00000000000E+00  0.81796595519E+02  0.12278726269E+03  0.91575263250E+02 0.  0.
        -11    1    3    3    0    0 -0.34092645581E+02  0.17142233072E+02  0.74828100132E+02  0.83996483300E+02  0.00000000000E+00 0. -1.
         11    1    3    3    0    0  0.34092645581E+02 -0.17142233072E+02  0.69684953871E+01  0.38790779386E+02  0.00000000000E+00 0.  1.
<mgrwt>
<rscale>  0 0.91575263E+02</rscale>
<asrwt>0</asrwt>
<pdfrwt beam="1">  1        1 0.15737220E-01 0.91575263E+02</pdfrwt>
<pdfrwt beam="2">  1       -1 0.31531283E-02 0.91575263E+02</pdfrwt>
<totfact> 0.10360749E+05</totfact>
</mgrwt>
</event>
<event>
 5    1  0.1239369E+001  0.8673398E+02  0.7546771E-02  0.1310959E+00
          2   -1    0    0  501    0  0.00000000000E+00  0.00000000000E+00  0.18743043514E+02  0.18743043514E+02  0.00000000000E+00 0. -1.
         -2   -1    0    0    0  501 -0.00000000000E+00 -0.00000000000E+00 -0.10034101635E+03  0.10034101635E+03  0.00000000000E+00 0.  1.
         23    2    1    2    0    0  0.00000000000E+00  0.00000000000E+00 -0.81597972832E+02  0.11908405986E+03  0.86733984932E+02 0.  0.
        -11    1    3    3    0    0  0.13841084089E+02 -0.12871206508E+02  0.12790400278E+02  0.22821873389E+02  0.00000000000E+00 0. -1.
         11    1    3    3    0    0 -0.13841084089E+02  0.12871206508E+02 -0.94388373109E+02  0.96262186470E+02  0.00000000000E+00 0.  1.
<mgrwt>
<rscale>  0 0.86733985E+02</rscale>
<asrwt>0</asrwt>
<pdfrwt beam="1">  1        2 0.28835451E-02 0.86733985E+02</pdfrwt>
<pdfrwt beam="2">  1       -2 0.15437080E-01 0.86733985E+02</pdfrwt>
<totfact> 0.90274634E+04</totfact>
</mgrwt>
</event>
<event>
 5    1  0.1239369E+001  0.9142740E+02  0.7546771E-02  0.1299431E+00
          1   -1    0    0  501    0  0.00000000000E+00  0.00000000000E+00  0.26914271082E+02  0.26914271082E+02  0.00000000000E+00 0. -1.
         -1   -1    0    0    0  501 -0.00000000000E+00 -0.00000000000E+00 -0.77644404007E+02  0.77644404007E+02  0.00000000000E+00 0.  1.
         23    2    1    2    0    0  0.00000000000E+00  0.00000000000E+00 -0.50730132925E+02  0.10455867509E+03  0.91427403713E+02 0.  0.
        -11    1    3    3    0    0 -0.11625865672E+02  0.19974527066E+02  0.19740761482E+02  0.30394738822E+02  0.00000000000E+00 0. -1.
         11    1    3    3    0    0  0.11625865672E+02 -0.19974527066E+02 -0.70470894407E+02  0.74163936267E+02  0.00000000000E+00 0.  1.
<mgrwt>
<rscale>  0 0.91427404E+02</rscale>
<asrwt>0</asrwt>
<pdfrwt beam="1">  1        1 0.41406571E-02 0.91427404E+02</pdfrwt>
<pdfrwt beam="2">  1       -1 0.11945293E-01 0.91427404E+02</pdfrwt>
<totfact> 0.84481492E+04</totfact>
</mgrwt>
</event>
<event>
 4    1  0.1239369E+001  0.4118000E+02  0.7546771E-02  0.1499703E+00
          3   -1    0    0  501    0  0.00000000000E+00  0.00000000000E+00  0.14330960113E+03  0.14330960113E+03  0.00000000000E+00 0.  1.
         -3   -1    0    0    0  501 -0.00000000000E+00 -0.00000000000E+00 -0.29582666677E+01  0.29582666677E+01  0.00000000000E+00 0. -1.
        -11    1    1    2    0    0 -0.57888628666E+00  0.20170882917E+02  0.84711809122E+02  0.87082089041E+02  0.00000000000E+00 0. -1.
         11    1    1    2    0    0  0.57888628666E+00 -0.20170882917E+02  0.55639525344E+02  0.59185778761E+02  0.00000000000E+00 0.  1.
<mgrwt>
<rscale>  0 0.41179996E+02</rscale>
<asrwt>0</asrwt>
<pdfrwt beam="1">  1        3 0.22047626E-01 0.41179996E+02</pdfrwt>
<pdfrwt beam="2">  1       -3 0.45511806E-03 0.41179996E+02</pdfrwt>
<totfact> 0.24343157E+05</totfact>
</mgrwt>
</event>
<event>
 5    1  0.1239369E+001  0.8970460E+02  0.7546771E-02  0.1303569E+00
          4   -1    0    0  501    0  0.00000000000E+00  0.00000000000E+00  0.44415095141E+03  0.44415095141E+03  0.00000000000E+00 0. -1.
         -4   -1    0    0    0  501 -0.00000000000E+00 -0.00000000000E+00 -0.45293805148E+01  0.45293805148E+01  0.00000000000E+00 0.  1.
         23    2    1    2    0    0  0.00000000000E+00  0.00000000000E+00  0.43962157090E+03  0.44868033193E+03  0.89704596648E+02 0.  0.
        -13    1    3    3    0    0  0.87328521421E+01 -0.43239012738E+02  0.26040017723E+03  0.26411006650E+03  0.00000000000E+00 0. -1.
         13    1    3    3    0    0 -0.87328521421E+01  0.43239012738E+02  0.17922139367E+03  0.18457026542E+03  0.00000000000E+00 0.  1.
<mgrwt>
<rscale>  0 0.89704597E+02</rscale>
<asrwt>0</asrwt>
<pdfrwt beam="1">  1        4 0.68330881E-01 0.89704597E+02</pdfrwt>
<pdfrwt beam="2">  1       -4 0.69682813E-03 0.89704597E+02</pdfrwt>
<totfact> 0.14693579E+04</totfact>
</mgrwt>
</event>
<event>
 5    1  0.1239369E+001  0.9218993E+02  0.7546771E-02  0.1297633E+00
         -2   -1    0    0    0  501 -0.00000000000E+00  0.00000000000E+00  0.82422220224E+01  0.82422220224E+01  0.00000000000E+00 0.  1.
          2   -1    0    0  501    0  0.00000000000E+00 -0.00000000000E+00 -0.25778800416E+03  0.25778800416E+03  0.00000000000E+00 0. -1.
         23    2    1    2    0    0  0.00000000000E+00  0.00000000000E+00 -0.24954578213E+03  0.26603022618E+03  0.92189933614E+02 0.  0.
        -11    1    3    3    0    0  0.36612261456E+02 -0.25324274310E+02 -0.90268923344E+02  0.10064916830E+03  0.00000000000E+00 0.  1.
         11    1    3    3    0    0 -0.36612261456E+02  0.25324274310E+02 -0.15927685879E+03  0.16538105788E+03  0.00000000000E+00 0. -1.
<mgrwt>
<rscale>  0 0.92189934E+02</rscale>
<asrwt>0</asrwt>
<pdfrwt beam="2">  1        2 0.39659695E-01 0.92189934E+02</pdfrwt>
<pdfrwt beam="1">  1       -2 0.12680341E-02 0.92189934E+02</pdfrwt>
<totfact> 0.16482652E+05</totfact>
</mgrwt>
</event>
<event>
 5    1  0.1239369E+001  0.9083913E+02  0.7546771E-02  0.1300832E+00
          1   -1    0    0  501    0  0.00000000000E+00  0.00000000000E+00  0.39033140583E+02  0.39033140583E+02  0.00000000000E+00 0. -1.
         -1   -1    0    0    0  501 -0.00000000000E+00 -0.00000000000E+00 -0.52850910546E+02  0.52850910546E+02  0.00000000000E+00 0.  1.
         23    2    1    2    0    0  0.00000000000E+00  0.00000000000E+00 -0.13817769963E+02  0.91884051129E+02  0.90839133005E+02 0.  0.
        -11    1    3    3    0    0 -0.41654291082E+02 -0.16908320171E+02 -0.35626887604E+00  0.44956625586E+02  0.00000000000E+00 0. -1.
         11    1    3    3    0    0  0.41654291082E+02  0.16908320171E+02 -0.13461501087E+02  0.46927425543E+02  0.00000000000E+00 0.  1.
<mgrwt>
<rscale>  0 0.90839133E+02</rscale>
<asrwt>0</asrwt>
<pdfrwt beam="1">  1        1 0.60050986E-02 0.90839133E+02</pdfrwt>
<pdfrwt beam="2">  1       -1 0.81309093E-02 0.90839133E+02</pdfrwt>
<totfact> 0.91279151E+04</totfact>
</mgrwt>
</event>
<event>
 5    1  0.1239369E+001  0.8379829E+02  0.7546771E-02  0.1318605E+00
         -1   -1    0    0    0  501 -0.00000000000E+00  0.00000000000E+00  0.16466499523E+02  0.16466499523E+02  0.00000000000E+00 0.  1.
          1   -1    0    0  501    0  0.00000000000E+00 -0.00000000000E+00 -0.10661273055E+03  0.10661273055E+03  0.00000000000E+00 0. -1.
         23    2    1    2    0    0  0.00000000000E+00  0.00000000000E+00 -0.90146231031E+02  0.12307923008E+03  0.83798292984E+02 0.  0.
        -11    1    3    3    0    0  0.31708762368E+02 -0.17927874341E+02 -0.75483249324E+02  0.83812738995E+02  0.00000000000E+00 0. -1.
         11    1    3    3    0    0 -0.31708762368E+02  0.17927874341E+02 -0.14662981707E+02  0.39266491082E+02  0.00000000000E+00 0.  1.
<mgrwt>
<rscale>  0 0.83798293E+02</rscale>
<asrwt>0</asrwt>
<pdfrwt beam="2">  1        1 0.16401959E-01 0.83798293E+02</pdfrwt>
<pdfrwt beam="1">  1       -1 0.25333076E-02 0.83798293E+02</pdfrwt>
<totfact> 0.13264502E+05</totfact>
</mgrwt>
</event>
<event>
 5    1  0.1239369E+001  0.8935135E+02  0.7546771E-02  0.1304430E+00
         -1   -1    0    0    0  501 -0.00000000000E+00  0.00000000000E+00  0.16579411987E+03  0.16579411987E+03  0.00000000000E+00 0.  1.
          1   -1    0    0  501    0  0.00000000000E+00 -0.00000000000E+00 -0.12038521403E+02  0.12038521403E+02  0.00000000000E+00 0. -1.
         23    2    1    2    0    0  0.00000000000E+00  0.00000000000E+00  0.15375559846E+03  0.17783264127E+03  0.89351352770E+02 0.  0.
        -13    1    3    3    0    0  0.29045080480E+02 -0.26312311901E+02  0.11956239139E+03  0.12582177829E+03  0.00000000000E+00 0.  1.
         13    1    3    3    0    0 -0.29045080480E+02  0.26312311901E+02  0.34193207074E+02  0.52010862977E+02  0.00000000000E+00 0. -1.
<mgrwt>
<rscale>  0 0.89351353E+02</rscale>
<asrwt>0</asrwt>
<pdfrwt beam="2">  1        1 0.18520803E-02 0.89351353E+02</pdfrwt>
<pdfrwt beam="1">  1       -1 0.25506786E-01 0.89351353E+02</pdfrwt>
<totfact> 0.76933001E+04</totfact>
</mgrwt>
</event>
<event>
 5    1  0.1239369E+001  0.8988434E+02  0.7546771E-02  0.1303132E+00
          1   -1    0    0  501    0  0.00000000000E+00  0.00000000000E+00  0.73794776430E+02  0.73794776430E+02  0.00000000000E+00 0. -1.
         -1   -1    0    0    0  501 -0.00000000000E+00 -0.00000000000E+00 -0.27370485545E+02  0.27370485545E+02  0.00000000000E+00 0.  1.
         23    2    1    2    0    0  0.00000000000E+00  0.00000000000E+00  0.46424290884E+02  0.10116526198E+03  0.89884344835E+02 0.  0.
        -11    1    3    3    0    0  0.35631684398E+02 -0.19039751786E+01 -0.75402381449E+01  0.36470498294E+02  0.00000000000E+00 0.  1.
         11    1    3    3    0    0 -0.35631684398E+02  0.19039751786E+01  0.53964529029E+02  0.64694763682E+02  0.00000000000E+00 0. -1.
<mgrwt>
<rscale>  0 0.89884345E+02</rscale>
<asrwt>0</asrwt>
<pdfrwt beam="1">  1        1 0.11353042E-01 0.89884345E+02</pdfrwt>
<pdfrwt beam="2">  1       -1 0.42108440E-02 0.89884345E+02</pdfrwt>
<totfact> 0.10345782E+05</totfact>
</mgrwt>
</event>
<event>
 5    1  0.1239369E+001  0.9477300E+02  0.7546771E-02  0.1291688E+00
          1   -1    0    0  501    0  0.00000000000E+00  0.00000000000E+00  0.12303279714E+03  0.12303279714E+03  0.00000000000E+00 0. -1.
         -1   -1    0    0    0  501 -0.00000000000E+00 -0.00000000000E+00 -0.18251070142E+02  0.18251070142E+02  0.00000000000E+00 0.  1.
         23    2    1    2    0    0  0.00000000000E+00  0.00000000000E+00  0.10478172700E+03  0.14128386728E+03  0.94772996373E+02 0.  0.
        -11    1    3    3    0    0  0.45331200731E+02  0.87024054463E+01  0.36416014534E+02  0.58794351215E+02  0.00000000000E+00 0.  1.
         11    1    3    3    0    0 -0.45331200731E+02 -0.87024054463E+01  0.68365712464E+02  0.82489516067E+02  0.00000000000E+00 0. -1.
<mgrwt>
<rscale>  0 0.94772996E+02</rscale>
<asrwt>0</asrwt>
<pdfrwt beam="1">  1        1 0.18928122E-01 0.94772996E+02</pdfrwt>
<pdfrwt beam="2">  1       -1 0.28078570E-02 0.94772996E+02</pdfrwt>
<totfact> 0.97405480E+04</totfact>
</mgrwt>
</event>
<event>
 5    1  0.1239369E+001  0.8865749E+02  0.7546771E-02  0.1306136E+00
         -2   -1    0    0    0  501 -0.00000000000E+00  0.00000000000E+00  0.21983568448E+03  0.21983568448E+03  0.00000000000E+00 0.  1.
          2   -1    0    0  501    0  0.00000000000E+00 -0.00000000000E+00 -0.89386656726E+01  0.89386656726E+01  0.00000000000E+00 0. -1.
         23    2    1    2    0    0  0.00000000000E+00  0.00000000000E+00  0.21089701881E+03  0.22877435015E+03  0.88657491200E+02 0.  0.
        -13    1    3    3    0    0 -0.13731394557E+02  0.33039656672E+02  0.37918751008E+02  0.52134458734E+02  0.00000000000E+00 0. -1.
         13    1    3    3    0    0  0.13731394557E+02 -0.33039656672E+02  0.17297826780E+03  0.17663989142E+03  0.00000000000E+00 0.  1.
<mgrwt>
<rscale>  0 0.88657491E+02</rscale>
<asrwt>0</asrwt>
<pdfrwt beam="2">  1        2 0.13751795E-02 0.88657491E+02</pdfrwt>
<pdfrwt beam="1">  1       -2 0.33820871E-01 0.88657491E+02</pdfrwt>
<totfact> 0.64182084E+04</totfact>
</mgrwt>
</event>
<event>
 4    1  0.1239369E+001  0.1894101E+03  0.7546771E-02  0.1158994E+00
          2   -1    0    0  501    0  0.00000000000E+00  0.00000000000E+00  0.29018431453E+03  0.29018431453E+03  0.00000000000E+00 0. -1.
         -2   -1    0    0    0  501 -0.00000000000E+00 -0.00000000000E+00 -0.30908091736E+02  0.30908091736E+02  0.00000000000E+00 0.  1.
        -13    1    1    2    0    0 -0.61679781314E+01 -0.72601693839E+02  0.27080680344E+02  0.77732960515E+02  0.00000000000E+00 0.  1.
         13    1    1    2    0    0  0.61679781314E+01  0.72601693839E+02  0.23219554245E+03  0.24335944575E+03  0.00000000000E+00 0. -1.
<mgrwt>
<rscale>  0 0.18941007E+03</rscale>
<asrwt>0</asrwt>
<pdfrwt beam="1">  1        2 0.44643739E-01 0.18941007E+03</pdfrwt>
<pdfrwt beam="2">  1       -2 0.47550912E-02 0.18941007E+03</pdfrwt>
<totfact> 0.23030531E+04</totfact>
</mgrwt>
</event>
<event>
 5    1  0.1239369E+001  0.1003225E+03  0.7546771E-02  0.1279619E+00
         -2   -1    0    0    0  501 -0.00000000000E+00  0.00000000000E+00  0.13725965565E+02  0.13725965565E+02  0.00000000000E+00 0.  1.
          2   -1    0    0  501    0  0.00000000000E+00 -0.00000000000E+00 -0.18331325838E+03  0.18331325838E+03  0.00000000000E+00 0. -1.
         23    2    1    2    0    0  0.00000000000E+00  0.00000000000E+00 -0.16958729282E+03  0.19703922395E+03  0.10032250938E+03 0.  0.
        -11    1    3    3    0    0  0.12253084073E+02  0.35801715590E+02 -0.20121223778E+02  0.42857491233E+02  0.00000000000E+00 0.  1.
         11    1    3    3    0    0 -0.12253084073E+02 -0.35801715590E+02 -0.14946606904E+03  0.15418173271E+03  0.00000000000E+00 0. -1.
<mgrwt>
<rscale>  0 0.10032251E+03</rscale>
<asrwt>0</asrwt>
<pdfrwt beam="2">  1        2 0.28202040E-01 0.10032251E+03</pdfrwt>
<pdfrwt beam="1">  1       -2 0.21116870E-02 0.10032251E+03</pdfrwt>
<totfact> 0.11563660E+05</totfact>
</mgrwt>
</event>
<event>
 5    1  0.1239369E+001  0.9080714E+02  0.7546771E-02  0.1300909E+00
         -3   -1    0    0    0  501 -0.00000000000E+00  0.00000000000E+00  0.35465569351E+02  0.35465569351E+02  0.00000000000E+00 0.  1.
          3   -1    0    0  501    0  0.00000000000E+00 -0.00000000000E+00 -0.58126347602E+02  0.58126347602E+02  0.00000000000E+00 0. -1.
         23    2    1    2    0    0  0.00000000000E+00  0.00000000000E+00 -0.22660778251E+02  0.93591916952E+02  0.90807136547E+02 0.  0.
        -11    1    3    3    0    0  0.29862527914E+02 -0.51051825171E+01 -0.46185384790E+02  0.55235162987E+02  0.00000000000E+00 0. -1.
         11    1    3    3    0    0 -0.29862527914E+02  0.51051825171E+01  0.23524606539E+02  0.38356753966E+02  0.00000000000E+00 0.  1.
<mgrwt>
<rscale>  0 0.90807137E+02</rscale>
<asrwt>0</asrwt>
<pdfrwt beam="2">  1        3 0.89425149E-02 0.90807137E+02</pdfrwt>
<pdfrwt beam="1">  1       -3 0.54562415E-02 0.90807137E+02</pdfrwt>
<totfact> 0.35544790E+04</totfact>
</mgrwt>
</event>
<event>
 5    1  0.1239369E+001  0.8820944E+02  0.7546771E-02  0.1307247E+00
         -3   -1    0    0    0  501 -0.00000000000E+00  0.00000000000E+00  0.24266394269E+02  0.24266394269E+02  0.00000000000E+00 0.  1.
          3   -1    0    0  501    0  0.00000000000E+00 -0.00000000000E+00 -0.80161322669E+02  0.80161322669E+02  0.00000000000E+00 0. -1.
         23    2    1    2    0    0  0.00000000000E+00  0.00000000000E+00 -0.55894928399E+02  0.10442771694E+03  0.88209438520E+02 0.  0.
        -11    1    3    3    0    0 -0.16843503003E+02  0.20800876340E+02  0.13552669226E+02  0.30000914871E+02  0.00000000000E+00 0.  1.
         11    1    3    3    0    0  0.16843503003E+02 -0.20800876340E+02 -0.69447597625E+02  0.74426802067E+02  0.00000000000E+00 0. -1.
<mgrwt>
<rscale>  0 0.88209439E+02</rscale>
<asrwt>0</asrwt>
<pdfrwt beam="2">  1        3 0.12332511E-01 0.88209439E+02</pdfrwt>
<pdfrwt beam="1">  1       -3 0.37332914E-02 0.88209439E+02</pdfrwt>
<totfact> 0.37568725E+04</totfact>
</mgrwt>
</event>
<event>
 5    1  0.1239369E+001  0.9000838E+02  0.7546771E-02  0.1302831E+00
          2   -1    0    0  501    0  0.00000000000E+00  0.00000000000E+00  0.17777319475E+03  0.17777319475E+03  0.00000000000E+00 0. -1.
         -2   -1    0    0    0  501 -0.00000000000E+00 -0.00000000000E+00 -0.11393038767E+02  0.11393038767E+02  0.00000000000E+00 0.  1.
         23    2    1    2    0    0  0.00000000000E+00  0.00000000000E+00  0.16638015598E+03  0.18916623351E+03  0.90008375155E+02 0.  0.
        -13    1    3    3    0    0 -0.24968118570E+02  0.37054569183E+02  0.94493926645E+02  0.10452535680E+03  0.00000000000E+00 0. -1.
         13    1    3    3    0    0  0.24968118570E+02 -0.37054569183E+02  0.71886229335E+02  0.84640876710E+02  0.00000000000E+00 0.  1.
<mgrwt>
<rscale>  0 0.90008375E+02</rscale>
<asrwt>0</asrwt>
<pdfrwt beam="1">  1        2 0.27349720E-01 0.90008375E+02</pdfrwt>
<pdfrwt beam="2">  1       -2 0.17527753E-02 0.90008375E+02</pdfrwt>
<totfact> 0.15353930E+05</totfact>
</mgrwt>
</event>
<event>
 5    1  0.1239369E+001  0.9115301E+02  0.7546771E-02  0.1300083E+00
          1   -1    0    0  501    0  0.00000000000E+00  0.00000000000E+00  0.80967332669E+02  0.80967332669E+02  0.00000000000E+00 0. -1.
         -1   -1    0    0    0  501 -0.00000000000E+00 -0.00000000000E+00 -0.25655010580E+02  0.25655010580E+02  0.00000000000E+00 0.  1.
         23    2    1    2    0    0  0.00000000000E+00  0.00000000000E+00  0.55312322089E+02  0.10662234325E+03  0.91153009304E+02 0.  0.
        -11    1    3    3    0    0 -0.24922085206E+02 -0.24950455711E+02  0.61427744920E+02  0.70830808390E+02  0.00000000000E+00 0. -1.
         11    1    3    3    0    0  0.24922085206E+02  0.24950455711E+02 -0.61154228308E+01  0.35791534860E+02  0.00000000000E+00 0.  1.
<mgrwt>
<rscale>  0 0.91153009E+02</rscale>
<asrwt>0</asrwt>
<pdfrwt beam="1">  1        1 0.12456513E-01 0.91153009E+02</pdfrwt>
<pdfrwt beam="2">  1       -1 0.39469248E-02 0.91153009E+02</pdfrwt>
<totfact> 0.10100819E+05</totfact>
</mgrwt>
</event>
<event>
 5    1  0.1239369E+001  0.9006680E+02  0.7546771E-02  0.1302690E+00
          2   -1    0    0  501    0  0.00000000000E+00  0.00000000000E+00  0.69791596365E+02  0.69791596365E+02  0.00000000000E+00 0. -1.
         -2   -1    0    0    0  501 -0.00000000000E+00 -0.00000000000E+00 -0.29058039406E+02  0.29058039406E+02  0.00000000000E+00 0.  1.
         23    2    1    2    0    0  0.00000000000E+00  0.00000000000E+00  0.40733556959E+02  0.98849635771E+02  0.90066796487E+02 0.  0.
        -11    1    3    3    0    0  0.25635848464E+02 -0.30413337081E+02 -0.28071393474E+01  0.39875403824E+02  0.00000000000E+00 0.  1.
         11    1    3    3    0    0 -0.25635848464E+02  0.30413337081E+02  0.43540696306E+02  0.58974231946E+02  0.00000000000E+00 0. -1.
<mgrwt>
<rscale>  0 0.90066796E+02</rscale>
<asrwt>0</asrwt>
<pdfrwt beam="1">  1        2 0.10737169E-01 0.90066796E+02</pdfrwt>
<pdfrwt beam="2">  1       -2 0.44704676E-02 0.90066796E+02</pdfrwt>
<totfact> 0.11437531E+05</totfact>
</mgrwt>
</event>
<event>
 5    1  0.1239369E+001  0.8992357E+02  0.7546771E-02  0.1303037E+00
         -1   -1    0    0    0  501 -0.00000000000E+00  0.00000000000E+00  0.85249570618E+01  0.85249570618E+01  0.00000000000E+00 0.  1.
          1   -1    0    0  501    0  0.00000000000E+00 -0.00000000000E+00 -0.23713460077E+03  0.23713460077E+03  0.00000000000E+00 0. -1.
         23    2    1    2    0    0  0.00000000000E+00  0.00000000000E+00 -0.22860964370E+03  0.24565955783E+03  0.89923573981E+02 0.  0.
        -13    1    3    3    0    0  0.33236928450E+02 -0.25689219536E+02 -0.15809431775E+03  0.16358008045E+03  0.00000000000E+00 0. -1.
         13    1    3    3    0    0 -0.33236928450E+02  0.25689219536E+02 -0.70515325952E+02  0.82079477382E+02  0.00000000000E+00 0.  1.
<mgrwt>
<rscale>  0 0.89923574E+02</rscale>
<asrwt>0</asrwt>
<pdfrwt beam="2">  1        1 0.36482245E-01 0.89923574E+02</pdfrwt>
<pdfrwt beam="1">  1       -1 0.13115319E-02 0.89923574E+02</pdfrwt>
<totfact> 0.12701109E+05</totfact>
</mgrwt>
</event>
<event>
 5    1  0.1239369E+001  0.9251671E+02  0.7546771E-02  0.1296869E+00
          1   -1    0    0  501    0  0.00000000000E+00  0.00000000000E+00  0.15958771152E+02  0.15958771152E+02  0.00000000000E+00 0. -1.
         -1   -1    0    0    0  501 -0.00000000000E+00 -0.00000000000E+00 -0.13408523675E+03  0.13408523675E+03  0.00000000000E+00 0.  1.
         23    2    1    2    0    0  0.00000000000E+00  0.00000000000E+00 -0.11812646560E+03  0.15004400790E+03  0.92516714340E+02 0.  0.
        -11    1    3    3    0    0 -0.34021910799E+02  0.31323766684E+02 -0.57311358034E+02  0.73642790098E+02  0.00000000000E+00 0. -1.
         11    1    3    3    0    0  0.34021910799E+02 -0.31323766684E+02 -0.60815107563E+02  0.76401217802E+02  0.00000000000E+00 0.  1.
<mgrwt>
<rscale>  0 0.92516714E+02</rscale>
<asrwt>0</asrwt>
<pdfrwt beam="1">  1        1 0.24551955E-02 0.92516714E+02</pdfrwt>
<pdfrwt beam="2">  1       -1 0.20628499E-01 0.92516714E+02</pdfrwt>
<totfact> 0.73860894E+04</totfact>
</mgrwt>
</event>
<event>
 5    1  0.1239369E+001  0.9333413E+02  0.7546771E-02  0.1294973E+00
          3   -1    0    0  501    0  0.00000000000E+00  0.00000000000E+00  0.12530338131E+02  0.12530338131E+02  0.00000000000E+00 0. -1.
         -3   -1    0    0    0  501 -0.00000000000E+00 -0.00000000000E+00 -0.17380336414E+03  0.17380336414E+03  0.00000000000E+00 0.  1.
         23    2    1    2    0    0  0.00000000000E+00  0.00000000000E+00 -0.16127302601E+03  0.18633370227E+03  0.93334129255E+02 0.  0.
        -13    1    3    3    0    0 -0.49911625252E+01 -0.42231819354E+02 -0.42267056020E+02  0.59957837636E+02  0.00000000000E+00 0. -1.
         13    1    3    3    0    0  0.49911625252E+01  0.42231819354E+02 -0.11900596999E+03  0.12637586464E+03  0.00000000000E+00 0.  1.
<mgrwt>
<rscale>  0 0.93334129E+02</rscale>
<asrwt>0</asrwt>
<pdfrwt beam="1">  1        3 0.19277444E-02 0.93334129E+02</pdfrwt>
<pdfrwt beam="2">  1       -3 0.26738979E-01 0.93334129E+02</pdfrwt>
<totfact> 0.27427255E+04</totfact>
</mgrwt>
</event>
<event>
 5    1  0.1239369E+001  0.9098595E+02  0.7546771E-02  0.1300481E+00
         -1   -1    0    0    0  501 -0.00000000000E+00  0.00000000000E+00  0.22780138253E+02  0.22780138253E+02  0.00000000000E+00 0.  1.
          1   -1    0    0  501    0  0.00000000000E+00 -0.00000000000E+00 -0.90851555387E+02  0.90851555387E+02  0.00000000000E+00 0. -1.
         23    2    1    2    0    0  0.00000000000E+00  0.00000000000E+00 -0.68071417134E+02  0.11363169364E+03  0.90985954789E+02 0.  0.
        -11    1    3    3    0    0 -0.26099564351E+02  0.44956863463E+01  0.12160029021E+02  0.29142147499E+02  0.00000000000E+00 0.  1.
         11    1    3    3    0    0  0.26099564351E+02 -0.44956863463E+01 -0.80231446155E+02  0.84489546142E+02  0.00000000000E+00 0. -1.
<mgrwt>
<rscale>  0 0.90985955E+02</rscale>
<asrwt>0</asrwt>
<pdfrwt beam="2">  1        1 0.13977163E-01 0.90985955E+02</pdfrwt>
<pdfrwt beam="1">  1       -1 0.35046366E-02 0.90985955E+02</pdfrwt>
<totfact> 0.10340845E+05</totfact>
</mgrwt>
</event>
<event>
 5    1  0.1239369E+001  0.9629212E+02  0.7546771E-02  0.1288292E+00
          1   -1    0    0  501    0  0.00000000000E+00  0.00000000000E+00  0.25837229849E+03  0.25837229849E+03  0.00000000000E+00 0. -1.
         -1   -1    0    0    0  501 -0.00000000000E+00 -0.00000000000E+00 -0.89717161194E+01  0.89717161194E+01  0.00000000000E+00 0.  1.
         23    2    1    2    0    0  0.00000000000E+00  0.00000000000E+00  0.24940058237E+03  0.26734401461E+03  0.96292116295E+02 0.  0.
        -11    1    3    3    0    0  0.28667775518E+02 -0.38578546598E+02  0.13250252878E+03  0.14095057908E+03  0.00000000000E+00 0.  1.
         11    1    3    3    0    0 -0.28667775518E+02  0.38578546598E+02  0.11689805359E+03  0.12639343553E+03  0.00000000000E+00 0. -1.
<mgrwt>
<rscale>  0 0.96292116E+02</rscale>
<asrwt>0</asrwt>
<pdfrwt beam="1">  1        1 0.39749579E-01 0.96292116E+02</pdfrwt>
<pdfrwt beam="2">  1       -1 0.13802642E-02 0.96292116E+02</pdfrwt>
<totfact> 0.10753114E+05</totfact>
</mgrwt>
</event>
<event>
 5    1  0.1239369E+001  0.9709340E+02  0.7546771E-02  0.1286530E+00
         -2   -1    0    0    0  501 -0.00000000000E+00  0.00000000000E+00  0.12126364476E+02  0.12126364476E+02  0.00000000000E+00 0.  1.
          2   -1    0    0  501    0  0.00000000000E+00 -0.00000000000E+00 -0.19435189965E+03  0.19435189965E+03  0.00000000000E+00 0. -1.
         23    2    1    2    0    0  0.00000000000E+00  0.00000000000E+00 -0.18222553517E+03  0.20647826413E+03  0.97093397753E+02 0.  0.
        -13    1    3    3    0    0  0.20105100485E+02  0.40443552915E+02 -0.12896888954E+03  0.13664871206E+03  0.00000000000E+00 0. -1.
         13    1    3    3    0    0 -0.20105100485E+02 -0.40443552915E+02 -0.53256645635E+02  0.69829552069E+02  0.00000000000E+00 0.  1.
<mgrwt>
<rscale>  0 0.97093398E+02</rscale>
<asrwt>0</asrwt>
<pdfrwt beam="2">  1        2 0.29900290E-01 0.97093398E+02</pdfrwt>
<pdfrwt beam="1">  1       -2 0.18655947E-02 0.97093398E+02</pdfrwt>
<totfact> 0.12913598E+05</totfact>
</mgrwt>
</event>
<event>
 5    1  0.1239369E+001  0.9176758E+02  0.7546771E-02  0.1298627E+00
         -3   -1    0    0    0  501 -0.00000000000E+00  0.00000000000E+00  0.93092153354E+01  0.93092153354E+01  0.00000000000E+00 0.  1.
          3   -1    0    0  501    0  0.00000000000E+00 -0.00000000000E+00 -0.22615462062E+03  0.22615462062E+03  0.00000000000E+00 0. -1.
         23    2    1    2    0    0  0.00000000000E+00  0.00000000000E+00 -0.21684540528E+03  0.23546383595E+03  0.91767577334E+02 0.  0.
        -11    1    3    3    0    0  0.23986835194E+02  0.35954120702E+02 -0.14794504166E+03  0.15412917443E+03  0.00000000000E+00 0. -1.
         11    1    3    3    0    0 -0.23986835194E+02 -0.35954120702E+02 -0.68900363618E+02  0.81334661521E+02  0.00000000000E+00 0.  1.
<mgrwt>
<rscale>  0 0.91767577E+02</rscale>
<asrwt>0</asrwt>
<pdfrwt beam="2">  1        3 0.34793016E-01 0.91767577E+02</pdfrwt>
<pdfrwt beam="1">  1       -3 0.14321871E-02 0.91767577E+02</pdfrwt>
<totfact> 0.26301080E+04</totfact>
</mgrwt>
</event>
<event>
 5    1  0.1239369E+001  0.9038430E+02  0.7546771E-02  0.1301924E+00
         -2   -1    0    0    0  501 -0.00000000000E+00  0.00000000000E+00  0.18051635459E+02  0.18051635459E+02  0.00000000000E+00 0.  1.
          2   -1    0    0  501    0  0.00000000000E+00 -0.00000000000E+00 -0.11313824058E+03  0.11313824058E+03  0.00000000000E+00 0. -1.
         23    2    1    2    0    0  0.00000000000E+00  0.00000000000E+00 -0.95086605116E+02  0.13118987603E+03  0.90384296763E+02 0.  0.
        -13    1    3    3    0    0 -0.41129646060E+02 -0.11897774588E+02 -0.26553382585E+02  0.50381414747E+02  0.00000000000E+00 0.  1.
         13    1    3    3    0    0  0.41129646060E+02  0.11897774588E+02 -0.68533222531E+02  0.80808461287E+02  0.00000000000E+00 0. -1.
<mgrwt>
<rscale>  0 0.90384297E+02</rscale>
<asrwt>0</asrwt>
<pdfrwt beam="2">  1        2 0.17405883E-01 0.90384297E+02</pdfrwt>
<pdfrwt beam="1">  1       -2 0.27771748E-02 0.90384297E+02</pdfrwt>
<totfact> 0.13053967E+05</totfact>
</mgrwt>
</event>
<event>
 5    1  0.1239369E+001  0.9243639E+02  0.7546771E-02  0.1297057E+00
          1   -1    0    0  501    0  0.00000000000E+00  0.00000000000E+00  0.22538594342E+02  0.22538594342E+02  0.00000000000E+00 0. -1.
         -1   -1    0    0    0  501 -0.00000000000E+00 -0.00000000000E+00 -0.94776170981E+02  0.94776170981E+02  0.00000000000E+00 0.  1.
         23    2    1    2    0    0  0.00000000000E+00  0.00000000000E+00 -0.72237576639E+02  0.11731476532E+03  0.92436392640E+02 0.  0.
        -13    1    3    3    0    0  0.44370878352E+02 -0.11463172008E+02 -0.28510027961E+02  0.53972222972E+02  0.00000000000E+00 0. -1.
         13    1    3    3    0    0 -0.44370878352E+02  0.11463172008E+02 -0.43727548677E+02  0.63342542351E+02  0.00000000000E+00 0.  1.
<mgrwt>
<rscale>  0 0.92436393E+02</rscale>
<asrwt>0</asrwt>
<pdfrwt beam="1">  1        1 0.34674760E-02 0.92436393E+02</pdfrwt>
<pdfrwt beam="2">  1       -1 0.14580950E-01 0.92436393E+02</pdfrwt>
<totfact> 0.79324020E+04</totfact>
</mgrwt>
</event>
<event>
 5    1  0.1239369E+001  0.8953597E+02  0.7546771E-02  0.1303979E+00
          2   -1    0    0  501    0  0.00000000000E+00  0.00000000000E+00  0.34160740419E+03  0.34160740419E+03  0.00000000000E+00 0. -1.
         -2   -1    0    0    0  501 -0.00000000000E+00 -0.00000000000E+00 -0.58668886363E+01  0.58668886363E+01  0.00000000000E+00 0.  1.
         23    2    1    2    0    0  0.00000000000E+00  0.00000000000E+00  0.33574051555E+03  0.34747429282E+03  0.89535972607E+02 0.  0.
        -11    1    3    3    0    0 -0.16121220102E+02  0.41085591035E+02  0.19697731075E+03  0.20186129020E+03  0.00000000000E+00 0. -1.
         11    1    3    3    0    0  0.16121220102E+02 -0.41085591035E+02  0.13876320480E+03  0.14561300262E+03  0.00000000000E+00 0.  1.
<mgrwt>
<rscale>  0 0.89535973E+02</rscale>
<asrwt>0</asrwt>
<pdfrwt beam="1">  1        2 0.52554970E-01 0.89535973E+02</pdfrwt>
<pdfrwt beam="2">  1       -2 0.90259852E-03 0.89535973E+02</pdfrwt>
<totfact> 0.19783323E+05</totfact>
</mgrwt>
</event>
<event>
 5    1  0.1239369E+001  0.1089937E+03  0.7546771E-02  0.1262445E+00
         -1   -1    0    0    0  501 -0.00000000000E+00  0.00000000000E+00  0.30973293381E+02  0.30973293381E+02  0.00000000000E+00 0. -1.
          1   -1    0    0  501    0  0.00000000000E+00 -0.00000000000E+00 -0.95886025804E+02  0.95886025804E+02  0.00000000000E+00 0.  1.
         23    2    1    2    0    0  0.00000000000E+00  0.00000000000E+00 -0.64912732423E+02  0.12685931918E+03  0.10899368804E+03 0.  0.
        -13    1    3    3    0    0  0.63003733648E+01  0.47365792945E+02 -0.19561915418E+01  0.47823004205E+02  0.00000000000E+00 0. -1.
         13    1    3    3    0    0 -0.63003733648E+01 -0.47365792945E+02 -0.62956540881E+02  0.79036314980E+02  0.00000000000E+00 0.  1.
<mgrwt>
<rscale>  0 0.10899369E+03</rscale>
<asrwt>0</asrwt>
<pdfrwt beam="2">  1        1 0.14751696E-01 0.10899369E+03</pdfrwt>
<pdfrwt beam="1">  1       -1 0.47651221E-02 0.10899369E+03</pdfrwt>
<totfact> 0.63341337E+04</totfact>
</mgrwt>
</event>
<event>
 5    1  0.1239369E+001  0.8973766E+02  0.7546771E-02  0.1303488E+00
         -1   -1    0    0    0  501 -0.00000000000E+00  0.00000000000E+00  0.14668178167E+02  0.14668178167E+02  0.00000000000E+00 0.  1.
          1   -1    0    0  501    0  0.00000000000E+00 -0.00000000000E+00 -0.13725031427E+03  0.13725031427E+03  0.00000000000E+00 0. -1.
         23    2    1    2    0    0  0.00000000000E+00  0.00000000000E+00 -0.12258213610E+03  0.15191849244E+03  0.89737663514E+02 0.  0.
        -13    1    3    3    0    0 -0.10515893621E+02  0.43038658823E+02 -0.49284246899E+02  0.66271013002E+02  0.00000000000E+00 0.  1.
         13    1    3    3    0    0  0.10515893621E+02 -0.43038658823E+02 -0.73297889203E+02  0.85647479435E+02  0.00000000000E+00 0. -1.
<mgrwt>
<rscale>  0 0.89737664E+02</rscale>
<asrwt>0</asrwt>
<pdfrwt beam="2">  1        1 0.21115433E-01 0.89737664E+02</pdfrwt>
<pdfrwt beam="1">  1       -1 0.22566428E-02 0.89737664E+02</pdfrwt>
<totfact> 0.11517478E+05</totfact>
</mgrwt>
</event>
<event>
 5    1  0.1239369E+001  0.9141056E+02  0.7546771E-02  0.1299471E+00
          2   -1    0    0  501    0  0.00000000000E+00  0.00000000000E+00  0.12917340909E+03  0.12917340909E+03  0.00000000000E+00 0. -1.
         -2   -1    0    0    0  501 -0.00000000000E+00 -0.00000000000E+00 -0.16171848745E+02  0.16171848745E+02  0.00000000000E+00 0.  1.
         23    2    1    2    0    0  0.00000000000E+00  0.00000000000E+00  0.11300156034E+03  0.14534525783E+03  0.91410564676E+02 0.  0.
        -11    1    3    3    0    0  0.35716950032E+02  0.22755253318E+02  0.29169389504E+02  0.51423295861E+02  0.00000000000E+00 0.  1.
         11    1    3    3    0    0 -0.35716950032E+02 -0.22755253318E+02  0.83832170836E+02  0.93921961969E+02  0.00000000000E+00 0. -1.
<mgrwt>
<rscale>  0 0.91410565E+02</rscale>
<asrwt>0</asrwt>
<pdfrwt beam="1">  1        2 0.19872832E-01 0.91410565E+02</pdfrwt>
<pdfrwt beam="2">  1       -2 0.24879768E-02 0.91410565E+02</pdfrwt>
<totfact> 0.13207586E+05</totfact>
</mgrwt>
</event>
<event>
 5    1  0.1239369E+001  0.9026950E+02  0.7546771E-02  0.1302200E+00
         -2   -1    0    0    0  501 -0.00000000000E+00  0.00000000000E+00  0.11459421246E+02  0.11459421246E+02  0.00000000000E+00 0.  1.
          2   -1    0    0  501    0  0.00000000000E+00 -0.00000000000E+00 -0.17777037790E+03  0.17777037790E+03  0.00000000000E+00 0. -1.
         23    2    1    2    0    0  0.00000000000E+00  0.00000000000E+00 -0.16631095665E+03  0.18922979915E+03  0.90269499729E+02 0.  0.
        -11    1    3    3    0    0  0.81952578828E+01 -0.31724354872E+02 -0.14822615575E+03  0.15180444721E+03  0.00000000000E+00 0. -1.
         11    1    3    3    0    0 -0.81952578828E+01  0.31724354872E+02 -0.18084800902E+02  0.37425351935E+02  0.00000000000E+00 0.  1.
<mgrwt>
<rscale>  0 0.90269500E+02</rscale>
<asrwt>0</asrwt>
<pdfrwt beam="2">  1        2 0.27349289E-01 0.90269500E+02</pdfrwt>
<pdfrwt beam="1">  1       -2 0.17629879E-02 0.90269500E+02</pdfrwt>
<totfact> 0.15234456E+05</totfact>
</mgrwt>
</event>
<event>
 5    1  0.1239369E+001  0.9079397E+02  0.7546771E-02  0.1300940E+00
         -2   -1    0    0    0  501 -0.00000000000E+00  0.00000000000E+00  0.14002454097E+02  0.14002454097E+02  0.00000000000E+00 0.  1.
          2   -1    0    0  501    0  0.00000000000E+00 -0.00000000000E+00 -0.14718035524E+03  0.14718035524E+03  0.00000000000E+00 0. -1.
         23    2    1    2    0    0  0.00000000000E+00  0.00000000000E+00 -0.13317790114E+03  0.16118280933E+03  0.90793968264E+02 0.  0.
        -13    1    3    3    0    0 -0.10460014217E+02 -0.28988837101E+02 -0.74133714025E+01  0.31697360291E+02  0.00000000000E+00 0.  1.
         13    1    3    3    0    0  0.10460014217E+02  0.28988837101E+02 -0.12576452974E+03  0.12948544904E+03  0.00000000000E+00 0. -1.
<mgrwt>
<rscale>  0 0.90793968E+02</rscale>
<asrwt>0</asrwt>
<pdfrwt beam="2">  1        2 0.22643133E-01 0.90793968E+02</pdfrwt>
<pdfrwt beam="1">  1       -2 0.21542236E-02 0.90793968E+02</pdfrwt>
<totfact> 0.14050795E+05</totfact>
</mgrwt>
</event>
<event>
 5    1  0.1239369E+001  0.8855062E+02  0.7546771E-02  0.1306400E+00
         -4   -1    0    0    0  501 -0.00000000000E+00  0.00000000000E+00  0.73225980057E+02  0.73225980057E+02  0.00000000000E+00 0.  1.
          4   -1    0    0  501    0  0.00000000000E+00 -0.00000000000E+00 -0.26770592384E+02  0.26770592384E+02  0.00000000000E+00 0. -1.
         23    2    1    2    0    0  0.00000000000E+00  0.00000000000E+00  0.46455387673E+02  0.99996572441E+02  0.88550615222E+02 0.  0.
        -13    1    3    3    0    0  0.30392291004E+02  0.32188879025E+02  0.22439168083E+02  0.49631960969E+02  0.00000000000E+00 0. -1.
         13    1    3    3    0    0 -0.30392291004E+02 -0.32188879025E+02  0.24016219590E+02  0.50364611472E+02  0.00000000000E+00 0.  1.
<mgrwt>
<rscale>  0 0.88550615E+02</rscale>
<asrwt>0</asrwt>
<pdfrwt beam="2">  1        4 0.41185527E-02 0.88550615E+02</pdfrwt>
<pdfrwt beam="1">  1       -4 0.11265535E-01 0.88550615E+02</pdfrwt>
<totfact> 0.28630911E+04</totfact>
</mgrwt>
</event>
<event>
 5    1  0.1239369E+001  0.9091375E+02  0.7546771E-02  0.1300654E+00
         -2   -1    0    0    0  501 -0.00000000000E+00  0.00000000000E+00  0.15908001858E+02  0.15908001858E+02  0.00000000000E+00 0.  1.
          2   -1    0    0  501    0  0.00000000000E+00 -0.00000000000E+00 -0.12989234753E+03  0.12989234753E+03  0.00000000000E+00 0. -1.
         23    2    1    2    0    0  0.00000000000E+00  0.00000000000E+00 -0.11398434568E+03  0.14580034939E+03  0.90913754865E+02 0.  0.
        -11    1    3    3    0    0  0.58925839734E+01  0.21214341993E+02  0.67858973157E+01  0.23039515066E+02  0.00000000000E+00 0.  1.
         11    1    3    3    0    0 -0.58925839734E+01 -0.21214341993E+02 -0.12077024299E+03  0.12276083433E+03  0.00000000000E+00 0. -1.
<mgrwt>
<rscale>  0 0.90913755E+02</rscale>
<asrwt>0</asrwt>
<pdfrwt beam="2">  1        2 0.19983439E-01 0.90913755E+02</pdfrwt>
<pdfrwt beam="1">  1       -2 0.24473848E-02 0.90913755E+02</pdfrwt>
<totfact> 0.13429825E+05</totfact>
</mgrwt>
</event>
<event>
 5    1  0.1239369E+001  0.9089025E+02  0.7546771E-02  0.1300710E+00
          3   -1    0    0  501    0  0.00000000000E+00  0.00000000000E+00  0.15398640182E+03  0.15398640182E+03  0.00000000000E+00 0. -1.
         -3   -1    0    0    0  501 -0.00000000000E+00 -0.00000000000E+00 -0.13411959506E+02  0.13411959506E+02  0.00000000000E+00 0.  1.
         23    2    1    2    0    0  0.00000000000E+00  0.00000000000E+00  0.14057444231E+03  0.16739836133E+03  0.90890249987E+02 0.  0.
        -13    1    3    3    0    0 -0.35900269986E+02  0.21329175918E+02  0.37263815169E+02  0.55967446354E+02  0.00000000000E+00 0.  1.
         13    1    3    3    0    0  0.35900269986E+02 -0.21329175918E+02  0.10331062715E+03  0.11143091497E+03  0.00000000000E+00 0. -1.
<mgrwt>
<rscale>  0 0.90890250E+02</rscale>
<asrwt>0</asrwt>
<pdfrwt beam="1">  1        3 0.23690214E-01 0.90890250E+02</pdfrwt>
<pdfrwt beam="2">  1       -3 0.20633785E-02 0.90890250E+02</pdfrwt>
<totfact> 0.30534223E+04</totfact>
</mgrwt>
</event>
<event>
 5    1  0.1239369E+001  0.9312880E+02  0.7546771E-02  0.1295447E+00
         -3   -1    0    0    0  501 -0.00000000000E+00  0.00000000000E+00  0.16735572694E+03  0.16735572694E+03  0.00000000000E+00 0.  1.
          3   -1    0    0  501    0  0.00000000000E+00 -0.00000000000E+00 -0.12955896313E+02  0.12955896313E+02  0.00000000000E+00 0. -1.
         23    2    1    2    0    0  0.00000000000E+00  0.00000000000E+00  0.15439983062E+03  0.18031162325E+03  0.93128802110E+02 0.  0.
        -11    1    3    3    0    0  0.12572371946E+02  0.26198757605E+02  0.67546916460E+01  0.29833962117E+02  0.00000000000E+00 0.  1.
         11    1    3    3    0    0 -0.12572371946E+02 -0.26198757605E+02  0.14764513898E+03  0.15047766113E+03  0.00000000000E+00 0. -1.
<mgrwt>
<rscale>  0 0.93128802E+02</rscale>
<asrwt>0</asrwt>
<pdfrwt beam="2">  1        3 0.19932149E-02 0.93128802E+02</pdfrwt>
<pdfrwt beam="1">  1       -3 0.25747033E-01 0.93128802E+02</pdfrwt>
<totfact> 0.27901016E+04</totfact>
</mgrwt>
</event>
<event>
 5    1  0.1239369E+001  0.9153305E+02  0.7546771E-02  0.1299181E+00
         -1   -1    0    0    0  501 -0.00000000000E+00  0.00000000000E+00  0.21983534389E+02  0.21983534389E+02  0.00000000000E+00 0.  1.
          1   -1    0    0  501    0  0.00000000000E+00 -0.00000000000E+00 -0.95279246080E+02  0.95279246080E+02  0.00000000000E+00 0. -1.
         23    2    1    2    0    0  0.00000000000E+00  0.00000000000E+00 -0.73295711691E+02  0.11726278047E+03  0.91533045022E+02 0.  0.
        -11    1    3    3    0    0  0.40594066956E+02 -0.58800751928E+01 -0.10640591984E+02  0.42375414500E+02  0.00000000000E+00 0.  1.
         11    1    3    3    0    0 -0.40594066956E+02  0.58800751928E+01 -0.62655119707E+02  0.74887365969E+02  0.00000000000E+00 0. -1.
<mgrwt>
<rscale>  0 0.91533045E+02</rscale>
<asrwt>0</asrwt>
<pdfrwt beam="2">  1        1 0.14658346E-01 0.91533045E+02</pdfrwt>
<pdfrwt beam="1">  1       -1 0.33820822E-02 0.91533045E+02</pdfrwt>
<totfact> 0.10252170E+05</totfact>
</mgrwt>
</event>
<event>
 5    1  0.1239369E+001  0.9108277E+02  0.7546771E-02  0.1300251E+00
         -1   -1    0    0    0  501 -0.00000000000E+00  0.00000000000E+00  0.65114284048E+02  0.65114284048E+02  0.00000000000E+00 0.  1.
          1   -1    0    0  501    0  0.00000000000E+00 -0.00000000000E+00 -0.31851961805E+02  0.31851961805E+02  0.00000000000E+00 0. -1.
         23    2    1    2    0    0  0.00000000000E+00  0.00000000000E+00  0.33262322243E+02  0.96966245853E+02  0.91082768699E+02 0.  0.
        -13    1    3    3    0    0  0.76661275264E+01 -0.34536827474E+02  0.47162132506E+02  0.58956159184E+02  0.00000000000E+00 0.  1.
         13    1    3    3    0    0 -0.76661275264E+01  0.34536827474E+02 -0.13899810264E+02  0.38010086669E+02  0.00000000000E+00 0. -1.
<mgrwt>
<rscale>  0 0.91082769E+02</rscale>
<asrwt>0</asrwt>
<pdfrwt beam="2">  1        1 0.49003018E-02 0.91082769E+02</pdfrwt>
<pdfrwt beam="1">  1       -1 0.10017582E-01 0.91082769E+02</pdfrwt>
<totfact> 0.87778284E+04</totfact>
</mgrwt>
</event>
<event>
 5    1  0.1239369E+001  0.8715515E+02  0.7546771E-02  0.1309891E+00
         -1   -1    0    0    0  501 -0.00000000000E+00  0.00000000000E+00  0.58374751529E+02  0.58374751529E+02  0.00000000000E+00 0.  1.
          1   -1    0    0  501    0  0.00000000000E+00 -0.00000000000E+00 -0.32531275210E+02  0.32531275210E+02  0.00000000000E+00 0. -1.
         23    2    1    2    0    0  0.00000000000E+00  0.00000000000E+00  0.25843476319E+02  0.90906026739E+02  0.87155151478E+02 0.  0.
        -13    1    3    3    0    0  0.42174596820E+02  0.85787769322E+01  0.20050577882E+02  0.47479655685E+02  0.00000000000E+00 0.  1.
         13    1    3    3    0    0 -0.42174596820E+02 -0.85787769322E+01  0.57928984371E+01  0.43426371053E+02  0.00000000000E+00 0. -1.
<mgrwt>
<rscale>  0 0.87155151E+02</rscale>
<asrwt>0</asrwt>
<pdfrwt beam="2">  1        1 0.50048116E-02 0.87155151E+02</pdfrwt>
<pdfrwt beam="1">  1       -1 0.89807310E-02 0.87155151E+02</pdfrwt>
<totfact> 0.99827284E+04</totfact>
</mgrwt>
</event>
<event>
 5    1  0.1239369E+001  0.9154837E+02  0.7546771E-02  0.1299145E+00
          1   -1    0    0  501    0  0.00000000000E+00  0.00000000000E+00  0.39008375659E+02  0.39008375659E+02  0.00000000000E+00 0. -1.
         -1   -1    0    0    0  501 -0.00000000000E+00 -0.00000000000E+00 -0.53713491900E+02  0.53713491900E+02  0.00000000000E+00 0.  1.
         23    2    1    2    0    0  0.00000000000E+00  0.00000000000E+00 -0.14705116241E+02  0.92721867559E+02  0.91548371258E+02 0.  0.
        -11    1    3    3    0    0  0.33840401236E+02 -0.25317341485E+02  0.10455067338E+02  0.43536754228E+02  0.00000000000E+00 0. -1.
         11    1    3    3    0    0 -0.33840401236E+02  0.25317341485E+02 -0.25160183579E+02  0.49185113331E+02  0.00000000000E+00 0.  1.
<mgrwt>
<rscale>  0 0.91548371E+02</rscale>
<asrwt>0</asrwt>
<pdfrwt beam="1">  1        1 0.60012885E-02 0.91548371E+02</pdfrwt>
<pdfrwt beam="2">  1       -1 0.82636142E-02 0.91548371E+02</pdfrwt>
<totfact> 0.89283623E+04</totfact>
</mgrwt>
</event>
<event>
 5    1  0.1239369E+001  0.9158984E+02  0.7546771E-02  0.1299047E+00
         -1   -1    0    0    0  501 -0.00000000000E+00  0.00000000000E+00  0.45603523598E+02  0.45603523598E+02  0.00000000000E+00 0.  1.
          1   -1    0    0  501    0  0.00000000000E+00 -0.00000000000E+00 -0.45987117586E+02  0.45987117586E+02  0.00000000000E+00 0. -1.
         23    2    1    2    0    0  0.00000000000E+00  0.00000000000E+00 -0.38359398724E+00  0.91590641184E+02  0.91589837909E+02 0.  0.
        -13    1    3    3    0    0 -0.19906058576E+02  0.67933556183E+01  0.40487470201E+02  0.45624950322E+02  0.00000000000E+00 0.  1.
         13    1    3    3    0    0  0.19906058576E+02 -0.67933556183E+01 -0.40871064188E+02  0.45965690862E+02  0.00000000000E+00 0. -1.
<mgrwt>
<rscale>  0 0.91589838E+02</rscale>
<asrwt>0</asrwt>
<pdfrwt beam="2">  1        1 0.70749411E-02 0.91589838E+02</pdfrwt>
<pdfrwt beam="1">  1       -1 0.70159268E-02 0.91589838E+02</pdfrwt>
<totfact> 0.91425102E+04</totfact>
</mgrwt>
</event>
<event>
 5    1  0.1239369E+001  0.9195218E+02  0.7546771E-02  0.1298192E+00
         -1   -1    0    0    0  501 -0.00000000000E+00  0.00000000000E+00  0.18253817395E+02  0.18253817395E+02  0.00000000000E+00 0.  1.
          1   -1    0    0  501    0  0.00000000000E+00 -0.00000000000E+00 -0.11580048642E+03  0.11580048642E+03  0.00000000000E+00 0. -1.
         23    2    1    2    0    0  0.00000000000E+00  0.00000000000E+00 -0.97546669024E+02  0.13405430382E+03  0.91952181777E+02 0.  0.
        -11    1    3    3    0    0  0.24422037339E+02 -0.10218789388E+02  0.60266951651E+01  0.27151070310E+02  0.00000000000E+00 0.  1.
         11    1    3    3    0    0 -0.24422037339E+02  0.10218789388E+02 -0.10357336419E+03  0.10690323351E+03  0.00000000000E+00 0. -1.
<mgrwt>
<rscale>  0 0.91952182E+02</rscale>
<asrwt>0</asrwt>
<pdfrwt beam="2">  1        1 0.17815459E-01 0.91952182E+02</pdfrwt>
<pdfrwt beam="1">  1       -1 0.28082796E-02 0.91952182E+02</pdfrwt>
<totfact> 0.10464023E+05</totfact>
</mgrwt>
</event>
<event>
 5    1  0.1239369E+001  0.8948797E+02  0.7546771E-02  0.1304096E+00
         -2   -1    0    0    0  501 -0.00000000000E+00  0.00000000000E+00  0.19813168542E+02  0.19813168542E+02  0.00000000000E+00 0.  1.
          2   -1    0    0  501    0  0.00000000000E+00 -0.00000000000E+00 -0.10104513058E+03  0.10104513058E+03  0.00000000000E+00 0. -1.
         23    2    1    2    0    0  0.00000000000E+00  0.00000000000E+00 -0.81231962040E+02  0.12085829912E+03  0.89487970199E+02 0.  0.
        -13    1    3    3    0    0  0.39936085064E+02 -0.26305852158E+01 -0.13597707278E+02  0.42269474944E+02  0.00000000000E+00 0.  1.
         13    1    3    3    0    0 -0.39936085064E+02  0.26305852158E+01 -0.67634254762E+02  0.78588824180E+02  0.00000000000E+00 0. -1.
<mgrwt>
<rscale>  0 0.89487970E+02</rscale>
<asrwt>0</asrwt>
<pdfrwt beam="2">  1        2 0.15545405E-01 0.89487970E+02</pdfrwt>
<pdfrwt beam="1">  1       -2 0.30481798E-02 0.89487970E+02</pdfrwt>
<totfact> 0.12954912E+05</totfact>
</mgrwt>
</event>
<event>
 5    1  0.1239369E+001  0.9157619E+02  0.7546771E-02  0.1299079E+00
          1   -1    0    0  501    0  0.00000000000E+00  0.00000000000E+00  0.51954374215E+01  0.51954374215E+01  0.00000000000E+00 0. -1.
         -1   -1    0    0    0  501 -0.00000000000E+00 -0.00000000000E+00 -0.40353668109E+03  0.40353668109E+03  0.00000000000E+00 0.  1.
         23    2    1    2    0    0  0.00000000000E+00  0.00000000000E+00 -0.39834124367E+03  0.40873211851E+03  0.91576188474E+02 0.  0.
        -11    1    3    3    0    0 -0.18503353376E+02 -0.41613658446E+02 -0.22033199807E+03  0.22498946648E+03  0.00000000000E+00 0.  1.
         11    1    3    3    0    0  0.18503353376E+02  0.41613658446E+02 -0.17800924560E+03  0.18374265203E+03  0.00000000000E+00 0. -1.
<mgrwt>
<rscale>  0 0.91576188E+02</rscale>
<asrwt>0</asrwt>
<pdfrwt beam="1">  1        1 0.79929811E-03 0.91576188E+02</pdfrwt>
<pdfrwt beam="2">  1       -1 0.62082563E-01 0.91576188E+02</pdfrwt>
<totfact> 0.52447989E+04</totfact>
</mgrwt>
</event>
<event>
 5    1  0.1239369E+001  0.9320087E+02  0.7546771E-02  0.1295280E+00
         -2   -1    0    0    0  501 -0.00000000000E+00  0.00000000000E+00  0.29279151949E+02  0.29279151949E+02  0.00000000000E+00 0.  1.
          2   -1    0    0  501    0  0.00000000000E+00 -0.00000000000E+00 -0.74168840248E+02  0.74168840248E+02  0.00000000000E+00 0. -1.
         23    2    1    2    0    0  0.00000000000E+00  0.00000000000E+00 -0.44889688299E+02  0.10344799220E+03  0.93200874321E+02 0.  0.
        -11    1    3    3    0    0 -0.39200607456E+02  0.20220349233E+02 -0.39132867824E+02  0.58965511039E+02  0.00000000000E+00 0. -1.
         11    1    3    3    0    0  0.39200607456E+02 -0.20220349233E+02 -0.57568204749E+01  0.44482481158E+02  0.00000000000E+00 0.  1.
<mgrwt>
<rscale>  0 0.93200874E+02</rscale>
<asrwt>0</asrwt>
<pdfrwt beam="2">  1        2 0.11410591E-01 0.93200874E+02</pdfrwt>
<pdfrwt beam="1">  1       -2 0.45044850E-02 0.93200874E+02</pdfrwt>
<totfact> 0.10572210E+05</totfact>
</mgrwt>
</event>
<event>
 5    1  0.1239369E+001  0.9932671E+02  0.7546771E-02  0.1281718E+00
          2   -1    0    0  501    0  0.00000000000E+00  0.00000000000E+00  0.16507204906E+02  0.16507204906E+02  0.00000000000E+00 0. -1.
         -2   -1    0    0    0  501 -0.00000000000E+00 -0.00000000000E+00 -0.14941650556E+03  0.14941650556E+03  0.00000000000E+00 0.  1.
         23    2    1    2    0    0  0.00000000000E+00  0.00000000000E+00 -0.13290930065E+03  0.16592371047E+03  0.99326710881E+02 0.  0.
        -11    1    3    3    0    0 -0.42099003512E+02  0.50487927977E+01 -0.10964991381E+03  0.11756240898E+03  0.00000000000E+00 0.  1.
         11    1    3    3    0    0  0.42099003512E+02 -0.50487927977E+01 -0.23259386840E+02  0.48361301488E+02  0.00000000000E+00 0. -1.
<mgrwt>
<rscale>  0 0.99326711E+02</rscale>
<asrwt>0</asrwt>
<pdfrwt beam="1">  1        2 0.25395700E-02 0.99326711E+02</pdfrwt>
<pdfrwt beam="2">  1       -2 0.22987155E-01 0.99326711E+02</pdfrwt>
<totfact> 0.56314502E+04</totfact>
</mgrwt>
</event>
<event>
 5    1  0.1239369E+001  0.9292568E+02  0.7546771E-02  0.1295918E+00
         -1   -1    0    0    0  501 -0.00000000000E+00  0.00000000000E+00  0.70323735053E+02  0.70323735053E+02  0.00000000000E+00 0.  1.
          1   -1    0    0  501    0  0.00000000000E+00 -0.00000000000E+00 -0.30697962931E+02  0.30697962931E+02  0.00000000000E+00 0. -1.
         23    2    1    2    0    0  0.00000000000E+00  0.00000000000E+00  0.39625772121E+02  0.10102169798E+03  0.92925678084E+02 0.  0.
        -13    1    3    3    0    0 -0.23691690138E+02  0.22382262992E+02  0.55811840220E+02  0.64631442712E+02  0.00000000000E+00 0.  1.
         13    1    3    3    0    0  0.23691690138E+02 -0.22382262992E+02 -0.16186068099E+02  0.36390255272E+02  0.00000000000E+00 0. -1.
<mgrwt>
<rscale>  0 0.92925678E+02</rscale>
<asrwt>0</asrwt>
<pdfrwt beam="2">  1        1 0.47227635E-02 0.92925678E+02</pdfrwt>
<pdfrwt beam="1">  1       -1 0.10819036E-01 0.92925678E+02</pdfrwt>
<totfact> 0.82380868E+04</totfact>
</mgrwt>
</event>
<event>
 5    1  0.1239369E+001  0.9014878E+02  0.7546771E-02  0.1302492E+00
         -1   -1    0    0    0  501 -0.00000000000E+00  0.00000000000E+00  0.19937156987E+03  0.19937156987E+03  0.00000000000E+00 0.  1.
          1   -1    0    0  501    0  0.00000000000E+00 -0.00000000000E+00 -0.10190522722E+02  0.10190522722E+02  0.00000000000E+00 0. -1.
         23    2    1    2    0    0  0.00000000000E+00  0.00000000000E+00  0.18918104715E+03  0.20956209259E+03  0.90148777318E+02 0.  0.
        -13    1    3    3    0    0 -0.23817319094E+02  0.37288192343E+02  0.74589758933E+02  0.86725464050E+02  0.00000000000E+00 0. -1.
         13    1    3    3    0    0  0.23817319094E+02 -0.37288192343E+02  0.11459128822E+03  0.12283662854E+03  0.00000000000E+00 0.  1.
<mgrwt>
<rscale>  0 0.90148777E+02</rscale>
<asrwt>0</asrwt>
<pdfrwt beam="2">  1        1 0.15677729E-02 0.90148777E+02</pdfrwt>
<pdfrwt beam="1">  1       -1 0.30672546E-01 0.90148777E+02</pdfrwt>
<totfact> 0.71568551E+04</totfact>
</mgrwt>
</event>
<event>
 5    1  0.1239369E+001  0.8484445E+02  0.7546771E-02  0.1315840E+00
         -1   -1    0    0    0  501 -0.00000000000E+00  0.00000000000E+00  0.32407129959E+02  0.32407129959E+02  0.00000000000E+00 0.  1.
          1   -1    0    0  501    0  0.00000000000E+00 -0.00000000000E+00 -0.55532385400E+02  0.55532385400E+02  0.00000000000E+00 0. -1.
         23    2    1    2    0    0  0.00000000000E+00  0.00000000000E+00 -0.23125255441E+02  0.87939515359E+02  0.84844451335E+02 0.  0.
        -11    1    3    3    0    0  0.72962620824E+01  0.40430078811E+02 -0.60245274916E+00  0.41087585258E+02  0.00000000000E+00 0. -1.
         11    1    3    3    0    0 -0.72962620824E+01 -0.40430078811E+02 -0.22522802692E+02  0.46851930101E+02  0.00000000000E+00 0.  1.
<mgrwt>
<rscale>  0 0.84844451E+02</rscale>
<asrwt>0</asrwt>
<pdfrwt beam="2">  1        1 0.85434438E-02 0.84844451E+02</pdfrwt>
<pdfrwt beam="1">  1       -1 0.49857124E-02 0.84844451E+02</pdfrwt>
<totfact> 0.11623002E+05</totfact>
</mgrwt>
</event>
<event>
 5    1  0.1239369E+001  0.9514678E+02  0.7546771E-02  0.1290846E+00
          4   -1    0    0  501    0  0.00000000000E+00  0.00000000000E+00  0.60719274431E+02  0.60719274431E+02  0.00000000000E+00 0. -1.
         -4   -1    0    0    0  501 -0.00000000000E+00 -0.00000000000E+00 -0.37273624079E+02  0.37273624079E+02  0.00000000000E+00 0.  1.
         23    2    1    2    0    0  0.00000000000E+00  0.00000000000E+00  0.23445650352E+02  0.97992898510E+02  0.95146779441E+02 0.  0.
        -13    1    3    3    0    0  0.27492203802E+02  0.90477615120E+01 -0.27162957738E+02  0.39692688638E+02  0.00000000000E+00 0.  1.
         13    1    3    3    0    0 -0.27492203802E+02 -0.90477615120E+01  0.50608608090E+02  0.58300209872E+02  0.00000000000E+00 0. -1.
<mgrwt>
<rscale>  0 0.95146779E+02</rscale>
<asrwt>0</asrwt>
<pdfrwt beam="1">  1        4 0.93414268E-02 0.95146779E+02</pdfrwt>
<pdfrwt beam="2">  1       -4 0.57344037E-02 0.95146779E+02</pdfrwt>
<totfact> 0.23669824E+04</totfact>
</mgrwt>
</event>
<event>
 5    1  0.1239369E+001  0.9136802E+02  0.7546771E-02  0.1299572E+00
          4   -1    0    0  501    0  0.00000000000E+00  0.00000000000E+00  0.35430191005E+02  0.35430191005E+02  0.00000000000E+00 0. -1.
         -4   -1    0    0    0  501 -0.00000000000E+00 -0.00000000000E+00 -0.58905375233E+02  0.58905375233E+02  0.00000000000E+00 0.  1.
         23    2    1    2    0    0  0.00000000000E+00  0.00000000000E+00 -0.23475184228E+02  0.94335566238E+02  0.91368018381E+02 0.  0.
        -13    1    3    3    0    0 -0.14999465592E+02  0.43850881022E+01 -0.56059884057E+02  0.58197281433E+02  0.00000000000E+00 0.  1.
         13    1    3    3    0    0  0.14999465592E+02 -0.43850881022E+01  0.32584699829E+02  0.36138284805E+02  0.00000000000E+00 0. -1.
<mgrwt>
<rscale>  0 0.91368018E+02</rscale>
<asrwt>0</asrwt>
<pdfrwt beam="1">  1        4 0.54507986E-02 0.91368018E+02</pdfrwt>
<pdfrwt beam="2">  1       -4 0.90623654E-02 0.91368018E+02</pdfrwt>
<totfact> 0.26661939E+04</totfact>
</mgrwt>
</event>
<event>
 5    1  0.1239369E+001  0.1118332E+03  0.7546771E-02  0.1257212E+00
          2   -1    0    0  501    0  0.00000000000E+00  0.00000000000E+00  0.46256226743E+03  0.46256226743E+03  0.00000000000E+00 0. -1.
         -2   -1    0    0    0  501 -0.00000000000E+00 -0.00000000000E+00 -0.67594481394E+01  0.67594481394E+01  0.00000000000E+00 0.  1.
         23    2    1    2    0    0  0.00000000000E+00  0.00000000000E+00  0.45580281929E+03  0.46932171557E+03  0.11183319110E+03 0.  0.
        -13    1    3    3    0    0  0.29064863879E+02 -0.45036699167E+02  0.29473123691E+03  0.29956563987E+03  0.00000000000E+00 0. -1.
         13    1    3    3    0    0 -0.29064863879E+02  0.45036699167E+02  0.16107158238E+03  0.16975607570E+03  0.00000000000E+00 0.  1.
<mgrwt>
<rscale>  0 0.11183319E+03</rscale>
<asrwt>0</asrwt>
<pdfrwt beam="1">  1        2 0.71163401E-01 0.11183319E+03</pdfrwt>
<pdfrwt beam="2">  1       -2 0.10399155E-02 0.11183319E+03</pdfrwt>
<totfact> 0.12153326E+05</totfact>
</mgrwt>
</event>
<event>
 5    1  0.1239369E+001  0.9209351E+02  0.7546771E-02  0.1297860E+00
         -4   -1    0    0    0  501 -0.00000000000E+00  0.00000000000E+00  0.29370442488E+02  0.29370442488E+02  0.00000000000E+00 0.  1.
          4   -1    0    0  501    0  0.00000000000E+00 -0.00000000000E+00 -0.72191751472E+02  0.72191751472E+02  0.00000000000E+00 0. -1.
         23    2    1    2    0    0  0.00000000000E+00  0.00000000000E+00 -0.42821308984E+02  0.10156219396E+03  0.92093510840E+02 0.  0.
        -11    1    3    3    0    0 -0.38118483225E+01 -0.18555546177E+02  0.24874325301E+02  0.31266124491E+02  0.00000000000E+00 0.  1.
         11    1    3    3    0    0  0.38118483225E+01  0.18555546177E+02 -0.67695634285E+02  0.70296069469E+02  0.00000000000E+00 0. -1.
<mgrwt>
<rscale>  0 0.92093511E+02</rscale>
<asrwt>0</asrwt>
<pdfrwt beam="2">  1        4 0.11106423E-01 0.92093511E+02</pdfrwt>
<pdfrwt beam="1">  1       -4 0.45185296E-02 0.92093511E+02</pdfrwt>
<totfact> 0.25655029E+04</totfact>
</mgrwt>
</event>
<event>
 5    1  0.1239369E+001  0.9129881E+02  0.7546771E-02  0.1299737E+00
         -1   -1    0    0    0  501 -0.00000000000E+00  0.00000000000E+00  0.20200898112E+03  0.20200898112E+03  0.00000000000E+00 0.  1.
          1   -1    0    0  501    0  0.00000000000E+00 -0.00000000000E+00 -0.10315721210E+02  0.10315721210E+02  0.00000000000E+00 0. -1.
         23    2    1    2    0    0  0.00000000000E+00  0.00000000000E+00  0.19169325991E+03  0.21232470233E+03  0.91298813377E+02 0.  0.
        -11    1    3    3    0    0  0.36847440832E+02 -0.15066030654E+01  0.33276932535E+02  0.49672507362E+02  0.00000000000E+00 0. -1.
         11    1    3    3    0    0 -0.36847440832E+02  0.15066030654E+01  0.15841632737E+03  0.16265219496E+03  0.00000000000E+00 0.  1.
<mgrwt>
<rscale>  0 0.91298813E+02</rscale>
<asrwt>0</asrwt>
<pdfrwt beam="2">  1        1 0.15870342E-02 0.91298813E+02</pdfrwt>
<pdfrwt beam="1">  1       -1 0.31078302E-01 0.91298813E+02</pdfrwt>
<totfact> 0.68984701E+04</totfact>
</mgrwt>
</event>
<event>
 5    1  0.1239369E+001  0.9114423E+02  0.7546771E-02  0.1300104E+00
         -2   -1    0    0    0  501 -0.00000000000E+00  0.00000000000E+00  0.68761373263E+02  0.68761373263E+02  0.00000000000E+00 0. -1.
          2   -1    0    0  501    0  0.00000000000E+00 -0.00000000000E+00 -0.30203262480E+02  0.30203262480E+02  0.00000000000E+00 0.  1.
         23    2    1    2    0    0  0.00000000000E+00  0.00000000000E+00  0.38558110783E+02  0.98964635743E+02  0.91144233062E+02 0.  0.
        -13    1    3    3    0    0 -0.48463134790E+01  0.34704486188E+02  0.50915429075E+02  0.61808324956E+02  0.00000000000E+00 0.  1.
         13    1    3    3    0    0  0.48463134790E+01 -0.34704486188E+02 -0.12357318293E+02  0.37156310787E+02  0.00000000000E+00 0. -1.
<mgrwt>
<rscale>  0 0.91144233E+02</rscale>
<asrwt>0</asrwt>
<pdfrwt beam="2">  1        2 0.46466558E-02 0.91144233E+02</pdfrwt>
<pdfrwt beam="1">  1       -2 0.10578673E-01 0.91144233E+02</pdfrwt>
<totfact> 0.88719732E+04</totfact>
</mgrwt>
</event>
<event>
 5    1  0.1239369E+001  0.1078099E+03  0.7546771E-02  0.1264680E+00
         -1   -1    0    0    0  501 -0.00000000000E+00  0.00000000000E+00  0.28845475741E+03  0.28845475741E+03  0.00000000000E+00 0.  1.
          1   -1    0    0  501    0  0.00000000000E+00 -0.00000000000E+00 -0.10073490075E+02  0.10073490075E+02  0.00000000000E+00 0. -1.
         23    2    1    2    0    0  0.00000000000E+00  0.00000000000E+00  0.27838126733E+03  0.29852824748E+03  0.10780994640E+03 0.  0.
        -13    1    3    3    0    0 -0.48561277123E+02 -0.14559316931E+02  0.18991554132E+03  0.19656572484E+03  0.00000000000E+00 0.  1.
         13    1    3    3    0    0  0.48561277123E+02  0.14559316931E+02  0.88465726011E+02  0.10196252264E+03  0.00000000000E+00 0. -1.
<mgrwt>
<rscale>  0 0.10780995E+03</rscale>
<asrwt>0</asrwt>
<pdfrwt beam="2">  1        1 0.15497679E-02 0.10780995E+03</pdfrwt>
<pdfrwt beam="1">  1       -1 0.44377649E-01 0.10780995E+03</pdfrwt>
<totfact> 0.39595776E+04</totfact>
</mgrwt>
</event>
<event>
 5    1  0.1239369E+001  0.9083743E+02  0.7546771E-02  0.1300836E+00
         -2   -1    0    0    0  501 -0.00000000000E+00  0.00000000000E+00  0.53390438822E+01  0.53390438822E+01  0.00000000000E+00 0.  1.
          2   -1    0    0  501    0  0.00000000000E+00 -0.00000000000E+00 -0.38637249513E+03  0.38637249513E+03  0.00000000000E+00 0. -1.
         23    2    1    2    0    0  0.00000000000E+00  0.00000000000E+00 -0.38103345125E+03  0.39171153902E+03  0.90837430752E+02 0.  0.
        -11    1    3    3    0    0 -0.13204453278E+02 -0.43063775174E+02 -0.21566605845E+03  0.22031952951E+03  0.00000000000E+00 0. -1.
         11    1    3    3    0    0  0.13204453278E+02  0.43063775174E+02 -0.16536739280E+03  0.17139200950E+03  0.00000000000E+00 0.  1.
<mgrwt>
<rscale>  0 0.90837431E+02</rscale>
<asrwt>0</asrwt>
<pdfrwt beam="2">  1        2 0.59441932E-01 0.90837431E+02</pdfrwt>
<pdfrwt beam="1">  1       -2 0.82139123E-03 0.90837431E+02</pdfrwt>
<totfact> 0.19911706E+05</totfact>
</mgrwt>
</event>
<event>
 5    1  0.1239369E+001  0.9026497E+02  0.7546771E-02  0.1302211E+00
          1   -1    0    0  501    0  0.00000000000E+00  0.00000000000E+00  0.56761765763E+02  0.56761765763E+02  0.00000000000E+00 0. -1.
         -1   -1    0    0    0  501 -0.00000000000E+00 -0.00000000000E+00 -0.35885797325E+02  0.35885797325E+02  0.00000000000E+00 0.  1.
         23    2    1    2    0    0  0.00000000000E+00  0.00000000000E+00  0.20875968438E+02  0.92647563087E+02  0.90264970436E+02 0.  0.
        -13    1    3    3    0    0  0.24402236287E+02 -0.22683368860E+02 -0.20811282674E+02  0.39282487767E+02  0.00000000000E+00 0.  1.
         13    1    3    3    0    0 -0.24402236287E+02  0.22683368860E+02  0.41687251112E+02  0.53365075320E+02  0.00000000000E+00 0. -1.
<mgrwt>
<rscale>  0 0.90264970E+02</rscale>
<asrwt>0</asrwt>
<pdfrwt beam="1">  1        1 0.87325794E-02 0.90264970E+02</pdfrwt>
<pdfrwt beam="2">  1       -1 0.55208919E-02 0.90264970E+02</pdfrwt>
<totfact> 0.98271458E+04</totfact>
</mgrwt>
</event>
<event>
 5    1  0.1239369E+001  0.9002395E+02  0.7546771E-02  0.1302794E+00
          1   -1    0    0  501    0  0.00000000000E+00  0.00000000000E+00  0.81077337840E+01  0.81077337840E+01  0.00000000000E+00 0. -1.
         -1   -1    0    0    0  501 -0.00000000000E+00 -0.00000000000E+00 -0.24989447789E+03  0.24989447789E+03  0.00000000000E+00 0.  1.
         23    2    1    2    0    0  0.00000000000E+00  0.00000000000E+00 -0.24178674411E+03  0.25800221167E+03  0.90023950165E+02 0.  0.
        -13    1    3    3    0    0  0.32527280138E+02 -0.17287207460E+02 -0.46754596654E+02  0.59521960680E+02  0.00000000000E+00 0. -1.
         13    1    3    3    0    0 -0.32527280138E+02  0.17287207460E+02 -0.19503214745E+03  0.19848025099E+03  0.00000000000E+00 0.  1.
<mgrwt>
<rscale>  0 0.90023950E+02</rscale>
<asrwt>0</asrwt>
<pdfrwt beam="1">  1        1 0.12473438E-02 0.90023950E+02</pdfrwt>
<pdfrwt beam="2">  1       -1 0.38445300E-01 0.90023950E+02</pdfrwt>
<totfact> 0.66960525E+04</totfact>
</mgrwt>
</event>
<event>
 5    1  0.1239369E+001  0.9108233E+02  0.7546771E-02  0.1300252E+00
         -1   -1    0    0    0  501 -0.00000000000E+00  0.00000000000E+00  0.51436587710E+02  0.51436587710E+02  0.00000000000E+00 0.  1.
          1   -1    0    0  501    0  0.00000000000E+00 -0.00000000000E+00 -0.40321452244E+02  0.40321452244E+02  0.00000000000E+00 0. -1.
         23    2    1    2    0    0  0.00000000000E+00  0.00000000000E+00  0.11115135467E+02  0.91758039954E+02  0.91082334510E+02 0.  0.
        -13    1    3    3    0    0 -0.40426650293E+02  0.16828110193E+02 -0.70451775630E+01  0.44352382951E+02  0.00000000000E+00 0. -1.
         13    1    3    3    0    0  0.40426650293E+02 -0.16828110193E+02  0.18160313030E+02  0.47405657003E+02  0.00000000000E+00 0.  1.
<mgrwt>
<rscale>  0 0.91082335E+02</rscale>
<asrwt>0</asrwt>
<pdfrwt beam="2">  1        1 0.62033003E-02 0.91082335E+02</pdfrwt>
<pdfrwt beam="1">  1       -1 0.79133212E-02 0.91082335E+02</pdfrwt>
<totfact> 0.91040469E+04</totfact>
</mgrwt>
</event>
<event>
 5    1  0.1239369E+001  0.9710962E+02  0.7546771E-02  0.1286494E+00
          2   -1    0    0  501    0  0.00000000000E+00  0.00000000000E+00  0.16570302342E+02  0.16570302342E+02  0.00000000000E+00 0. -1.
         -2   -1    0    0    0  501 -0.00000000000E+00 -0.00000000000E+00 -0.14227678452E+03  0.14227678452E+03  0.00000000000E+00 0.  1.
         23    2    1    2    0    0  0.00000000000E+00  0.00000000000E+00 -0.12570648217E+03  0.15884708686E+03  0.97109615089E+02 0.  0.
        -13    1    3    3    0    0 -0.65789890688E+01  0.43769838463E+02 -0.95506336852E+02  0.10526415456E+03  0.00000000000E+00 0.  1.
         13    1    3    3    0    0  0.65789890688E+01 -0.43769838463E+02 -0.30200145321E+02  0.53582932298E+02  0.00000000000E+00 0. -1.
<mgrwt>
<rscale>  0 0.97109615E+02</rscale>
<asrwt>0</asrwt>
<pdfrwt beam="1">  1        2 0.25492773E-02 0.97109615E+02</pdfrwt>
<pdfrwt beam="2">  1       -2 0.21888736E-01 0.97109615E+02</pdfrwt>
<totfact> 0.60702422E+04</totfact>
</mgrwt>
</event>
<event>
 5    1  0.1239369E+001  0.7891713E+02  0.7546771E-02  0.1332153E+00
         -1   -1    0    0    0  501 -0.00000000000E+00  0.00000000000E+00  0.13857198187E+03  0.13857198187E+03  0.00000000000E+00 0. -1.
          1   -1    0    0  501    0  0.00000000000E+00 -0.00000000000E+00 -0.11235881664E+02  0.11235881664E+02  0.00000000000E+00 0.  1.
         23    2    1    2    0    0  0.00000000000E+00  0.00000000000E+00  0.12733610021E+03  0.14980786353E+03  0.78917130971E+02 0.  0.
        -11    1    3    3    0    0  0.19226376729E+02 -0.20780639152E+02  0.11491225697E+02  0.30553834353E+02  0.00000000000E+00 0.  1.
         11    1    3    3    0    0 -0.19226376729E+02  0.20780639152E+02  0.11584487451E+03  0.11925402918E+03  0.00000000000E+00 0. -1.
<mgrwt>
<rscale>  0 0.78917131E+02</rscale>
<asrwt>0</asrwt>
<pdfrwt beam="2">  1        1 0.17285973E-02 0.78917131E+02</pdfrwt>
<pdfrwt beam="1">  1       -1 0.21318765E-01 0.78917131E+02</pdfrwt>
<totfact> 0.11055412E+05</totfact>
</mgrwt>
</event>
<event>
 5    1  0.1239369E+001  0.8713230E+02  0.7546771E-02  0.1309949E+00
          4   -1    0    0  501    0  0.00000000000E+00  0.00000000000E+00  0.17843901644E+03  0.17843901644E+03  0.00000000000E+00 0. -1.
         -4   -1    0    0    0  501 -0.00000000000E+00 -0.00000000000E+00 -0.10636740237E+02  0.10636740237E+02  0.00000000000E+00 0.  1.
         23    2    1    2    0    0  0.00000000000E+00  0.00000000000E+00  0.16780227620E+03  0.18907575668E+03  0.87132300923E+02 0.  0.
        -11    1    3    3    0    0  0.10988161399E+02  0.42157308680E+02  0.83518457607E+02  0.94198254375E+02  0.00000000000E+00 0. -1.
         11    1    3    3    0    0 -0.10988161399E+02 -0.42157308680E+02  0.84283818596E+02  0.94877502303E+02  0.00000000000E+00 0.  1.
<mgrwt>
<rscale>  0 0.87132301E+02</rscale>
<asrwt>0</asrwt>
<pdfrwt beam="1">  1        4 0.27452154E-01 0.87132301E+02</pdfrwt>
<pdfrwt beam="2">  1       -4 0.16364217E-02 0.87132301E+02</pdfrwt>
<totfact> 0.24662077E+04</totfact>
</mgrwt>
</event>
<event>
 5    1  0.1239369E+001  0.9016673E+02  0.7546771E-02  0.1302448E+00
          2   -1    0    0  501    0  0.00000000000E+00  0.00000000000E+00  0.16497029095E+02  0.16497029095E+02  0.00000000000E+00 0.  1.
         -2   -1    0    0    0  501 -0.00000000000E+00 -0.00000000000E+00 -0.12320458312E+03  0.12320458312E+03  0.00000000000E+00 0. -1.
         23    2    1    2    0    0  0.00000000000E+00  0.00000000000E+00 -0.10670755402E+03  0.13970161221E+03  0.90166725399E+02 0.  0.
        -11    1    3    3    0    0  0.38681742781E+02 -0.23098696618E+02 -0.50816127464E+02  0.67912486485E+02  0.00000000000E+00 0.  1.
         11    1    3    3    0    0 -0.38681742781E+02  0.23098696618E+02 -0.55891426561E+02  0.71789125730E+02  0.00000000000E+00 0. -1.
<mgrwt>
<rscale>  0 0.90166725E+02</rscale>
<asrwt>0</asrwt>
<pdfrwt beam="1">  1        2 0.25380044E-02 0.90166725E+02</pdfrwt>
<pdfrwt beam="2">  1       -2 0.18954552E-01 0.90166725E+02</pdfrwt>
<totfact> 0.76892791E+04</totfact>
</mgrwt>
</event>
<event>
 5    1  0.1239369E+001  0.9252092E+02  0.7546771E-02  0.1296859E+00
          1   -1    0    0  501    0  0.00000000000E+00  0.00000000000E+00  0.28953153220E+03  0.28953153220E+03  0.00000000000E+00 0. -1.
         -1   -1    0    0    0  501 -0.00000000000E+00 -0.00000000000E+00 -0.73913548643E+01  0.73913548643E+01  0.00000000000E+00 0.  1.
         23    2    1    2    0    0  0.00000000000E+00  0.00000000000E+00  0.28214017734E+03  0.29692288707E+03  0.92520923016E+02 0.  0.
        -11    1    3    3    0    0 -0.25942777679E+02  0.38058224309E+02  0.15490123465E+03  0.16160398710E+03  0.00000000000E+00 0. -1.
         11    1    3    3    0    0  0.25942777679E+02 -0.38058224309E+02  0.12723894269E+03  0.13531889997E+03  0.00000000000E+00 0.  1.
<mgrwt>
<rscale>  0 0.92520923E+02</rscale>
<asrwt>0</asrwt>
<pdfrwt beam="1">  1        1 0.44543304E-01 0.92520923E+02</pdfrwt>
<pdfrwt beam="2">  1       -1 0.11371317E-02 0.92520923E+02</pdfrwt>
<totfact> 0.12237779E+05</totfact>
</mgrwt>
</event>
<event>
 5    1  0.1239369E+001  0.6136399E+02  0.7546771E-02  0.1392195E+00
          3   -1    0    0  501    0  0.00000000000E+00  0.00000000000E+00  0.34027453714E+03  0.34027453714E+03  0.00000000000E+00 0. -1.
         -3   -1    0    0    0  501 -0.00000000000E+00 -0.00000000000E+00 -0.27665452339E+01  0.27665452339E+01  0.00000000000E+00 0.  1.
         23    2    1    2    0    0  0.00000000000E+00  0.00000000000E+00  0.33750799191E+03  0.34304108238E+03  0.61363992665E+02 0.  0.
        -13    1    3    3    0    0  0.29073245523E+02 -0.96907650180E+01  0.17708399425E+03  0.17971618055E+03  0.00000000000E+00 0. -1.
         13    1    3    3    0    0 -0.29073245523E+02  0.96907650180E+01  0.16042399766E+03  0.16332490182E+03  0.00000000000E+00 0.  1.
<mgrwt>
<rscale>  0 0.61363993E+02</rscale>
<asrwt>0</asrwt>
<pdfrwt beam="1">  1        3 0.52349896E-01 0.61363993E+02</pdfrwt>
<pdfrwt beam="2">  1       -3 0.42562261E-03 0.61363993E+02</pdfrwt>
<totfact> 0.63249603E+04</totfact>
</mgrwt>
</event>
<event>
 5    1  0.1239369E+001  0.9203914E+02  0.7546771E-02  0.1297987E+00
          2   -1    0    0  501    0  0.00000000000E+00  0.00000000000E+00  0.51902631181E+02  0.51902631181E+02  0.00000000000E+00 0. -1.
         -2   -1    0    0    0  501 -0.00000000000E+00 -0.00000000000E+00 -0.40803341527E+02  0.40803341527E+02  0.00000000000E+00 0.  1.
         23    2    1    2    0    0  0.00000000000E+00  0.00000000000E+00  0.11099289655E+02  0.92705972708E+02  0.92039139201E+02 0.  0.
        -11    1    3    3    0    0  0.31504621958E+02  0.18580150179E+02  0.33681147802E+02  0.49721050901E+02  0.00000000000E+00 0. -1.
         11    1    3    3    0    0 -0.31504621958E+02 -0.18580150179E+02 -0.22581858148E+02  0.42984921807E+02  0.00000000000E+00 0.  1.
<mgrwt>
<rscale>  0 0.92039139E+02</rscale>
<asrwt>0</asrwt>
<pdfrwt beam="1">  1        2 0.79850202E-02 0.92039139E+02</pdfrwt>
<pdfrwt beam="2">  1       -2 0.62774372E-02 0.92039139E+02</pdfrwt>
<totfact> 0.99368375E+04</totfact>
</mgrwt>
</event>
<event>
 5    1  0.1239369E+001  0.8998910E+02  0.7546771E-02  0.1302878E+00
         -1   -1    0    0    0  501 -0.00000000000E+00  0.00000000000E+00  0.17181489476E+03  0.17181489476E+03  0.00000000000E+00 0.  1.
          1   -1    0    0  501    0  0.00000000000E+00 -0.00000000000E+00 -0.11783084449E+02  0.11783084449E+02  0.00000000000E+00 0. -1.
         23    2    1    2    0    0  0.00000000000E+00  0.00000000000E+00  0.16003181031E+03  0.18359797920E+03  0.89989097441E+02 0.  0.
        -11    1    3    3    0    0  0.27633870376E+02  0.25665432443E+02  0.13008104884E+03  0.13543789898E+03  0.00000000000E+00 0.  1.
         11    1    3    3    0    0 -0.27633870376E+02 -0.25665432443E+02  0.29950761469E+02  0.48160080222E+02  0.00000000000E+00 0. -1.
<mgrwt>
<rscale>  0 0.89989097E+02</rscale>
<asrwt>0</asrwt>
<pdfrwt beam="2">  1        1 0.18127823E-02 0.89989097E+02</pdfrwt>
<pdfrwt beam="1">  1       -1 0.26433059E-01 0.89989097E+02</pdfrwt>
<totfact> 0.74848434E+04</totfact>
</mgrwt>
</event>
<event>
 5    1  0.1239369E+001  0.8819760E+02  0.7546771E-02  0.1307276E+00
          2   -1    0    0  501    0  0.00000000000E+00  0.00000000000E+00  0.11984499180E+03  0.11984499180E+03  0.00000000000E+00 0. -1.
         -2   -1    0    0    0  501 -0.00000000000E+00 -0.00000000000E+00 -0.16226828144E+02  0.16226828144E+02  0.00000000000E+00 0.  1.
         23    2    1    2    0    0  0.00000000000E+00  0.00000000000E+00  0.10361816366E+03  0.13607181994E+03  0.88197598287E+02 0.  0.
        -13    1    3    3    0    0  0.24371556807E+02  0.28052684736E+02  0.88441498261E+02  0.95931353148E+02  0.00000000000E+00 0. -1.
         13    1    3    3    0    0 -0.24371556807E+02 -0.28052684736E+02  0.15176665395E+02  0.40140466797E+02  0.00000000000E+00 0.  1.
<mgrwt>
<rscale>  0 0.88197598E+02</rscale>
<asrwt>0</asrwt>
<pdfrwt beam="1">  1        2 0.18437690E-01 0.88197598E+02</pdfrwt>
<pdfrwt beam="2">  1       -2 0.24964352E-02 0.88197598E+02</pdfrwt>
<totfact> 0.14211371E+05</totfact>
</mgrwt>
</event>
<event>
 5    1  0.1239369E+001  0.9173035E+02  0.7546771E-02  0.1298715E+00
          1   -1    0    0  501    0  0.00000000000E+00  0.00000000000E+00  0.81677127373E+02  0.81677127373E+02  0.00000000000E+00 0. -1.
         -1   -1    0    0    0  501 -0.00000000000E+00 -0.00000000000E+00 -0.25755243889E+02  0.25755243889E+02  0.00000000000E+00 0.  1.
         23    2    1    2    0    0  0.00000000000E+00  0.00000000000E+00  0.55921883484E+02  0.10743237126E+03  0.91730351263E+02 0.  0.
        -13    1    3    3    0    0 -0.25238517167E+02 -0.27708809001E+02 -0.30000721647E+01  0.37600016995E+02  0.00000000000E+00 0.  1.
         13    1    3    3    0    0  0.25238517167E+02  0.27708809001E+02  0.58921955649E+02  0.69832354267E+02  0.00000000000E+00 0. -1.
<mgrwt>
<rscale>  0 0.91730351E+02</rscale>
<asrwt>0</asrwt>
<pdfrwt beam="1">  1        1 0.12565712E-01 0.91730351E+02</pdfrwt>
<pdfrwt beam="2">  1       -1 0.39623452E-02 0.91730351E+02</pdfrwt>
<totfact> 0.99408905E+04</totfact>
</mgrwt>
</event>
<event>
 5    1  0.1239369E+001  0.8885705E+02  0.7546771E-02  0.1305643E+00
          1   -1    0    0  501    0  0.00000000000E+00  0.00000000000E+00  0.65103397800E+02  0.65103397800E+02  0.00000000000E+00 0. -1.
         -1   -1    0    0    0  501 -0.00000000000E+00 -0.00000000000E+00 -0.30319368471E+02  0.30319368471E+02  0.00000000000E+00 0.  1.
         23    2    1    2    0    0  0.00000000000E+00  0.00000000000E+00  0.34784029329E+02  0.95422766270E+02  0.88857051641E+02 0.  0.
        -11    1    3    3    0    0 -0.93409292198E+01 -0.38000595612E+02 -0.52004540431E+01  0.39475852718E+02  0.00000000000E+00 0.  1.
         11    1    3    3    0    0  0.93409292198E+01  0.38000595612E+02  0.39984483372E+02  0.55946913553E+02  0.00000000000E+00 0. -1.
<mgrwt>
<rscale>  0 0.88857052E+02</rscale>
<asrwt>0</asrwt>
<pdfrwt beam="1">  1        1 0.10015907E-01 0.88857052E+02</pdfrwt>
<pdfrwt beam="2">  1       -1 0.46645182E-02 0.88857052E+02</pdfrwt>
<totfact> 0.10476163E+05</totfact>
</mgrwt>
</event>
<event>
 5    1  0.1239369E+001  0.9055911E+02  0.7546771E-02  0.1301503E+00
         -2   -1    0    0    0  501 -0.00000000000E+00  0.00000000000E+00  0.59892225476E+02  0.59892225476E+02  0.00000000000E+00 0.  1.
          2   -1    0    0  501    0  0.00000000000E+00 -0.00000000000E+00 -0.34232126628E+02  0.34232126628E+02  0.00000000000E+00 0. -1.
         23    2    1    2    0    0  0.00000000000E+00  0.00000000000E+00  0.25660098848E+02  0.94124352103E+02  0.90559113213E+02 0.  0.
        -13    1    3    3    0    0  0.40535979739E+02  0.12426725039E+02  0.29350759686E+02  0.51566037687E+02  0.00000000000E+00 0.  1.
         13    1    3    3    0    0 -0.40535979739E+02 -0.12426725039E+02 -0.36906608373E+01  0.42558314417E+02  0.00000000000E+00 0. -1.
<mgrwt>
<rscale>  0 0.90559113E+02</rscale>
<asrwt>0</asrwt>
<pdfrwt beam="2">  1        2 0.52664810E-02 0.90559113E+02</pdfrwt>
<pdfrwt beam="1">  1       -2 0.92141886E-02 0.90559113E+02</pdfrwt>
<totfact> 0.93447437E+04</totfact>
</mgrwt>
</event>
<event>
 5    1  0.1239369E+001  0.9096760E+02  0.7546771E-02  0.1300525E+00
         -2   -1    0    0    0  501 -0.00000000000E+00  0.00000000000E+00  0.86068190024E+01  0.86068190024E+01  0.00000000000E+00 0.  1.
          2   -1    0    0  501    0  0.00000000000E+00 -0.00000000000E+00 -0.24036477285E+03  0.24036477285E+03  0.00000000000E+00 0. -1.
         23    2    1    2    0    0  0.00000000000E+00  0.00000000000E+00 -0.23175795385E+03  0.24897159185E+03  0.90967600704E+02 0.  0.
        -13    1    3    3    0    0 -0.45451470746E+02 -0.54686261539E+00 -0.12032666511E+03  0.12862597556E+03  0.00000000000E+00 0.  1.
         13    1    3    3    0    0  0.45451470746E+02  0.54686261539E+00 -0.11143128874E+03  0.12034561629E+03  0.00000000000E+00 0. -1.
<mgrwt>
<rscale>  0 0.90967601E+02</rscale>
<asrwt>0</asrwt>
<pdfrwt beam="2">  1        2 0.36979197E-01 0.90967601E+02</pdfrwt>
<pdfrwt beam="1">  1       -2 0.13241260E-02 0.90967601E+02</pdfrwt>
<totfact> 0.16646173E+05</totfact>
</mgrwt>
</event>
<event>
 5    1  0.1239369E+001  0.8379069E+02  0.7546771E-02  0.1318626E+00
          1   -1    0    0  501    0  0.00000000000E+00  0.00000000000E+00  0.16174625490E+03  0.16174625490E+03  0.00000000000E+00 0. -1.
         -1   -1    0    0    0  501 -0.00000000000E+00 -0.00000000000E+00 -0.10851687477E+02  0.10851687477E+02  0.00000000000E+00 0.  1.
         23    2    1    2    0    0  0.00000000000E+00  0.00000000000E+00  0.15089456743E+03  0.17259794238E+03  0.83790687043E+02 0.  0.
        -13    1    3    3    0    0 -0.33992062067E+02 -0.19330040532E+02  0.44473173232E+02  0.59219708610E+02  0.00000000000E+00 0.  1.
         13    1    3    3    0    0  0.33992062067E+02  0.19330040532E+02  0.10642139419E+03  0.11337823377E+03  0.00000000000E+00 0. -1.
<mgrwt>
<rscale>  0 0.83790687E+02</rscale>
<asrwt>0</asrwt>
<pdfrwt beam="1">  1        1 0.24884037E-01 0.83790687E+02</pdfrwt>
<pdfrwt beam="2">  1       -1 0.16694905E-02 0.83790687E+02</pdfrwt>
<totfact> 0.14258209E+05</totfact>
</mgrwt>
</event>
<event>
 5    1  0.1239369E+001  0.9049848E+02  0.7546771E-02  0.1301649E+00
         -3   -1    0    0    0  501 -0.00000000000E+00  0.00000000000E+00  0.44401392065E+02  0.44401392065E+02  0.00000000000E+00 0.  1.
          3   -1    0    0  501    0  0.00000000000E+00 -0.00000000000E+00 -0.46113278195E+02  0.46113278195E+02  0.00000000000E+00 0. -1.
         23    2    1    2    0    0  0.00000000000E+00  0.00000000000E+00 -0.17118861293E+01  0.90514670260E+02  0.90498480529E+02 0.  0.
        -11    1    3    3    0    0  0.14498437789E+02 -0.10860462639E+02  0.40616392475E+02  0.44472977017E+02  0.00000000000E+00 0.  1.
         11    1    3    3    0    0 -0.14498437789E+02  0.10860462639E+02 -0.42328278604E+02  0.46041693243E+02  0.00000000000E+00 0. -1.
<mgrwt>
<rscale>  0 0.90498481E+02</rscale>
<asrwt>0</asrwt>
<pdfrwt beam="2">  1        3 0.70943505E-02 0.90498481E+02</pdfrwt>
<pdfrwt beam="1">  1       -3 0.68309834E-02 0.90498481E+02</pdfrwt>
<totfact> 0.36116059E+04</totfact>
</mgrwt>
</event>
<event>
 5    1  0.1239369E+001  0.9166408E+02  0.7546771E-02  0.1298871E+00
         -2   -1    0    0    0  501 -0.00000000000E+00  0.00000000000E+00  0.26687344240E+02  0.26687344240E+02  0.00000000000E+00 0. -1.
          2   -1    0    0  501    0  0.00000000000E+00 -0.00000000000E+00 -0.78710564496E+02  0.78710564496E+02  0.00000000000E+00 0.  1.
         23    2    1    2    0    0  0.00000000000E+00  0.00000000000E+00 -0.52023220257E+02  0.10539790874E+03  0.91664080861E+02 0.  0.
        -11    1    3    3    0    0 -0.14815181649E+02 -0.19327424123E+02  0.18632769840E+02  0.30662991414E+02  0.00000000000E+00 0. -1.
         11    1    3    3    0    0  0.14815181649E+02  0.19327424123E+02 -0.70655990097E+02  0.74734917322E+02  0.00000000000E+00 0.  1.
<mgrwt>
<rscale>  0 0.91664081E+02</rscale>
<asrwt>0</asrwt>
<pdfrwt beam="2">  1        2 0.12109318E-01 0.91664081E+02</pdfrwt>
<pdfrwt beam="1">  1       -2 0.41057452E-02 0.91664081E+02</pdfrwt>
<totfact> 0.11263971E+05</totfact>
</mgrwt>
</event>
<event>
 5    1  0.1239369E+001  0.9005563E+02  0.7546771E-02  0.1302717E+00
         -1   -1    0    0    0  501 -0.00000000000E+00  0.00000000000E+00  0.33205325110E+02  0.33205325110E+02  0.00000000000E+00 0.  1.
          1   -1    0    0  501    0  0.00000000000E+00 -0.00000000000E+00 -0.61059604048E+02  0.61059604048E+02  0.00000000000E+00 0. -1.
         23    2    1    2    0    0  0.00000000000E+00  0.00000000000E+00 -0.27854278938E+02  0.94264929159E+02  0.90055627332E+02 0.  0.
        -11    1    3    3    0    0 -0.19282760056E+02  0.45808768831E+01 -0.56248305177E+02  0.59637916661E+02  0.00000000000E+00 0. -1.
         11    1    3    3    0    0  0.19282760056E+02 -0.45808768831E+01  0.28394026240E+02  0.34627012497E+02  0.00000000000E+00 0.  1.
<mgrwt>
<rscale>  0 0.90055627E+02</rscale>
<asrwt>0</asrwt>
<pdfrwt beam="2">  1        1 0.93937852E-02 0.90055627E+02</pdfrwt>
<pdfrwt beam="1">  1       -1 0.51085116E-02 0.90055627E+02</pdfrwt>
<totfact> 0.99993012E+04</totfact>
</mgrwt>
</event>
<event>
 5    1  0.1239369E+001  0.8533798E+02  0.7546771E-02  0.1314551E+00
          1   -1    0    0  501    0  0.00000000000E+00  0.00000000000E+00  0.15767735262E+02  0.15767735262E+02  0.00000000000E+00 0. -1.
         -1   -1    0    0    0  501 -0.00000000000E+00 -0.00000000000E+00 -0.11546634798E+03  0.11546634798E+03  0.00000000000E+00 0.  1.
         23    2    1    2    0    0  0.00000000000E+00  0.00000000000E+00 -0.99698612723E+02  0.13123408325E+03  0.85337982321E+02 0.  0.
        -13    1    3    3    0    0  0.28467925670E+02 -0.28064760774E+02 -0.26905982656E+02  0.48186984674E+02  0.00000000000E+00 0.  1.
         13    1    3    3    0    0 -0.28467925670E+02  0.28064760774E+02 -0.72792630066E+02  0.83047098572E+02  0.00000000000E+00 0. -1.
<mgrwt>
<rscale>  0 0.85337982E+02</rscale>
<asrwt>0</asrwt>
<pdfrwt beam="1">  1        1 0.24258054E-02 0.85337982E+02</pdfrwt>
<pdfrwt beam="2">  1       -1 0.17764054E-01 0.85337982E+02</pdfrwt>
<totfact> 0.93866553E+04</totfact>
</mgrwt>
</event>
<event>
 5    1  0.1239369E+001  0.9577587E+02  0.7546771E-02  0.1289438E+00
          2   -1    0    0  501    0  0.00000000000E+00  0.00000000000E+00  0.28032262582E+02  0.28032262582E+02  0.00000000000E+00 0. -1.
         -2   -1    0    0    0  501 -0.00000000000E+00 -0.00000000000E+00 -0.81807686576E+02  0.81807686576E+02  0.00000000000E+00 0.  1.
         23    2    1    2    0    0  0.00000000000E+00  0.00000000000E+00 -0.53775423994E+02  0.10983994916E+03  0.95775874861E+02 0.  0.
        -11    1    3    3    0    0 -0.22353487961E+02 -0.52425858430E+01 -0.75083688718E+02  0.78515752826E+02  0.00000000000E+00 0.  1.
         11    1    3    3    0    0  0.22353487961E+02  0.52425858430E+01  0.21308264724E+02  0.31324196333E+02  0.00000000000E+00 0. -1.
<mgrwt>
<rscale>  0 0.95775875E+02</rscale>
<asrwt>0</asrwt>
<pdfrwt beam="1">  1        2 0.43126559E-02 0.95775875E+02</pdfrwt>
<pdfrwt beam="2">  1       -2 0.12585798E-01 0.95775875E+02</pdfrwt>
<totfact> 0.74913674E+04</totfact>
</mgrwt>
</event>
<event>
 5    1  0.1239369E+001  0.9160824E+02  0.7546771E-02  0.1299003E+00
         -2   -1    0    0    0  501 -0.00000000000E+00  0.00000000000E+00  0.76341489191E+02  0.76341489191E+02  0.00000000000E+00 0.  1.
          2   -1    0    0  501    0  0.00000000000E+00 -0.00000000000E+00 -0.27482008520E+02  0.27482008520E+02  0.00000000000E+00 0. -1.
         23    2    1    2    0    0  0.00000000000E+00  0.00000000000E+00  0.48859480672E+02  0.10382349771E+03  0.91608241034E+02 0.  0.
        -13    1    3    3    0    0 -0.21200477663E+02 -0.25113532731E+02  0.60587937872E+02  0.68927846296E+02  0.00000000000E+00 0.  1.
         13    1    3    3    0    0  0.21200477663E+02  0.25113532731E+02 -0.11728457201E+02  0.34895651415E+02  0.00000000000E+00 0. -1.
<mgrwt>
<rscale>  0 0.91608241E+02</rscale>
<asrwt>0</asrwt>
<pdfrwt beam="2">  1        2 0.42280013E-02 0.91608241E+02</pdfrwt>
<pdfrwt beam="1">  1       -2 0.11744844E-01 0.91608241E+02</pdfrwt>
<totfact> 0.85187222E+04</totfact>
</mgrwt>
</event>
<event>
 5    1  0.1239369E+001  0.9226882E+02  0.7546771E-02  0.1297449E+00
         -2   -1    0    0    0  501 -0.00000000000E+00  0.00000000000E+00  0.21162250533E+02  0.21162250533E+02  0.00000000000E+00 0.  1.
          2   -1    0    0  501    0  0.00000000000E+00 -0.00000000000E+00 -0.10057454655E+03  0.10057454655E+03  0.00000000000E+00 0. -1.
         23    2    1    2    0    0  0.00000000000E+00  0.00000000000E+00 -0.79412296012E+02  0.12173679708E+03  0.92268819247E+02 0.  0.
        -13    1    3    3    0    0 -0.22351073433E+02 -0.19804254946E+02 -0.86102342891E+02  0.91133925894E+02  0.00000000000E+00 0. -1.
         13    1    3    3    0    0  0.22351073433E+02  0.19804254946E+02  0.66900468785E+01  0.30602871185E+02  0.00000000000E+00 0.  1.
<mgrwt>
<rscale>  0 0.92268819E+02</rscale>
<asrwt>0</asrwt>
<pdfrwt beam="2">  1        2 0.15473007E-01 0.92268819E+02</pdfrwt>
<pdfrwt beam="1">  1       -2 0.32557308E-02 0.92268819E+02</pdfrwt>
<totfact> 0.11892198E+05</totfact>
</mgrwt>
</event>
<event>
 5    1  0.1239369E+001  0.1028545E+03  0.7546771E-02  0.1274405E+00
         -3   -1    0    0    0  501 -0.00000000000E+00  0.00000000000E+00  0.19348501925E+02  0.19348501925E+02  0.00000000000E+00 0.  1.
          3   -1    0    0  501    0  0.00000000000E+00 -0.00000000000E+00 -0.13669087916E+03  0.13669087916E+03  0.00000000000E+00 0. -1.
         23    2    1    2    0    0  0.00000000000E+00  0.00000000000E+00 -0.11734237723E+03  0.15603938108E+03  0.10285453298E+03 0.  0.
        -13    1    3    3    0    0 -0.37362054036E+02 -0.10014495207E+02 -0.72566624020E+01  0.39355715535E+02  0.00000000000E+00 0.  1.
         13    1    3    3    0    0  0.37362054036E+02  0.10014495207E+02 -0.11008571483E+03  0.11668366555E+03  0.00000000000E+00 0. -1.
<mgrwt>
<rscale>  0 0.10285453E+03</rscale>
<asrwt>0</asrwt>
<pdfrwt beam="2">  1        3 0.21029366E-01 0.10285453E+03</pdfrwt>
<pdfrwt beam="1">  1       -3 0.29766926E-02 0.10285453E+03</pdfrwt>
<totfact> 0.22270723E+04</totfact>
</mgrwt>
</event>
<event>
 5    1  0.1239369E+001  0.9035996E+02  0.7546771E-02  0.1301982E+00
         -2   -1    0    0    0  501 -0.00000000000E+00  0.00000000000E+00  0.31235789856E+02  0.31235789856E+02  0.00000000000E+00 0.  1.
          2   -1    0    0  501    0  0.00000000000E+00 -0.00000000000E+00 -0.65349094046E+02  0.65349094046E+02  0.00000000000E+00 0. -1.
         23    2    1    2    0    0  0.00000000000E+00  0.00000000000E+00 -0.34113304190E+02  0.96584883902E+02  0.90359959472E+02 0.  0.
        -13    1    3    3    0    0  0.55928396563E+01 -0.17405164526E+02  0.27105607836E+02  0.32694549756E+02  0.00000000000E+00 0.  1.
         13    1    3    3    0    0 -0.55928396563E+01  0.17405164526E+02 -0.61218912026E+02  0.63890334146E+02  0.00000000000E+00 0. -1.
<mgrwt>
<rscale>  0 0.90359959E+02</rscale>
<asrwt>0</asrwt>
<pdfrwt beam="2">  1        2 0.10053707E-01 0.90359959E+02</pdfrwt>
<pdfrwt beam="1">  1       -2 0.48055062E-02 0.90359959E+02</pdfrwt>
<totfact> 0.11132202E+05</totfact>
</mgrwt>
</event>
<event>
 5    1  0.1239369E+001  0.9081362E+02  0.7546771E-02  0.1300893E+00
         -1   -1    0    0    0  501 -0.00000000000E+00  0.00000000000E+00  0.71605544601E+01  0.71605544601E+01  0.00000000000E+00 0.  1.
          1   -1    0    0  501    0  0.00000000000E+00 -0.00000000000E+00 -0.28793557122E+03  0.28793557122E+03  0.00000000000E+00 0. -1.
         23    2    1    2    0    0  0.00000000000E+00  0.00000000000E+00 -0.28077501676E+03  0.29509612568E+03  0.90813618774E+02 0.  0.
        -13    1    3    3    0    0  0.40237559829E+02  0.16602501564E+01 -0.72229096666E+02  0.82697400544E+02  0.00000000000E+00 0. -1.
         13    1    3    3    0    0 -0.40237559829E+02 -0.16602501564E+01 -0.20854592009E+03  0.21239872513E+03  0.00000000000E+00 0.  1.
<mgrwt>
<rscale>  0 0.90813619E+02</rscale>
<asrwt>0</asrwt>
<pdfrwt beam="2">  1        1 0.44297782E-01 0.90813619E+02</pdfrwt>
<pdfrwt beam="1">  1       -1 0.11016237E-02 0.90813619E+02</pdfrwt>
<totfact> 0.12847731E+05</totfact>
</mgrwt>
</event>
<event>
 5    1  0.1239369E+001  0.9380118E+02  0.7546771E-02  0.1293899E+00
          2   -1    0    0  501    0  0.00000000000E+00  0.00000000000E+00  0.14464663932E+03  0.14464663932E+03  0.00000000000E+00 0. -1.
         -2   -1    0    0    0  501 -0.00000000000E+00 -0.00000000000E+00 -0.15207164111E+02  0.15207164111E+02  0.00000000000E+00 0.  1.
         23    2    1    2    0    0  0.00000000000E+00  0.00000000000E+00  0.12943947521E+03  0.15985380343E+03  0.93801176583E+02 0.  0.
        -11    1    3    3    0    0 -0.15924814243E+02  0.31852340616E+02  0.11673187353E+03  0.12204303179E+03  0.00000000000E+00 0. -1.
         11    1    3    3    0    0  0.15924814243E+02 -0.31852340616E+02  0.12707601680E+02  0.37810771638E+02  0.00000000000E+00 0.  1.
<mgrwt>
<rscale>  0 0.93801177E+02</rscale>
<asrwt>0</asrwt>
<pdfrwt beam="1">  1        2 0.22253328E-01 0.93801177E+02</pdfrwt>
<pdfrwt beam="2">  1       -2 0.23395638E-02 0.93801177E+02</pdfrwt>
<totfact> 0.12782521E+05</totfact>
</mgrwt>
</event>
<event>
 5    1  0.1239369E+001  0.9166413E+02  0.7546771E-02  0.1298871E+00
         -2   -1    0    0    0  501 -0.00000000000E+00  0.00000000000E+00  0.13487516466E+02  0.13487516466E+02  0.00000000000E+00 0.  1.
          2   -1    0    0  501    0  0.00000000000E+00 -0.00000000000E+00 -0.15574241519E+03  0.15574241519E+03  0.00000000000E+00 0. -1.
         23    2    1    2    0    0  0.00000000000E+00  0.00000000000E+00 -0.14225489873E+03  0.16922993166E+03  0.91664134519E+02 0.  0.
        -11    1    3    3    0    0 -0.29826682326E+02 -0.32940883182E+02 -0.91838245766E+02  0.10202448799E+03  0.00000000000E+00 0. -1.
         11    1    3    3    0    0  0.29826682326E+02  0.32940883182E+02 -0.50416652960E+02  0.67205443672E+02  0.00000000000E+00 0.  1.
<mgrwt>
<rscale>  0 0.91664135E+02</rscale>
<asrwt>0</asrwt>
<pdfrwt beam="2">  1        2 0.23960372E-01 0.91664135E+02</pdfrwt>
<pdfrwt beam="1">  1       -2 0.20750025E-02 0.91664135E+02</pdfrwt>
<totfact> 0.13958156E+05</totfact>
</mgrwt>
</event>
<event>
 5    1  0.1239369E+001  0.9174943E+02  0.7546771E-02  0.1298670E+00
          2   -1    0    0  501    0  0.00000000000E+00  0.00000000000E+00  0.15691352366E+02  0.15691352366E+02  0.00000000000E+00 0.  1.
         -2   -1    0    0    0  501 -0.00000000000E+00 -0.00000000000E+00 -0.13411779860E+03  0.13411779860E+03  0.00000000000E+00 0. -1.
         23    2    1    2    0    0  0.00000000000E+00  0.00000000000E+00 -0.11842644623E+03  0.14980915097E+03  0.91749433489E+02 0.  0.
        -11    1    3    3    0    0 -0.15777660137E+02 -0.19285721770E+02 -0.12210526679E+03  0.12462170679E+03  0.00000000000E+00 0. -1.
         11    1    3    3    0    0  0.15777660137E+02  0.19285721770E+02  0.36788205600E+01  0.25187444179E+02  0.00000000000E+00 0.  1.
<mgrwt>
<rscale>  0 0.91749433E+02</rscale>
<asrwt>0</asrwt>
<pdfrwt beam="1">  1        2 0.24140541E-02 0.91749433E+02</pdfrwt>
<pdfrwt beam="2">  1       -2 0.20633508E-01 0.91749433E+02</pdfrwt>
<totfact> 0.71534026E+04</totfact>
</mgrwt>
</event>
<event>
 5    1  0.1239369E+001  0.8734541E+02  0.7546771E-02  0.1309411E+00
         -1   -1    0    0    0  501 -0.00000000000E+00  0.00000000000E+00  0.60249344505E+02  0.60249344505E+02  0.00000000000E+00 0.  1.
          1   -1    0    0  501    0  0.00000000000E+00 -0.00000000000E+00 -0.31656862119E+02  0.31656862119E+02  0.00000000000E+00 0. -1.
         23    2    1    2    0    0  0.00000000000E+00  0.00000000000E+00  0.28592482386E+02  0.91906206624E+02  0.87345410681E+02 0.  0.
        -13    1    3    3    0    0 -0.33709511963E+02 -0.14004328519E+02  0.39524255418E+02  0.53801665219E+02  0.00000000000E+00 0.  1.
         13    1    3    3    0    0  0.33709511963E+02  0.14004328519E+02 -0.10931773032E+02  0.38104541404E+02  0.00000000000E+00 0. -1.
<mgrwt>
<rscale>  0 0.87345411E+02</rscale>
<asrwt>0</asrwt>
<pdfrwt beam="2">  1        1 0.48702865E-02 0.87345411E+02</pdfrwt>
<pdfrwt beam="1">  1       -1 0.92691299E-02 0.87345411E+02</pdfrwt>
<totfact> 0.98804239E+04</totfact>
</mgrwt>
</event>
<event>
 5    1  0.1239369E+001  0.9341388E+02  0.7546771E-02  0.1294789E+00
         -1   -1    0    0    0  501 -0.00000000000E+00  0.00000000000E+00  0.17793937152E+02  0.17793937152E+02  0.00000000000E+00 0.  1.
          1   -1    0    0  501    0  0.00000000000E+00 -0.00000000000E+00 -0.12260008328E+03  0.12260008328E+03  0.00000000000E+00 0. -1.
         23    2    1    2    0    0  0.00000000000E+00  0.00000000000E+00 -0.10480614613E+03  0.14039402043E+03  0.93413878557E+02 0.  0.
        -13    1    3    3    0    0  0.38491181903E+02 -0.14041748950E+02 -0.86103335059E+02  0.95354738247E+02  0.00000000000E+00 0.  1.
         13    1    3    3    0    0 -0.38491181903E+02  0.14041748950E+02 -0.18702811069E+02  0.45039282185E+02  0.00000000000E+00 0. -1.
<mgrwt>
<rscale>  0 0.93413879E+02</rscale>
<asrwt>0</asrwt>
<pdfrwt beam="2">  1        1 0.18861552E-01 0.93413879E+02</pdfrwt>
<pdfrwt beam="1">  1       -1 0.27375287E-02 0.93413879E+02</pdfrwt>
<totfact> 0.10124974E+05</totfact>
</mgrwt>
</event>
<event>
 5    1  0.1239369E+001  0.9079092E+02  0.7546771E-02  0.1300948E+00
          2   -1    0    0  501    0  0.00000000000E+00  0.00000000000E+00  0.13048057715E+03  0.13048057715E+03  0.00000000000E+00 0. -1.
         -2   -1    0    0    0  501 -0.00000000000E+00 -0.00000000000E+00 -0.15793521396E+02  0.15793521396E+02  0.00000000000E+00 0.  1.
         23    2    1    2    0    0  0.00000000000E+00  0.00000000000E+00  0.11468705576E+03  0.14627409855E+03  0.90790919966E+02 0.  0.
        -11    1    3    3    0    0  0.21931913663E+02 -0.72720287829E+01  0.12029764410E+03  0.12249658940E+03  0.00000000000E+00 0. -1.
         11    1    3    3    0    0 -0.21931913663E+02  0.72720287829E+01 -0.56105883447E+01  0.23777509144E+02  0.00000000000E+00 0.  1.
<mgrwt>
<rscale>  0 0.90790920E+02</rscale>
<asrwt>0</asrwt>
<pdfrwt beam="1">  1        2 0.20073934E-01 0.90790920E+02</pdfrwt>
<pdfrwt beam="2">  1       -2 0.24297726E-02 0.90790920E+02</pdfrwt>
<totfact> 0.13499336E+05</totfact>
</mgrwt>
</event>
<event>
 5    1  0.1239369E+001  0.9017399E+02  0.7546771E-02  0.1302431E+00
         -1   -1    0    0    0  501 -0.00000000000E+00  0.00000000000E+00  0.15417597988E+03  0.15417597988E+03  0.00000000000E+00 0.  1.
          1   -1    0    0  501    0  0.00000000000E+00 -0.00000000000E+00 -0.13185173927E+02  0.13185173927E+02  0.00000000000E+00 0. -1.
         23    2    1    2    0    0  0.00000000000E+00  0.00000000000E+00  0.14099080595E+03  0.16736115381E+03  0.90173989823E+02 0.  0.
        -13    1    3    3    0    0  0.21305656378E+02 -0.34661316069E+02  0.10655587789E+03  0.11405916420E+03  0.00000000000E+00 0.  1.
         13    1    3    3    0    0 -0.21305656378E+02  0.34661316069E+02  0.34434928063E+02  0.53301989606E+02  0.00000000000E+00 0. -1.
<mgrwt>
<rscale>  0 0.90173990E+02</rscale>
<asrwt>0</asrwt>
<pdfrwt beam="2">  1        1 0.20284884E-02 0.90173990E+02</pdfrwt>
<pdfrwt beam="1">  1       -1 0.23719380E-01 0.90173990E+02</pdfrwt>
<totfact> 0.76467734E+04</totfact>
</mgrwt>
</event>
<event>
 5    1  0.1239369E+001  0.9171817E+02  0.7546771E-02  0.1298743E+00
         -2   -1    0    0    0  501 -0.00000000000E+00  0.00000000000E+00  0.45072656134E+02  0.45072656134E+02  0.00000000000E+00 0. -1.
          2   -1    0    0  501    0  0.00000000000E+00 -0.00000000000E+00 -0.46659234862E+02  0.46659234862E+02  0.00000000000E+00 0.  1.
         23    2    1    2    0    0  0.00000000000E+00  0.00000000000E+00 -0.15865787284E+01  0.91731890996E+02  0.91718169376E+02 0.  0.
        -13    1    3    3    0    0 -0.13067288487E+02  0.15912295743E+02 -0.41776248139E+02  0.46574779579E+02  0.00000000000E+00 0.  1.
         13    1    3    3    0    0  0.13067288487E+02 -0.15912295743E+02  0.40189669411E+02  0.45157111418E+02  0.00000000000E+00 0. -1.
<mgrwt>
<rscale>  0 0.91718169E+02</rscale>
<asrwt>0</asrwt>
<pdfrwt beam="2">  1        2 0.71783438E-02 0.91718169E+02</pdfrwt>
<pdfrwt beam="1">  1       -2 0.69342548E-02 0.91718169E+02</pdfrwt>
<totfact> 0.97599321E+04</totfact>
</mgrwt>
</event>
<event>
 5    1  0.1239369E+001  0.9235237E+02  0.7546771E-02  0.1297253E+00
          2   -1    0    0  501    0  0.00000000000E+00  0.00000000000E+00  0.84666397853E+01  0.84666397853E+01  0.00000000000E+00 0. -1.
         -2   -1    0    0    0  501 -0.00000000000E+00 -0.00000000000E+00 -0.25184019206E+03  0.25184019206E+03  0.00000000000E+00 0.  1.
         23    2    1    2    0    0  0.00000000000E+00  0.00000000000E+00 -0.24337355228E+03  0.26030683185E+03  0.92352372783E+02 0.  0.
        -11    1    3    3    0    0 -0.98692282743E+00 -0.45981888693E+02 -0.11008851907E+03  0.11930963974E+03  0.00000000000E+00 0. -1.
         11    1    3    3    0    0  0.98692282743E+00  0.45981888693E+02 -0.13328503321E+03  0.14099719211E+03  0.00000000000E+00 0.  1.
<mgrwt>
<rscale>  0 0.92352373E+02</rscale>
<asrwt>0</asrwt>
<pdfrwt beam="1">  1        2 0.13025599E-02 0.92352373E+02</pdfrwt>
<pdfrwt beam="2">  1       -2 0.38744647E-01 0.92352373E+02</pdfrwt>
<totfact> 0.54158835E+04</totfact>
</mgrwt>
</event>
<event>
 5    1  0.1239369E+001  0.8918889E+02  0.7546771E-02  0.1304828E+00
          2   -1    0    0  501    0  0.00000000000E+00  0.00000000000E+00  0.53151397293E+02  0.53151397293E+02  0.00000000000E+00 0. -1.
         -2   -1    0    0    0  501 -0.00000000000E+00 -0.00000000000E+00 -0.37415091035E+02  0.37415091035E+02  0.00000000000E+00 0.  1.
         23    2    1    2    0    0  0.00000000000E+00  0.00000000000E+00  0.15736306258E+02  0.90566488328E+02  0.89188886491E+02 0.  0.
        -13    1    3    3    0    0 -0.17988196712E+02  0.80912430692E+01 -0.32744870709E+02  0.38226561356E+02  0.00000000000E+00 0.  1.
         13    1    3    3    0    0  0.17988196712E+02 -0.80912430692E+01  0.48481176967E+02  0.52339926972E+02  0.00000000000E+00 0. -1.
<mgrwt>
<rscale>  0 0.89188886E+02</rscale>
<asrwt>0</asrwt>
<pdfrwt beam="1">  1        2 0.81771380E-02 0.89188886E+02</pdfrwt>
<pdfrwt beam="2">  1       -2 0.57561679E-02 0.89188886E+02</pdfrwt>
<totfact> 0.10932837E+05</totfact>
</mgrwt>
</event>
<event>
 5    1  0.1239369E+001  0.9116129E+02  0.7546771E-02  0.1300064E+00
         -1   -1    0    0    0  501 -0.00000000000E+00  0.00000000000E+00  0.79530301947E+01  0.79530301947E+01  0.00000000000E+00 0.  1.
          1   -1    0    0  501    0  0.00000000000E+00 -0.00000000000E+00 -0.26123315251E+03  0.26123315251E+03  0.00000000000E+00 0. -1.
         23    2    1    2    0    0  0.00000000000E+00  0.00000000000E+00 -0.25328012231E+03  0.26918618270E+03  0.91161288927E+02 0.  0.
        -11    1    3    3    0    0  0.21054420010E+02 -0.40426341157E+02 -0.12624956390E+03  0.13422566836E+03  0.00000000000E+00 0. -1.
         11    1    3    3    0    0 -0.21054420010E+02  0.40426341157E+02 -0.12703055841E+03  0.13496051434E+03  0.00000000000E+00 0.  1.
<mgrwt>
<rscale>  0 0.91161289E+02</rscale>
<asrwt>0</asrwt>
<pdfrwt beam="2">  1        1 0.40189715E-01 0.91161289E+02</pdfrwt>
<pdfrwt beam="1">  1       -1 0.12235431E-02 0.91161289E+02</pdfrwt>
<totfact> 0.12479210E+05</totfact>
</mgrwt>
</event>
<event>
 5    1  0.1239369E+001  0.9156528E+02  0.7546771E-02  0.1299105E+00
         -3   -1    0    0    0  501 -0.00000000000E+00  0.00000000000E+00  0.92590787459E+02  0.92590787459E+02  0.00000000000E+00 0.  1.
          3   -1    0    0  501    0  0.00000000000E+00 -0.00000000000E+00 -0.22637782349E+02  0.22637782349E+02  0.00000000000E+00 0. -1.
         23    2    1    2    0    0  0.00000000000E+00  0.00000000000E+00  0.69953005110E+02  0.11522856981E+03  0.91565279316E+02 0.  0.
        -13    1    3    3    0    0  0.67606386925E+01 -0.44377966296E+02  0.23654823075E+02  0.50741115309E+02  0.00000000000E+00 0.  1.
         13    1    3    3    0    0 -0.67606386925E+01  0.44377966296E+02  0.46298182034E+02  0.64487454499E+02  0.00000000000E+00 0. -1.
<mgrwt>
<rscale>  0 0.91565279E+02</rscale>
<asrwt>0</asrwt>
<pdfrwt beam="2">  1        3 0.34827358E-02 0.91565279E+02</pdfrwt>
<pdfrwt beam="1">  1       -3 0.14244736E-01 0.91565279E+02</pdfrwt>
<totfact> 0.33191222E+04</totfact>
</mgrwt>
</event>
<event>
 5    1  0.1239369E+001  0.8157327E+02  0.7546771E-02  0.1324645E+00
         -3   -1    0    0    0  501 -0.00000000000E+00  0.00000000000E+00  0.74991764855E+02  0.74991764855E+02  0.00000000000E+00 0.  1.
          3   -1    0    0  501    0  0.00000000000E+00 -0.00000000000E+00 -0.22183098858E+02  0.22183098858E+02  0.00000000000E+00 0. -1.
         23    2    1    2    0    0  0.00000000000E+00  0.00000000000E+00  0.52808665997E+02  0.97174863712E+02  0.81573273400E+02 0.  0.
        -13    1    3    3    0    0 -0.36602444906E+02 -0.89120691171E+01  0.77815741343E+01  0.38467087816E+02  0.00000000000E+00 0. -1.
         13    1    3    3    0    0  0.36602444906E+02  0.89120691171E+01  0.45027091862E+02  0.58707775896E+02  0.00000000000E+00 0.  1.
<mgrwt>
<rscale>  0 0.81573273E+02</rscale>
<asrwt>0</asrwt>
<pdfrwt beam="2">  1        3 0.34127845E-02 0.81573273E+02</pdfrwt>
<pdfrwt beam="1">  1       -3 0.11537194E-01 0.81573273E+02</pdfrwt>
<totfact> 0.47118525E+04</totfact>
</mgrwt>
</event>
<event>
 5    1  0.1239369E+001  0.8956991E+02  0.7546771E-02  0.1303897E+00
         -1   -1    0    0    0  501 -0.00000000000E+00  0.00000000000E+00  0.80737131288E+01  0.80737131288E+01  0.00000000000E+00 0.  1.
          1   -1    0    0  501    0  0.00000000000E+00 -0.00000000000E+00 -0.24842255178E+03  0.24842255178E+03  0.00000000000E+00 0. -1.
         23    2    1    2    0    0  0.00000000000E+00  0.00000000000E+00 -0.24034883865E+03  0.25649626491E+03  0.89569914989E+02 0.  0.
        -13    1    3    3    0    0  0.10373269661E+01 -0.37263743622E+02 -0.19124988889E+03  0.19484912788E+03  0.00000000000E+00 0. -1.
         13    1    3    3    0    0 -0.10373269661E+01  0.37263743622E+02 -0.49098949761E+02  0.61647137027E+02  0.00000000000E+00 0.  1.
<mgrwt>
<rscale>  0 0.89569915E+02</rscale>
<asrwt>0</asrwt>
<pdfrwt beam="2">  1        1 0.38218856E-01 0.89569915E+02</pdfrwt>
<pdfrwt beam="1">  1       -1 0.12421097E-02 0.89569915E+02</pdfrwt>
<totfact> 0.12951795E+05</totfact>
</mgrwt>
</event>
<event>
 5    1  0.1239369E+001  0.9195971E+02  0.7546771E-02  0.1298174E+00
         -2   -1    0    0    0  501 -0.00000000000E+00  0.00000000000E+00  0.68673090966E+02  0.68673090966E+02  0.00000000000E+00 0.  1.
          2   -1    0    0  501    0  0.00000000000E+00 -0.00000000000E+00 -0.30785666252E+02  0.30785666252E+02  0.00000000000E+00 0. -1.
         23    2    1    2    0    0  0.00000000000E+00  0.00000000000E+00  0.37887424714E+02  0.99458757219E+02  0.91959705502E+02 0.  0.
        -13    1    3    3    0    0  0.28335159329E+02  0.24789539997E+02 -0.96047138795E+01  0.38854254286E+02  0.00000000000E+00 0.  1.
         13    1    3    3    0    0 -0.28335159329E+02 -0.24789539997E+02  0.47492138594E+02  0.60604502932E+02  0.00000000000E+00 0. -1.
<mgrwt>
<rscale>  0 0.91959706E+02</rscale>
<asrwt>0</asrwt>
<pdfrwt beam="2">  1        2 0.47362564E-02 0.91959706E+02</pdfrwt>
<pdfrwt beam="1">  1       -2 0.10565091E-01 0.91959706E+02</pdfrwt>
<totfact> 0.86846420E+04</totfact>
</mgrwt>
</event>
<event>
 5    1  0.1239369E+001  0.8982850E+02  0.7546771E-02  0.1303268E+00
          2   -1    0    0  501    0  0.00000000000E+00  0.00000000000E+00  0.59286761105E+02  0.59286761105E+02  0.00000000000E+00 0. -1.
         -2   -1    0    0    0  501 -0.00000000000E+00 -0.00000000000E+00 -0.34025978710E+02  0.34025978710E+02  0.00000000000E+00 0.  1.
         23    2    1    2    0    0  0.00000000000E+00  0.00000000000E+00  0.25260782395E+02  0.93312739814E+02  0.89828504855E+02 0.  0.
        -13    1    3    3    0    0  0.41184482861E+02 -0.15086706347E+02  0.22676049502E+02  0.49375839820E+02  0.00000000000E+00 0. -1.
         13    1    3    3    0    0 -0.41184482861E+02  0.15086706347E+02  0.25847328930E+01  0.43936899994E+02  0.00000000000E+00 0.  1.
<mgrwt>
<rscale>  0 0.89828505E+02</rscale>
<asrwt>0</asrwt>
<pdfrwt beam="1">  1        2 0.91210401E-02 0.89828505E+02</pdfrwt>
<pdfrwt beam="2">  1       -2 0.52347660E-02 0.89828505E+02</pdfrwt>
<totfact> 0.11026108E+05</totfact>
</mgrwt>
</event>
<event>
 5    1  0.1239369E+001  0.1098385E+03  0.7546771E-02  0.1260869E+00
          3   -1    0    0  501    0  0.00000000000E+00  0.00000000000E+00  0.64959223024E+02  0.64959223024E+02  0.00000000000E+00 0. -1.
         -3   -1    0    0    0  501 -0.00000000000E+00 -0.00000000000E+00 -0.46431022856E+02  0.46431022856E+02  0.00000000000E+00 0.  1.
         23    2    1    2    0    0  0.00000000000E+00  0.00000000000E+00  0.18528200168E+02  0.11139024588E+03  0.10983848449E+03 0.  0.
        -13    1    3    3    0    0  0.86178901139E+01 -0.29333097725E+02 -0.37003072832E+02  0.47999229694E+02  0.00000000000E+00 0.  1.
         13    1    3    3    0    0 -0.86178901139E+01  0.29333097725E+02  0.55531273000E+02  0.63391016187E+02  0.00000000000E+00 0. -1.
<mgrwt>
<rscale>  0 0.10983848E+03</rscale>
<asrwt>0</asrwt>
<pdfrwt beam="1">  1        3 0.99937266E-02 0.10983848E+03</pdfrwt>
<pdfrwt beam="2">  1       -3 0.71432343E-02 0.10983848E+03</pdfrwt>
<totfact> 0.20281386E+04</totfact>
</mgrwt>
</event>
<event>
 5    1  0.1239369E+001  0.9360245E+02  0.7546771E-02  0.1294355E+00
         -4   -1    0    0    0  501 -0.00000000000E+00  0.00000000000E+00  0.37259721376E+02  0.37259721376E+02  0.00000000000E+00 0.  1.
          4   -1    0    0  501    0  0.00000000000E+00 -0.00000000000E+00 -0.58786130942E+02  0.58786130942E+02  0.00000000000E+00 0. -1.
         23    2    1    2    0    0  0.00000000000E+00  0.00000000000E+00 -0.21526409567E+02  0.96045852318E+02  0.93602454234E+02 0.  0.
        -13    1    3    3    0    0 -0.33140957730E+02 -0.30941609574E+02 -0.22669928145E+02  0.50691537010E+02  0.00000000000E+00 0. -1.
         13    1    3    3    0    0  0.33140957730E+02  0.30941609574E+02  0.11435185788E+01  0.45354315308E+02  0.00000000000E+00 0.  1.
<mgrwt>
<rscale>  0 0.93602454E+02</rscale>
<asrwt>0</asrwt>
<pdfrwt beam="2">  1        4 0.90440202E-02 0.93602454E+02</pdfrwt>
<pdfrwt beam="1">  1       -4 0.57322648E-02 0.93602454E+02</pdfrwt>
<totfact> 0.24863965E+04</totfact>
</mgrwt>
</event>
<event>
 5    1  0.1239369E+001  0.9063210E+02  0.7546771E-02  0.1301328E+00
          1   -1    0    0  501    0  0.00000000000E+00  0.00000000000E+00  0.18182095795E+02  0.18182095795E+02  0.00000000000E+00 0. -1.
         -1   -1    0    0    0  501 -0.00000000000E+00 -0.00000000000E+00 -0.11294321388E+03  0.11294321388E+03  0.00000000000E+00 0.  1.
         23    2    1    2    0    0  0.00000000000E+00  0.00000000000E+00 -0.94761118087E+02  0.13112530968E+03  0.90632098823E+02 0.  0.
        -13    1    3    3    0    0 -0.13587277237E+02 -0.20401815386E+02  0.77626306665E+01  0.25711993478E+02  0.00000000000E+00 0. -1.
         13    1    3    3    0    0  0.13587277237E+02  0.20401815386E+02 -0.10252374875E+03  0.10541331620E+03  0.00000000000E+00 0.  1.
<mgrwt>
<rscale>  0 0.90632099E+02</rscale>
<asrwt>0</asrwt>
<pdfrwt beam="1">  1        1 0.27972455E-02 0.90632099E+02</pdfrwt>
<pdfrwt beam="2">  1       -1 0.17375879E-01 0.90632099E+02</pdfrwt>
<totfact> 0.80732606E+04</totfact>
</mgrwt>
</event>
<event>
 5    1  0.1239369E+001  0.9099401E+02  0.7546771E-02  0.1300462E+00
         -4   -1    0    0    0  501 -0.00000000000E+00  0.00000000000E+00  0.33211293471E+02  0.33211293471E+02  0.00000000000E+00 0.  1.
          4   -1    0    0  501    0  0.00000000000E+00 -0.00000000000E+00 -0.62327516544E+02  0.62327516544E+02  0.00000000000E+00 0. -1.
         23    2    1    2    0    0  0.00000000000E+00  0.00000000000E+00 -0.29116223072E+02  0.95538810015E+02  0.90994009545E+02 0.  0.
        -13    1    3    3    0    0 -0.38237804431E+02  0.21393984620E+02 -0.27423494533E+02  0.51690234262E+02  0.00000000000E+00 0.  1.
         13    1    3    3    0    0  0.38237804431E+02 -0.21393984620E+02 -0.16927285389E+01  0.43848575753E+02  0.00000000000E+00 0. -1.
<mgrwt>
<rscale>  0 0.90994010E+02</rscale>
<asrwt>0</asrwt>
<pdfrwt beam="2">  1        4 0.95888486E-02 0.90994010E+02</pdfrwt>
<pdfrwt beam="1">  1       -4 0.51094298E-02 0.90994010E+02</pdfrwt>
<totfact> 0.26883674E+04</totfact>
</mgrwt>
</event>
<event>
 5    1  0.1239369E+001  0.9104374E+02  0.7546771E-02  0.1300344E+00
          1   -1    0    0  501    0  0.00000000000E+00  0.00000000000E+00  0.63624350319E+02  0.63624350319E+02  0.00000000000E+00 0. -1.
         -1   -1    0    0    0  501 -0.00000000000E+00 -0.00000000000E+00 -0.32569932551E+02  0.32569932551E+02  0.00000000000E+00 0.  1.
         23    2    1    2    0    0  0.00000000000E+00  0.00000000000E+00  0.31054417768E+02  0.96194282870E+02  0.91043743300E+02 0.  0.
        -11    1    3    3    0    0  0.93553139329E+01 -0.38252756923E+02 -0.85998071289E+01  0.40308212484E+02  0.00000000000E+00 0.  1.
         11    1    3    3    0    0 -0.93553139329E+01  0.38252756923E+02  0.39654224897E+02  0.55886070386E+02  0.00000000000E+00 0. -1.
<mgrwt>
<rscale>  0 0.91043743E+02</rscale>
<asrwt>0</asrwt>
<pdfrwt beam="1">  1        1 0.97883616E-02 0.91043743E+02</pdfrwt>
<pdfrwt beam="2">  1       -1 0.50107589E-02 0.91043743E+02</pdfrwt>
<totfact> 0.97627433E+04</totfact>
</mgrwt>
</event>
<event>
 5    1  0.1239369E+001  0.7830272E+02  0.7546771E-02  0.1333938E+00
          3   -1    0    0  501    0  0.00000000000E+00  0.00000000000E+00  0.11877399469E+02  0.11877399469E+02  0.00000000000E+00 0.  1.
         -3   -1    0    0    0  501 -0.00000000000E+00 -0.00000000000E+00 -0.12905426371E+03  0.12905426371E+03  0.00000000000E+00 0. -1.
         23    2    1    2    0    0  0.00000000000E+00  0.00000000000E+00 -0.11717686425E+03  0.14093166318E+03  0.78302721364E+02 0.  0.
        -11    1    3    3    0    0 -0.28883719554E+02  0.17606456886E+02 -0.94067134875E+02  0.99964405880E+02  0.00000000000E+00 0.  1.
         11    1    3    3    0    0  0.28883719554E+02 -0.17606456886E+02 -0.23109729371E+02  0.40967257303E+02  0.00000000000E+00 0. -1.
<mgrwt>
<rscale>  0 0.78302721E+02</rscale>
<asrwt>0</asrwt>
<pdfrwt beam="1">  1        3 0.18272922E-02 0.78302721E+02</pdfrwt>
<pdfrwt beam="2">  1       -3 0.19854503E-01 0.78302721E+02</pdfrwt>
<totfact> 0.47951177E+04</totfact>
</mgrwt>
</event>
<event>
 5    1  0.1239369E+001  0.9182161E+02  0.7546771E-02  0.1298499E+00
         -2   -1    0    0    0  501 -0.00000000000E+00  0.00000000000E+00  0.17861209274E+03  0.17861209274E+03  0.00000000000E+00 0. -1.
          2   -1    0    0  501    0  0.00000000000E+00 -0.00000000000E+00 -0.11801004349E+02  0.11801004349E+02  0.00000000000E+00 0.  1.
         23    2    1    2    0    0  0.00000000000E+00  0.00000000000E+00  0.16681108839E+03  0.19041309709E+03  0.91821611468E+02 0.  0.
        -13    1    3    3    0    0  0.33543967507E+02  0.27090568953E+02  0.50702023074E+02  0.66556681303E+02  0.00000000000E+00 0.  1.
         13    1    3    3    0    0 -0.33543967507E+02 -0.27090568953E+02  0.11610906532E+03  0.12385641578E+03  0.00000000000E+00 0. -1.
<mgrwt>
<rscale>  0 0.91821611E+02</rscale>
<asrwt>0</asrwt>
<pdfrwt beam="2">  1        2 0.18155393E-02 0.91821611E+02</pdfrwt>
<pdfrwt beam="1">  1       -2 0.27478782E-01 0.91821611E+02</pdfrwt>
<totfact> 0.64175306E+04</totfact>
</mgrwt>
</event>
<event>
 5    1  0.1239369E+001  0.9339688E+02  0.7546771E-02  0.1294828E+00
         -2   -1    0    0    0  501 -0.00000000000E+00  0.00000000000E+00  0.23454592161E+02  0.23454592161E+02  0.00000000000E+00 0.  1.
          2   -1    0    0  501    0  0.00000000000E+00 -0.00000000000E+00 -0.92977280277E+02  0.92977280277E+02  0.00000000000E+00 0. -1.
         23    2    1    2    0    0  0.00000000000E+00  0.00000000000E+00 -0.69522688116E+02  0.11643187244E+03  0.93396877660E+02 0.  0.
        -13    1    3    3    0    0  0.35551266293E+02  0.15265634663E+02 -0.21620722000E+01  0.38750570227E+02  0.00000000000E+00 0.  1.
         13    1    3    3    0    0 -0.35551266293E+02 -0.15265634663E+02 -0.67360615916E+02  0.77681302212E+02  0.00000000000E+00 0. -1.
<mgrwt>
<rscale>  0 0.93396878E+02</rscale>
<asrwt>0</asrwt>
<pdfrwt beam="2">  1        2 0.14304197E-01 0.93396878E+02</pdfrwt>
<pdfrwt beam="1">  1       -2 0.36083988E-02 0.93396878E+02</pdfrwt>
<totfact> 0.11228002E+05</totfact>
</mgrwt>
</event>
<event>
 5    1  0.1239369E+001  0.9091786E+02  0.7546771E-02  0.1300644E+00
         -1   -1    0    0    0  501 -0.00000000000E+00  0.00000000000E+00  0.60455447591E+02  0.60455447591E+02  0.00000000000E+00 0.  1.
          1   -1    0    0  501    0  0.00000000000E+00 -0.00000000000E+00 -0.34182430973E+02  0.34182430973E+02  0.00000000000E+00 0. -1.
         23    2    1    2    0    0  0.00000000000E+00  0.00000000000E+00  0.26273016619E+02  0.94637878564E+02  0.90917856645E+02 0.  0.
        -11    1    3    3    0    0  0.23932339450E+02 -0.28992418320E+02  0.39739953934E+02  0.54704489123E+02  0.00000000000E+00 0.  1.
         11    1    3    3    0    0 -0.23932339450E+02  0.28992418320E+02 -0.13466937316E+02  0.39933389441E+02  0.00000000000E+00 0. -1.
<mgrwt>
<rscale>  0 0.90917857E+02</rscale>
<asrwt>0</asrwt>
<pdfrwt beam="2">  1        1 0.52588355E-02 0.90917857E+02</pdfrwt>
<pdfrwt beam="1">  1       -1 0.93008381E-02 0.90917857E+02</pdfrwt>
<totfact> 0.89217456E+04</totfact>
</mgrwt>
</event>
<event>
 5    1  0.1239369E+001  0.9066637E+02  0.7546771E-02  0.1301246E+00
         -2   -1    0    0    0  501 -0.00000000000E+00  0.00000000000E+00  0.10303725371E+02  0.10303725371E+02  0.00000000000E+00 0.  1.
          2   -1    0    0  501    0  0.00000000000E+00 -0.00000000000E+00 -0.19945189090E+03  0.19945189090E+03  0.00000000000E+00 0. -1.
         23    2    1    2    0    0  0.00000000000E+00  0.00000000000E+00 -0.18914816553E+03  0.20975561628E+03  0.90666366612E+02 0.  0.
        -11    1    3    3    0    0 -0.19404569923E+02  0.40970061686E+02 -0.94298202876E+02  0.10462903208E+03  0.00000000000E+00 0. -1.
         11    1    3    3    0    0  0.19404569923E+02 -0.40970061686E+02 -0.94849962656E+02  0.10512658419E+03  0.00000000000E+00 0.  1.
<mgrwt>
<rscale>  0 0.90666367E+02</rscale>
<asrwt>0</asrwt>
<pdfrwt beam="2">  1        2 0.30684908E-01 0.90666367E+02</pdfrwt>
<pdfrwt beam="1">  1       -2 0.15851884E-02 0.90666367E+02</pdfrwt>
<totfact> 0.15687836E+05</totfact>
</mgrwt>
</event>
<event>
 5    1  0.1239369E+001  0.9410323E+02  0.7546771E-02  0.1293209E+00
          2   -1    0    0  501    0  0.00000000000E+00  0.00000000000E+00  0.47725728990E+02  0.47725728990E+02  0.00000000000E+00 0.  1.
         -2   -1    0    0    0  501 -0.00000000000E+00 -0.00000000000E+00 -0.46387020279E+02  0.46387020279E+02  0.00000000000E+00 0. -1.
         23    2    1    2    0    0  0.00000000000E+00  0.00000000000E+00  0.13387087110E+01  0.94112749269E+02  0.94103227543E+02 0.  0.
        -11    1    3    3    0    0  0.73095809360E+01  0.39036392887E+02  0.25902531841E+02  0.47415304480E+02  0.00000000000E+00 0.  1.
         11    1    3    3    0    0 -0.73095809360E+01 -0.39036392887E+02 -0.24563823130E+02  0.46697444790E+02  0.00000000000E+00 0. -1.
<mgrwt>
<rscale>  0 0.94103228E+02</rscale>
<asrwt>0</asrwt>
<pdfrwt beam="1">  1        2 0.73424198E-02 0.94103228E+02</pdfrwt>
<pdfrwt beam="2">  1       -2 0.71364647E-02 0.94103228E+02</pdfrwt>
<totfact> 0.91193906E+04</totfact>
</mgrwt>
</event>
<event>
 5    1  0.1239369E+001  0.8777813E+02  0.7546771E-02  0.1308323E+00
          3   -1    0    0  501    0  0.00000000000E+00  0.00000000000E+00  0.11709690521E+03  0.11709690521E+03  0.00000000000E+00 0. -1.
         -3   -1    0    0    0  501 -0.00000000000E+00 -0.00000000000E+00 -0.16450048936E+02  0.16450048936E+02  0.00000000000E+00 0.  1.
         23    2    1    2    0    0  0.00000000000E+00  0.00000000000E+00  0.10064685627E+03  0.13354695414E+03  0.87778125313E+02 0.  0.
        -11    1    3    3    0    0 -0.25059429618E+02  0.25005548685E+02  0.10854588291E+02  0.37028024046E+02  0.00000000000E+00 0.  1.
         11    1    3    3    0    0  0.25059429618E+02 -0.25005548685E+02  0.89792267981E+02  0.96518930097E+02  0.00000000000E+00 0. -1.
<mgrwt>
<rscale>  0 0.87778125E+02</rscale>
<asrwt>0</asrwt>
<pdfrwt beam="1">  1        3 0.18014908E-01 0.87778125E+02</pdfrwt>
<pdfrwt beam="2">  1       -3 0.25307768E-02 0.87778125E+02</pdfrwt>
<totfact> 0.35840259E+04</totfact>
</mgrwt>
</event>
<event>
 5    1  0.1239369E+001  0.9328047E+02  0.7546771E-02  0.1295097E+00
          1   -1    0    0  501    0  0.00000000000E+00  0.00000000000E+00  0.18406177621E+03  0.18406177621E+03  0.00000000000E+00 0. -1.
         -1   -1    0    0    0  501 -0.00000000000E+00 -0.00000000000E+00 -0.11818376115E+02  0.11818376115E+02  0.00000000000E+00 0.  1.
         23    2    1    2    0    0  0.00000000000E+00  0.00000000000E+00  0.17224340009E+03  0.19588015232E+03  0.93280465256E+02 0.  0.
        -13    1    3    3    0    0 -0.15558921476E+02  0.31896781418E+02  0.22573046166E+02  0.42059804036E+02  0.00000000000E+00 0.  1.
         13    1    3    3    0    0  0.15558921476E+02 -0.31896781418E+02  0.14967035393E+03  0.15382034829E+03  0.00000000000E+00 0. -1.
<mgrwt>
<rscale>  0 0.93280465E+02</rscale>
<asrwt>0</asrwt>
<pdfrwt beam="1">  1        1 0.28317194E-01 0.93280465E+02</pdfrwt>
<pdfrwt beam="2">  1       -1 0.18182118E-02 0.93280465E+02</pdfrwt>
<totfact> 0.10958483E+05</totfact>
</mgrwt>
</event>
<event>
 5    1  0.1239369E+001  0.1100654E+03  0.7546771E-02  0.1260449E+00
         -1   -1    0    0    0  501 -0.00000000000E+00  0.00000000000E+00  0.21637473830E+03  0.21637473830E+03  0.00000000000E+00 0.  1.
          1   -1    0    0  501    0  0.00000000000E+00 -0.00000000000E+00 -0.13997015847E+02  0.13997015847E+02  0.00000000000E+00 0. -1.
         23    2    1    2    0    0  0.00000000000E+00  0.00000000000E+00  0.20237772245E+03  0.23037175415E+03  0.11006544673E+03 0.  0.
        -13    1    3    3    0    0  0.38832354472E+02  0.32419728357E+02  0.14654613500E+03  0.15503148140E+03  0.00000000000E+00 0.  1.
         13    1    3    3    0    0 -0.38832354472E+02 -0.32419728357E+02  0.55831587454E+02  0.75340272751E+02  0.00000000000E+00 0. -1.
<mgrwt>
<rscale>  0 0.11006545E+03</rscale>
<asrwt>0</asrwt>
<pdfrwt beam="2">  1        1 0.21533872E-02 0.11006545E+03</pdfrwt>
<pdfrwt beam="1">  1       -1 0.33288419E-01 0.11006545E+03</pdfrwt>
<totfact> 0.41405024E+04</totfact>
</mgrwt>
</event>
<event>
 5    1  0.1239369E+001  0.9199161E+02  0.7546771E-02  0.1298099E+00
          2   -1    0    0  501    0  0.00000000000E+00  0.00000000000E+00  0.77965940971E+02  0.77965940971E+02  0.00000000000E+00 0. -1.
         -2   -1    0    0    0  501 -0.00000000000E+00 -0.00000000000E+00 -0.27135104957E+02  0.27135104957E+02  0.00000000000E+00 0.  1.
         23    2    1    2    0    0  0.00000000000E+00  0.00000000000E+00  0.50830836014E+02  0.10510104593E+03  0.91991608124E+02 0.  0.
        -11    1    3    3    0    0  0.12176027265E+02  0.33333688183E+02 -0.80158169575E+01  0.36381914867E+02  0.00000000000E+00 0.  1.
         11    1    3    3    0    0 -0.12176027265E+02 -0.33333688183E+02  0.58846652971E+02  0.68719131061E+02  0.00000000000E+00 0. -1.
<mgrwt>
<rscale>  0 0.91991608E+02</rscale>
<asrwt>0</asrwt>
<pdfrwt beam="1">  1        2 0.11994760E-01 0.91991608E+02</pdfrwt>
<pdfrwt beam="2">  1       -2 0.41746316E-02 0.91991608E+02</pdfrwt>
<totfact> 0.11122310E+05</totfact>
</mgrwt>
</event>
<event>
 5    1  0.1239369E+001  0.9793801E+02  0.7546771E-02  0.1284693E+00
          1   -1    0    0  501    0  0.00000000000E+00  0.00000000000E+00  0.27274449315E+03  0.27274449315E+03  0.00000000000E+00 0. -1.
         -1   -1    0    0    0  501 -0.00000000000E+00 -0.00000000000E+00 -0.87919768651E+01  0.87919768651E+01  0.00000000000E+00 0.  1.
         23    2    1    2    0    0  0.00000000000E+00  0.00000000000E+00  0.26395251628E+03  0.28153647001E+03  0.97938006389E+02 0.  0.
        -11    1    3    3    0    0  0.44786436954E+02 -0.19765005241E+02  0.13547684052E+03  0.14405018113E+03  0.00000000000E+00 0.  1.
         11    1    3    3    0    0 -0.44786436954E+02  0.19765005241E+02  0.12847567576E+03  0.13748628888E+03  0.00000000000E+00 0. -1.
<mgrwt>
<rscale>  0 0.97938006E+02</rscale>
<asrwt>0</asrwt>
<pdfrwt beam="1">  1        1 0.41960685E-01 0.97938006E+02</pdfrwt>
<pdfrwt beam="2">  1       -1 0.13526120E-02 0.97938006E+02</pdfrwt>
<totfact> 0.10384960E+05</totfact>
</mgrwt>
</event>
<event>
 5    1  0.1239369E+001  0.9155655E+02  0.7546771E-02  0.1299125E+00
         -2   -1    0    0    0  501 -0.00000000000E+00  0.00000000000E+00  0.13093015774E+02  0.13093015774E+02  0.00000000000E+00 0.  1.
          2   -1    0    0  501    0  0.00000000000E+00 -0.00000000000E+00 -0.16005865567E+03  0.16005865567E+03  0.00000000000E+00 0. -1.
         23    2    1    2    0    0  0.00000000000E+00  0.00000000000E+00 -0.14696563989E+03  0.17315167144E+03  0.91556550906E+02 0.  0.
        -11    1    3    3    0    0  0.36501747866E+02  0.25253786621E+02 -0.52294706502E+02  0.68592037906E+02  0.00000000000E+00 0.  1.
         11    1    3    3    0    0 -0.36501747866E+02 -0.25253786621E+02 -0.94670933391E+02  0.10455963354E+03  0.00000000000E+00 0. -1.
<mgrwt>
<rscale>  0 0.91556551E+02</rscale>
<asrwt>0</asrwt>
<pdfrwt beam="2">  1        2 0.24624408E-01 0.91556551E+02</pdfrwt>
<pdfrwt beam="1">  1       -2 0.20143102E-02 0.91556551E+02</pdfrwt>
<totfact> 0.14135245E+05</totfact>
</mgrwt>
</event>
<event>
 5    1  0.1239369E+001  0.8759000E+02  0.7546771E-02  0.1308795E+00
         -2   -1    0    0    0  501 -0.00000000000E+00  0.00000000000E+00  0.30434368633E+03  0.30434368633E+03  0.00000000000E+00 0.  1.
          2   -1    0    0  501    0  0.00000000000E+00 -0.00000000000E+00 -0.63020918291E+01  0.63020918291E+01  0.00000000000E+00 0. -1.
         23    2    1    2    0    0  0.00000000000E+00  0.00000000000E+00  0.29804159450E+03  0.31064577816E+03  0.87589996206E+02 0.  0.
        -11    1    3    3    0    0 -0.28049684107E+02 -0.33623365189E+02  0.15195910704E+03  0.15814197950E+03  0.00000000000E+00 0.  1.
         11    1    3    3    0    0  0.28049684107E+02  0.33623365189E+02  0.14608248745E+03  0.15250379866E+03  0.00000000000E+00 0. -1.
<mgrwt>
<rscale>  0 0.87589996E+02</rscale>
<asrwt>0</asrwt>
<pdfrwt beam="2">  1        2 0.96955283E-03 0.87589996E+02</pdfrwt>
<pdfrwt beam="1">  1       -2 0.46822094E-01 0.87589996E+02</pdfrwt>
<totfact> 0.56089015E+04</totfact>
</mgrwt>
</event>
<event>
 5    1  0.1239369E+001  0.9976940E+02  0.7546771E-02  0.1280782E+00
          1   -1    0    0  501    0  0.00000000000E+00  0.00000000000E+00  0.24806323105E+03  0.24806323105E+03  0.00000000000E+00 0. -1.
         -1   -1    0    0    0  501 -0.00000000000E+00 -0.00000000000E+00 -0.10031649829E+02  0.10031649829E+02  0.00000000000E+00 0.  1.
         23    2    1    2    0    0  0.00000000000E+00  0.00000000000E+00  0.23803158122E+03  0.25809488088E+03  0.99769403512E+02 0.  0.
        -11    1    3    3    0    0 -0.42907618564E+02 -0.84385137486E+01  0.56918468521E+02  0.71777324441E+02  0.00000000000E+00 0.  1.
         11    1    3    3    0    0  0.42907618564E+02  0.84385137486E+01  0.18111311270E+03  0.18631755644E+03  0.00000000000E+00 0. -1.
<mgrwt>
<rscale>  0 0.99769404E+02</rscale>
<asrwt>0</asrwt>
<pdfrwt beam="1">  1        1 0.38163569E-01 0.99769404E+02</pdfrwt>
<pdfrwt beam="2">  1       -1 0.15433309E-02 0.99769404E+02</pdfrwt>
<totfact> 0.96948778E+04</totfact>
</mgrwt>
</event>
<event>
 5    1  0.1239369E+001  0.8878202E+02  0.7546771E-02  0.1305828E+00
          1   -1    0    0  501    0  0.00000000000E+00  0.00000000000E+00  0.66623495237E+02  0.66623495237E+02  0.00000000000E+00 0. -1.
         -1   -1    0    0    0  501 -0.00000000000E+00 -0.00000000000E+00 -0.29577577896E+02  0.29577577896E+02  0.00000000000E+00 0.  1.
         23    2    1    2    0    0  0.00000000000E+00  0.00000000000E+00  0.37045917342E+02  0.96201073133E+02  0.88782016649E+02 0.  0.
        -11    1    3    3    0    0 -0.10542709417E+02  0.36879683398E+02 -0.56893665606E+01  0.38776650980E+02  0.00000000000E+00 0.  1.
         11    1    3    3    0    0  0.10542709417E+02 -0.36879683398E+02  0.42735283902E+02  0.57424422153E+02  0.00000000000E+00 0. -1.
<mgrwt>
<rscale>  0 0.88782017E+02</rscale>
<asrwt>0</asrwt>
<pdfrwt beam="1">  1        1 0.10249768E-01 0.88782017E+02</pdfrwt>
<pdfrwt beam="2">  1       -1 0.45503966E-02 0.88782017E+02</pdfrwt>
<totfact> 0.10537042E+05</totfact>
</mgrwt>
</event>
<event>
 5    1  0.1239369E+001  0.9185894E+02  0.7546771E-02  0.1298411E+00
          2   -1    0    0  501    0  0.00000000000E+00  0.00000000000E+00  0.17668809747E+03  0.17668809747E+03  0.00000000000E+00 0. -1.
         -2   -1    0    0    0  501 -0.00000000000E+00 -0.00000000000E+00 -0.11939208832E+02  0.11939208832E+02  0.00000000000E+00 0.  1.
         23    2    1    2    0    0  0.00000000000E+00  0.00000000000E+00  0.16474888863E+03  0.18862730630E+03  0.91858937373E+02 0.  0.
        -13    1    3    3    0    0  0.12078741269E+02 -0.38552386252E+02  0.37510840525E+02  0.55129353644E+02  0.00000000000E+00 0.  1.
         13    1    3    3    0    0 -0.12078741269E+02  0.38552386252E+02  0.12723804811E+03  0.13349795265E+03  0.00000000000E+00 0. -1.
<mgrwt>
<rscale>  0 0.91858937E+02</rscale>
<asrwt>0</asrwt>
<pdfrwt beam="1">  1        2 0.27182782E-01 0.91858937E+02</pdfrwt>
<pdfrwt beam="2">  1       -2 0.18368015E-02 0.91858937E+02</pdfrwt>
<totfact> 0.14501656E+05</totfact>
</mgrwt>
</event>
<event>
 5    1  0.1239369E+001  0.9149483E+02  0.7546771E-02  0.1299272E+00
          2   -1    0    0  501    0  0.00000000000E+00  0.00000000000E+00  0.37090728670E+02  0.37090728670E+02  0.00000000000E+00 0. -1.
         -2   -1    0    0    0  501 -0.00000000000E+00 -0.00000000000E+00 -0.56424501622E+02  0.56424501622E+02  0.00000000000E+00 0.  1.
         23    2    1    2    0    0  0.00000000000E+00  0.00000000000E+00 -0.19333772952E+02  0.93515230293E+02  0.91494827833E+02 0.  0.
        -11    1    3    3    0    0  0.17387800447E+02 -0.15420170862E+02 -0.49941444537E+02  0.55084164296E+02  0.00000000000E+00 0.  1.
         11    1    3    3    0    0 -0.17387800447E+02  0.15420170862E+02  0.30607671585E+02  0.38431065997E+02  0.00000000000E+00 0. -1.
<mgrwt>
<rscale>  0 0.91494828E+02</rscale>
<asrwt>0</asrwt>
<pdfrwt beam="1">  1        2 0.57062660E-02 0.91494828E+02</pdfrwt>
<pdfrwt beam="2">  1       -2 0.86806925E-02 0.91494828E+02</pdfrwt>
<totfact> 0.92594632E+04</totfact>
</mgrwt>
</event>
<event>
 5    1  0.1239369E+001  0.9228366E+02  0.7546771E-02  0.1297414E+00
         -1   -1    0    0    0  501 -0.00000000000E+00  0.00000000000E+00  0.70606177638E+01  0.70606177638E+01  0.00000000000E+00 0.  1.
          1   -1    0    0  501    0  0.00000000000E+00 -0.00000000000E+00 -0.30154139026E+03  0.30154139026E+03  0.00000000000E+00 0. -1.
         23    2    1    2    0    0  0.00000000000E+00  0.00000000000E+00 -0.29448077250E+03  0.30860200803E+03  0.92283660452E+02 0.  0.
        -13    1    3    3    0    0 -0.33723697208E+02 -0.27620597782E+02 -0.96648484069E+02  0.10602412295E+03  0.00000000000E+00 0.  1.
         13    1    3    3    0    0  0.33723697208E+02  0.27620597782E+02 -0.19783228843E+03  0.20257788507E+03  0.00000000000E+00 0. -1.
<mgrwt>
<rscale>  0 0.92283660E+02</rscale>
<asrwt>0</asrwt>
<pdfrwt beam="2">  1        1 0.46390972E-01 0.92283660E+02</pdfrwt>
<pdfrwt beam="1">  1       -1 0.10862491E-02 0.92283660E+02</pdfrwt>
<totfact> 0.12418467E+05</totfact>
</mgrwt>
</event>
<event>
 5    1  0.1239369E+001  0.9347304E+02  0.7546771E-02  0.1294653E+00
          1   -1    0    0  501    0  0.00000000000E+00  0.00000000000E+00  0.14135950475E+03  0.14135950475E+03  0.00000000000E+00 0. -1.
         -1   -1    0    0    0  501 -0.00000000000E+00 -0.00000000000E+00 -0.15452106886E+02  0.15452106886E+02  0.00000000000E+00 0.  1.
         23    2    1    2    0    0  0.00000000000E+00  0.00000000000E+00  0.12590739786E+03  0.15681161164E+03  0.93473037327E+02 0.  0.
        -13    1    3    3    0    0  0.14398298411E+02  0.43934355750E+02  0.51481526481E+02  0.69194553118E+02  0.00000000000E+00 0.  1.
         13    1    3    3    0    0 -0.14398298411E+02 -0.43934355750E+02  0.74425871383E+02  0.87617058519E+02  0.00000000000E+00 0. -1.
<mgrwt>
<rscale>  0 0.93473037E+02</rscale>
<asrwt>0</asrwt>
<pdfrwt beam="1">  1        1 0.21747615E-01 0.93473037E+02</pdfrwt>
<pdfrwt beam="2">  1       -1 0.23772473E-02 0.93473037E+02</pdfrwt>
<totfact> 0.10370001E+05</totfact>
</mgrwt>
</event>
<event>
 4    1  0.1239369E+001  0.1324031E+03  0.7546771E-02  0.1223933E+00
         -1   -1    0    0    0  501 -0.00000000000E+00  0.00000000000E+00  0.93989349445E+01  0.93989349445E+01  0.00000000000E+00 0.  1.
          1   -1    0    0  501    0  0.00000000000E+00 -0.00000000000E+00 -0.46629198382E+03  0.46629198382E+03  0.00000000000E+00 0. -1.
        -11    1    1    2    0    0 -0.29416921513E+02  0.56961366192E+02 -0.16911772461E+03  0.18086115472E+03  0.00000000000E+00 0.  1.
         11    1    1    2    0    0  0.29416921513E+02 -0.56961366192E+02 -0.28777532428E+03  0.29482976405E+03  0.00000000000E+00 0. -1.
<mgrwt>
<rscale>  0 0.13240314E+03</rscale>
<asrwt>0</asrwt>
<pdfrwt beam="2">  1        1 0.71737233E-01 0.13240314E+03</pdfrwt>
<pdfrwt beam="1">  1       -1 0.14459899E-02 0.13240314E+03</pdfrwt>
<totfact> 0.50390044E+04</totfact>
</mgrwt>
</event>
<event>
 5    1  0.1239369E+001  0.8869672E+02  0.7546771E-02  0.1306039E+00
         -1   -1    0    0    0  501 -0.00000000000E+00  0.00000000000E+00  0.81467015105E+01  0.81467015105E+01  0.00000000000E+00 0.  1.
          1   -1    0    0  501    0  0.00000000000E+00 -0.00000000000E+00 -0.24142006795E+03  0.24142006795E+03  0.00000000000E+00 0. -1.
         23    2    1    2    0    0  0.00000000000E+00  0.00000000000E+00 -0.23327336644E+03  0.24956676946E+03  0.88696724454E+02 0.  0.
        -13    1    3    3    0    0 -0.31833025816E+02  0.18390725804E+02 -0.18642670043E+03  0.19001703861E+03  0.00000000000E+00 0. -1.
         13    1    3    3    0    0  0.31833025816E+02 -0.18390725804E+02 -0.46846666004E+02  0.59549730847E+02  0.00000000000E+00 0.  1.
<mgrwt>
<rscale>  0 0.88696724E+02</rscale>
<asrwt>0</asrwt>
<pdfrwt beam="2">  1        1 0.37141549E-01 0.88696724E+02</pdfrwt>
<pdfrwt beam="1">  1       -1 0.12533387E-02 0.88696724E+02</pdfrwt>
<totfact> 0.13220747E+05</totfact>
</mgrwt>
</event>
<event>
 5    1  0.1239369E+001  0.9029129E+02  0.7546771E-02  0.1302148E+00
          4   -1    0    0  501    0  0.00000000000E+00  0.00000000000E+00  0.15785948918E+03  0.15785948918E+03  0.00000000000E+00 0. -1.
         -4   -1    0    0    0  501 -0.00000000000E+00 -0.00000000000E+00 -0.12911034086E+02  0.12911034086E+02  0.00000000000E+00 0.  1.
         23    2    1    2    0    0  0.00000000000E+00  0.00000000000E+00  0.14494845509E+03  0.17077052326E+03  0.90291289625E+02 0.  0.
        -13    1    3    3    0    0  0.10066931715E+02 -0.42525513767E+02  0.93902809283E+02  0.10357364542E+03  0.00000000000E+00 0. -1.
         13    1    3    3    0    0 -0.10066931715E+02  0.42525513767E+02  0.51045645806E+02  0.67196877837E+02  0.00000000000E+00 0.  1.
<mgrwt>
<rscale>  0 0.90291290E+02</rscale>
<asrwt>0</asrwt>
<pdfrwt beam="1">  1        4 0.24286074E-01 0.90291290E+02</pdfrwt>
<pdfrwt beam="2">  1       -4 0.19863130E-02 0.90291290E+02</pdfrwt>
<totfact> 0.23272458E+04</totfact>
</mgrwt>
</event>
<event>
 5    1  0.1239369E+001  0.9124801E+02  0.7546771E-02  0.1299857E+00
         -3   -1    0    0    0  501 -0.00000000000E+00  0.00000000000E+00  0.11248617987E+03  0.11248617987E+03  0.00000000000E+00 0.  1.
          3   -1    0    0  501    0  0.00000000000E+00 -0.00000000000E+00 -0.18504936831E+02  0.18504936831E+02  0.00000000000E+00 0. -1.
         23    2    1    2    0    0  0.00000000000E+00  0.00000000000E+00  0.93981243037E+02  0.13099111670E+03  0.91248006068E+02 0.  0.
        -11    1    3    3    0    0  0.23180314540E+01  0.42864788744E+02  0.69173767453E+02  0.81411138596E+02  0.00000000000E+00 0.  1.
         11    1    3    3    0    0 -0.23180314540E+01 -0.42864788744E+02  0.24807475584E+02  0.49579978103E+02  0.00000000000E+00 0. -1.
<mgrwt>
<rscale>  0 0.91248006E+02</rscale>
<asrwt>0</asrwt>
<pdfrwt beam="2">  1        3 0.28469134E-02 0.91248006E+02</pdfrwt>
<pdfrwt beam="1">  1       -3 0.17305566E-01 0.91248006E+02</pdfrwt>
<totfact> 0.32443508E+04</totfact>
</mgrwt>
</event>
<event>
 5    1  0.1239369E+001  0.9127582E+02  0.7546771E-02  0.1299791E+00
          2   -1    0    0  501    0  0.00000000000E+00  0.00000000000E+00  0.25055954881E+03  0.25055954881E+03  0.00000000000E+00 0. -1.
         -2   -1    0    0    0  501 -0.00000000000E+00 -0.00000000000E+00 -0.83126691707E+01  0.83126691707E+01  0.00000000000E+00 0.  1.
         23    2    1    2    0    0  0.00000000000E+00  0.00000000000E+00  0.24224687964E+03  0.25887221798E+03  0.91275815785E+02 0.  0.
        -13    1    3    3    0    0 -0.48541185003E+01  0.43024533368E+02  0.16204134975E+03  0.16772618152E+03  0.00000000000E+00 0. -1.
         13    1    3    3    0    0  0.48541185003E+01 -0.43024533368E+02  0.80205529889E+02  0.91146036462E+02  0.00000000000E+00 0.  1.
<mgrwt>
<rscale>  0 0.91275816E+02</rscale>
<asrwt>0</asrwt>
<pdfrwt beam="1">  1        2 0.38547617E-01 0.91275816E+02</pdfrwt>
<pdfrwt beam="2">  1       -2 0.12788724E-02 0.91275816E+02</pdfrwt>
<totfact> 0.16751157E+05</totfact>
</mgrwt>
</event>
<event>
 4    1  0.1239369E+001  0.1756420E+03  0.7546771E-02  0.1172089E+00
          2   -1    0    0  501    0  0.00000000000E+00  0.00000000000E+00  0.11478728348E+03  0.11478728348E+03  0.00000000000E+00 0. -1.
         -2   -1    0    0    0  501 -0.00000000000E+00 -0.00000000000E+00 -0.67189735218E+02  0.67189735218E+02  0.00000000000E+00 0.  1.
        -11    1    1    2    0    0  0.72815149474E+02 -0.34355623051E+02 -0.12540075752E+02  0.81483791811E+02  0.00000000000E+00 0.  1.
         11    1    1    2    0    0 -0.72815149474E+02  0.34355623051E+02  0.60137624014E+02  0.10049322689E+03  0.00000000000E+00 0. -1.
<mgrwt>
<rscale>  0 0.17564199E+03</rscale>
<asrwt>0</asrwt>
<pdfrwt beam="1">  1        2 0.17659582E-01 0.17564199E+03</pdfrwt>
<pdfrwt beam="2">  1       -2 0.10336882E-01 0.17564199E+03</pdfrwt>
<totfact> 0.19211761E+04</totfact>
</mgrwt>
</event>
<event>
 5    1  0.1239369E+001  0.9076364E+02  0.7546771E-02  0.1301013E+00
          2   -1    0    0  501    0  0.00000000000E+00  0.00000000000E+00  0.26370635485E+02  0.26370635485E+02  0.00000000000E+00 0. -1.
         -2   -1    0    0    0  501 -0.00000000000E+00 -0.00000000000E+00 -0.78098599746E+02  0.78098599746E+02  0.00000000000E+00 0.  1.
         23    2    1    2    0    0  0.00000000000E+00  0.00000000000E+00 -0.51727964261E+02  0.10446923523E+03  0.90763642627E+02 0.  0.
        -11    1    3    3    0    0  0.10304670752E+02  0.44189260487E+02 -0.24948428767E+02  0.51781281171E+02  0.00000000000E+00 0.  1.
         11    1    3    3    0    0 -0.10304670752E+02 -0.44189260487E+02 -0.26779535494E+02  0.52687954059E+02  0.00000000000E+00 0. -1.
<mgrwt>
<rscale>  0 0.90763643E+02</rscale>
<asrwt>0</asrwt>
<pdfrwt beam="1">  1        2 0.40570209E-02 0.90763643E+02</pdfrwt>
<pdfrwt beam="2">  1       -2 0.12015169E-01 0.90763643E+02</pdfrwt>
<totfact> 0.86603360E+04</totfact>
</mgrwt>
</event>
<event>
 5    1  0.1239369E+001  0.9221376E+02  0.7546771E-02  0.1297578E+00
          2   -1    0    0  501    0  0.00000000000E+00  0.00000000000E+00  0.16377886938E+03  0.16377886938E+03  0.00000000000E+00 0. -1.
         -2   -1    0    0    0  501 -0.00000000000E+00 -0.00000000000E+00 -0.12979967398E+02  0.12979967398E+02  0.00000000000E+00 0.  1.
         23    2    1    2    0    0  0.00000000000E+00  0.00000000000E+00  0.15079890198E+03  0.17675883677E+03  0.92213760034E+02 0.  0.
        -11    1    3    3    0    0 -0.30389619309E+02  0.38175222623E+00  0.89382338080E+01  0.31679121202E+02  0.00000000000E+00 0.  1.
         11    1    3    3    0    0  0.30389619309E+02 -0.38175222623E+00  0.14186066817E+03  0.14507971557E+03  0.00000000000E+00 0. -1.
<mgrwt>
<rscale>  0 0.92213760E+02</rscale>
<asrwt>0</asrwt>
<pdfrwt beam="1">  1        2 0.25196748E-01 0.92213760E+02</pdfrwt>
<pdfrwt beam="2">  1       -2 0.19969182E-02 0.92213760E+02</pdfrwt>
<totfact> 0.13974494E+05</totfact>
</mgrwt>
</event>
<event>
 5    1  0.1239369E+001  0.9161745E+02  0.7546771E-02  0.1298981E+00
         -1   -1    0    0    0  501 -0.00000000000E+00  0.00000000000E+00  0.99546560961E+02  0.99546560961E+02  0.00000000000E+00 0.  1.
          1   -1    0    0  501    0  0.00000000000E+00 -0.00000000000E+00 -0.21079979540E+02  0.21079979540E+02  0.00000000000E+00 0. -1.
         23    2    1    2    0    0  0.00000000000E+00  0.00000000000E+00  0.78466581421E+02  0.12062654050E+03  0.91617453978E+02 0.  0.
        -11    1    3    3    0    0  0.12490277257E+02 -0.24178213095E+02  0.87749849033E+02  0.91872896002E+02  0.00000000000E+00 0.  1.
         11    1    3    3    0    0 -0.12490277257E+02  0.24178213095E+02 -0.92832676126E+01  0.28753644499E+02  0.00000000000E+00 0. -1.
<mgrwt>
<rscale>  0 0.91617454E+02</rscale>
<asrwt>0</asrwt>
<pdfrwt beam="2">  1        1 0.32430738E-02 0.91617454E+02</pdfrwt>
<pdfrwt beam="1">  1       -1 0.15314855E-01 0.91617454E+02</pdfrwt>
<totfact> 0.80433525E+04</totfact>
</mgrwt>
</event>
<event>
 5    1  0.1239369E+001  0.9185708E+02  0.7546771E-02  0.1298416E+00
          2   -1    0    0  501    0  0.00000000000E+00  0.00000000000E+00  0.21760184437E+03  0.21760184437E+03  0.00000000000E+00 0. -1.
         -2   -1    0    0    0  501 -0.00000000000E+00 -0.00000000000E+00 -0.96939925892E+01  0.96939925892E+01  0.00000000000E+00 0.  1.
         23    2    1    2    0    0  0.00000000000E+00  0.00000000000E+00  0.20790785179E+03  0.22729583696E+03  0.91857077392E+02 0.  0.
        -11    1    3    3    0    0  0.32711547064E+00  0.45336850846E+02  0.12211943302E+03  0.13026393580E+03  0.00000000000E+00 0.  1.
         11    1    3    3    0    0 -0.32711547064E+00 -0.45336850846E+02  0.85788418767E+02  0.97031901165E+02  0.00000000000E+00 0. -1.
<mgrwt>
<rscale>  0 0.91857077E+02</rscale>
<asrwt>0</asrwt>
<pdfrwt beam="1">  1        2 0.33477203E-01 0.91857077E+02</pdfrwt>
<pdfrwt beam="2">  1       -2 0.14913836E-02 0.91857077E+02</pdfrwt>
<totfact> 0.15634168E+05</totfact>
</mgrwt>
</event>
<event>
 5    1  0.1239369E+001  0.9163464E+02  0.7546771E-02  0.1298941E+00
         -4   -1    0    0    0  501 -0.00000000000E+00  0.00000000000E+00  0.24335424778E+03  0.24335424778E+03  0.00000000000E+00 0.  1.
          4   -1    0    0  501    0  0.00000000000E+00 -0.00000000000E+00 -0.86262184369E+01  0.86262184369E+01  0.00000000000E+00 0. -1.
         23    2    1    2    0    0  0.00000000000E+00  0.00000000000E+00  0.23472802934E+03  0.25198046622E+03  0.91634641897E+02 0.  0.
        -13    1    3    3    0    0  0.16464624212E+01  0.35357416839E+02  0.19736348228E+03  0.20051234850E+03  0.00000000000E+00 0.  1.
         13    1    3    3    0    0 -0.16464624212E+01 -0.35357416839E+02  0.37364547067E+02  0.51468117719E+02  0.00000000000E+00 0. -1.
<mgrwt>
<rscale>  0 0.91634642E+02</rscale>
<asrwt>0</asrwt>
<pdfrwt beam="2">  1        4 0.13271107E-02 0.91634642E+02</pdfrwt>
<pdfrwt beam="1">  1       -4 0.37439110E-01 0.91634642E+02</pdfrwt>
<totfact> 0.19135982E+04</totfact>
</mgrwt>
</event>
<event>
 5    1  0.1239369E+001  0.8742760E+02  0.7546771E-02  0.1309203E+00
         -3   -1    0    0    0  501 -0.00000000000E+00  0.00000000000E+00  0.12884368872E+02  0.12884368872E+02  0.00000000000E+00 0.  1.
          3   -1    0    0  501    0  0.00000000000E+00 -0.00000000000E+00 -0.14831121741E+03  0.14831121741E+03  0.00000000000E+00 0. -1.
         23    2    1    2    0    0  0.00000000000E+00  0.00000000000E+00 -0.13542684854E+03  0.16119558628E+03  0.87427602805E+02 0.  0.
        -11    1    3    3    0    0 -0.27507048223E+02 -0.23869857869E+02 -0.11228855281E+03  0.11804713850E+03  0.00000000000E+00 0.  1.
         11    1    3    3    0    0  0.27507048223E+02  0.23869857869E+02 -0.23138295729E+02  0.43148447781E+02  0.00000000000E+00 0. -1.
<mgrwt>
<rscale>  0 0.87427603E+02</rscale>
<asrwt>0</asrwt>
<pdfrwt beam="2">  1        3 0.22817111E-01 0.87427603E+02</pdfrwt>
<pdfrwt beam="1">  1       -3 0.19822105E-02 0.87427603E+02</pdfrwt>
<totfact> 0.34306700E+04</totfact>
</mgrwt>
</event>
<event>
 5    1  0.1239369E+001  0.9282723E+02  0.7546771E-02  0.1296146E+00
         -1   -1    0    0    0  501 -0.00000000000E+00  0.00000000000E+00  0.66882839015E+01  0.66882839015E+01  0.00000000000E+00 0.  1.
          1   -1    0    0  501    0  0.00000000000E+00 -0.00000000000E+00 -0.32208913409E+03  0.32208913409E+03  0.00000000000E+00 0. -1.
         23    2    1    2    0    0  0.00000000000E+00  0.00000000000E+00 -0.31540085019E+03  0.32877741799E+03  0.92827228125E+02 0.  0.
        -13    1    3    3    0    0  0.35211778190E+02 -0.19452685763E+02 -0.75705376597E+02  0.85729693528E+02  0.00000000000E+00 0.  1.
         13    1    3    3    0    0 -0.35211778190E+02  0.19452685763E+02 -0.23969547359E+03  0.24304772446E+03  0.00000000000E+00 0. -1.
<mgrwt>
<rscale>  0 0.92827228E+02</rscale>
<asrwt>0</asrwt>
<pdfrwt beam="2">  1        1 0.49552170E-01 0.92827228E+02</pdfrwt>
<pdfrwt beam="1">  1       -1 0.10289669E-02 0.92827228E+02</pdfrwt>
<totfact> 0.12378455E+05</totfact>
</mgrwt>
</event>
<event>
 5    1  0.1239369E+001  0.9017562E+02  0.7546771E-02  0.1302427E+00
          4   -1    0    0  501    0  0.00000000000E+00  0.00000000000E+00  0.18392443064E+03  0.18392443064E+03  0.00000000000E+00 0. -1.
         -4   -1    0    0    0  501 -0.00000000000E+00 -0.00000000000E+00 -0.11052966423E+02  0.11052966423E+02  0.00000000000E+00 0.  1.
         23    2    1    2    0    0  0.00000000000E+00  0.00000000000E+00  0.17287146422E+03  0.19497739706E+03  0.90175618795E+02 0.  0.
        -11    1    3    3    0    0  0.38541637034E+02  0.15160905085E+02  0.12496894288E+03  0.13165313332E+03  0.00000000000E+00 0. -1.
         11    1    3    3    0    0 -0.38541637034E+02 -0.15160905085E+02  0.47902521337E+02  0.63324263744E+02  0.00000000000E+00 0.  1.
<mgrwt>
<rscale>  0 0.90175619E+02</rscale>
<asrwt>0</asrwt>
<pdfrwt beam="1">  1        4 0.28296064E-01 0.90175619E+02</pdfrwt>
<pdfrwt beam="2">  1       -4 0.17004565E-02 0.90175619E+02</pdfrwt>
<totfact> 0.22244607E+04</totfact>
</mgrwt>
</event>
<event>
 5    1  0.1239369E+001  0.9086674E+02  0.7546771E-02  0.1300766E+00
          2   -1    0    0  501    0  0.00000000000E+00  0.00000000000E+00  0.51384616669E+02  0.51384616669E+02  0.00000000000E+00 0. -1.
         -2   -1    0    0    0  501 -0.00000000000E+00 -0.00000000000E+00 -0.40171386394E+02  0.40171386394E+02  0.00000000000E+00 0.  1.
         23    2    1    2    0    0  0.00000000000E+00  0.00000000000E+00  0.11213230275E+02  0.91556003064E+02  0.90866743993E+02 0.  0.
        -11    1    3    3    0    0 -0.19256578893E+02 -0.28268917510E+02 -0.24524126297E+02  0.42087768988E+02  0.00000000000E+00 0.  1.
         11    1    3    3    0    0  0.19256578893E+02  0.28268917510E+02  0.35737356571E+02  0.49468234075E+02  0.00000000000E+00 0. -1.
<mgrwt>
<rscale>  0 0.90866744E+02</rscale>
<asrwt>0</asrwt>
<pdfrwt beam="1">  1        2 0.79053257E-02 0.90866744E+02</pdfrwt>
<pdfrwt beam="2">  1       -2 0.61802133E-02 0.90866744E+02</pdfrwt>
<totfact> 0.10279469E+05</totfact>
</mgrwt>
</event>
<event>
 5    1  0.1239369E+001  0.8159653E+02  0.7546771E-02  0.1324581E+00
         -1   -1    0    0    0  501 -0.00000000000E+00  0.00000000000E+00  0.49482914947E+02  0.49482914947E+02  0.00000000000E+00 0.  1.
          1   -1    0    0  501    0  0.00000000000E+00 -0.00000000000E+00 -0.33637839750E+02  0.33637839750E+02  0.00000000000E+00 0. -1.
         23    2    1    2    0    0  0.00000000000E+00  0.00000000000E+00  0.15845075197E+02  0.83120754697E+02  0.81596528440E+02 0.  0.
        -11    1    3    3    0    0 -0.11666293741E+02 -0.20267619567E+02 -0.26132768724E+02  0.35068510287E+02  0.00000000000E+00 0. -1.
         11    1    3    3    0    0  0.11666293741E+02  0.20267619567E+02  0.41977843921E+02  0.48052244410E+02  0.00000000000E+00 0.  1.
<mgrwt>
<rscale>  0 0.81596528E+02</rscale>
<asrwt>0</asrwt>
<pdfrwt beam="2">  1        1 0.51750523E-02 0.81596528E+02</pdfrwt>
<pdfrwt beam="1">  1       -1 0.76127561E-02 0.81596528E+02</pdfrwt>
<totfact> 0.12074030E+05</totfact>
</mgrwt>
</event>
<event>
 5    1  0.1239369E+001  0.9157300E+02  0.7546771E-02  0.1299087E+00
         -4   -1    0    0    0  501 -0.00000000000E+00  0.00000000000E+00  0.17398038390E+03  0.17398038390E+03  0.00000000000E+00 0.  1.
          4   -1    0    0  501    0  0.00000000000E+00 -0.00000000000E+00 -0.12049656081E+02  0.12049656081E+02  0.00000000000E+00 0. -1.
         23    2    1    2    0    0  0.00000000000E+00  0.00000000000E+00  0.16193072782E+03  0.18603003998E+03  0.91573004554E+02 0.  0.
        -13    1    3    3    0    0  0.23630711569E+02 -0.30542057572E+02  0.13094078440E+03  0.13651636103E+03  0.00000000000E+00 0. -1.
         13    1    3    3    0    0 -0.23630711569E+02  0.30542057572E+02  0.30989943420E+02  0.49513678950E+02  0.00000000000E+00 0.  1.
<mgrwt>
<rscale>  0 0.91573005E+02</rscale>
<asrwt>0</asrwt>
<pdfrwt beam="2">  1        4 0.18537934E-02 0.91573005E+02</pdfrwt>
<pdfrwt beam="1">  1       -4 0.26766211E-01 0.91573005E+02</pdfrwt>
<totfact> 0.21729613E+04</totfact>
</mgrwt>
</event>
<event>
 5    1  0.1239369E+001  0.8969282E+02  0.7546771E-02  0.1303597E+00
          4   -1    0    0  501    0  0.00000000000E+00  0.00000000000E+00  0.22822189176E+02  0.22822189176E+02  0.00000000000E+00 0. -1.
         -4   -1    0    0    0  501 -0.00000000000E+00 -0.00000000000E+00 -0.88124790811E+02  0.88124790811E+02  0.00000000000E+00 0.  1.
         23    2    1    2    0    0  0.00000000000E+00  0.00000000000E+00 -0.65302601635E+02  0.11094697999E+03  0.89692823504E+02 0.  0.
        -13    1    3    3    0    0 -0.39610276304E+02  0.17202935159E+02 -0.47612234470E+02  0.64279388906E+02  0.00000000000E+00 0.  1.
         13    1    3    3    0    0  0.39610276304E+02 -0.17202935159E+02 -0.17690367165E+02  0.46667591082E+02  0.00000000000E+00 0. -1.
<mgrwt>
<rscale>  0 0.89692824E+02</rscale>
<asrwt>0</asrwt>
<pdfrwt beam="1">  1        4 0.35111060E-02 0.89692824E+02</pdfrwt>
<pdfrwt beam="2">  1       -4 0.13557660E-01 0.89692824E+02</pdfrwt>
<totfact> 0.26964208E+04</totfact>
</mgrwt>
</event>
<event>
 5    1  0.1239369E+001  0.9067246E+02  0.7546771E-02  0.1301231E+00
         -1   -1    0    0    0  501 -0.00000000000E+00  0.00000000000E+00  0.32451727316E+02  0.32451727316E+02  0.00000000000E+00 0.  1.
          1   -1    0    0  501    0  0.00000000000E+00 -0.00000000000E+00 -0.63336339473E+02  0.63336339473E+02  0.00000000000E+00 0. -1.
         23    2    1    2    0    0  0.00000000000E+00  0.00000000000E+00 -0.30884612157E+02  0.95788066789E+02  0.90672457070E+02 0.  0.
        -11    1    3    3    0    0  0.69810491817E+01  0.10271310292E+02  0.30619708809E+02  0.33042418651E+02  0.00000000000E+00 0.  1.
         11    1    3    3    0    0 -0.69810491817E+01 -0.10271310292E+02 -0.61504320966E+02  0.62745648138E+02  0.00000000000E+00 0. -1.
<mgrwt>
<rscale>  0 0.90672457E+02</rscale>
<asrwt>0</asrwt>
<pdfrwt beam="2">  1        1 0.97440522E-02 0.90672457E+02</pdfrwt>
<pdfrwt beam="1">  1       -1 0.49925734E-02 0.90672457E+02</pdfrwt>
<totfact> 0.98668239E+04</totfact>
</mgrwt>
</event>
<event>
 5    1  0.1239369E+001  0.8991868E+02  0.7546771E-02  0.1303049E+00
          2   -1    0    0  501    0  0.00000000000E+00  0.00000000000E+00  0.16972417997E+03  0.16972417997E+03  0.00000000000E+00 0. -1.
         -2   -1    0    0    0  501 -0.00000000000E+00 -0.00000000000E+00 -0.11909571284E+02  0.11909571284E+02  0.00000000000E+00 0.  1.
         23    2    1    2    0    0  0.00000000000E+00  0.00000000000E+00  0.15781460869E+03  0.18163375126E+03  0.89918679260E+02 0.  0.
        -11    1    3    3    0    0  0.16926393212E+02 -0.41495863847E+02  0.86171566534E+02  0.97128514775E+02  0.00000000000E+00 0.  1.
         11    1    3    3    0    0 -0.16926393212E+02  0.41495863847E+02  0.71643042155E+02  0.84505236481E+02  0.00000000000E+00 0. -1.
<mgrwt>
<rscale>  0 0.89918679E+02</rscale>
<asrwt>0</asrwt>
<pdfrwt beam="1">  1        2 0.26111411E-01 0.89918679E+02</pdfrwt>
<pdfrwt beam="2">  1       -2 0.18322419E-02 0.89918679E+02</pdfrwt>
<totfact> 0.15147319E+05</totfact>
</mgrwt>
</event>
<event>
 5    1  0.1239369E+001  0.9047942E+02  0.7546771E-02  0.1301695E+00
          3   -1    0    0  501    0  0.00000000000E+00  0.00000000000E+00  0.10765738697E+03  0.10765738697E+03  0.00000000000E+00 0. -1.
         -3   -1    0    0    0  501 -0.00000000000E+00 -0.00000000000E+00 -0.19010596865E+02  0.19010596865E+02  0.00000000000E+00 0.  1.
         23    2    1    2    0    0  0.00000000000E+00  0.00000000000E+00  0.88646790105E+02  0.12666798384E+03  0.90479416073E+02 0.  0.
        -13    1    3    3    0    0 -0.39695332644E+02  0.11576849298E+02  0.18627719537E+02  0.45351238225E+02  0.00000000000E+00 0.  1.
         13    1    3    3    0    0  0.39695332644E+02 -0.11576849298E+02  0.70019070568E+02  0.81316745610E+02  0.00000000000E+00 0. -1.
<mgrwt>
<rscale>  0 0.90479416E+02</rscale>
<asrwt>0</asrwt>
<pdfrwt beam="1">  1        3 0.16562675E-01 0.90479416E+02</pdfrwt>
<pdfrwt beam="2">  1       -3 0.29247073E-02 0.90479416E+02</pdfrwt>
<totfact> 0.33486000E+04</totfact>
</mgrwt>
</event>
<event>
 5    1  0.1239369E+001  0.8784852E+02  0.7546771E-02  0.1308147E+00
         -1   -1    0    0    0  501 -0.00000000000E+00  0.00000000000E+00  0.17885125828E+02  0.17885125828E+02  0.00000000000E+00 0.  1.
          1   -1    0    0  501    0  0.00000000000E+00 -0.00000000000E+00 -0.10787402974E+03  0.10787402974E+03  0.00000000000E+00 0. -1.
         23    2    1    2    0    0  0.00000000000E+00  0.00000000000E+00 -0.89988903917E+02  0.12575915557E+03  0.87848519521E+02 0.  0.
        -13    1    3    3    0    0  0.28467639060E+01 -0.27099661358E+02  0.43231722357E+01  0.27589590947E+02  0.00000000000E+00 0.  1.
         13    1    3    3    0    0 -0.28467639060E+01  0.27099661358E+02 -0.94312076153E+02  0.98169564626E+02  0.00000000000E+00 0. -1.
<mgrwt>
<rscale>  0 0.87848520E+02</rscale>
<asrwt>0</asrwt>
<pdfrwt beam="2">  1        1 0.16596005E-01 0.87848520E+02</pdfrwt>
<pdfrwt beam="1">  1       -1 0.27515578E-02 0.87848520E+02</pdfrwt>
<totfact> 0.11701132E+05</totfact>
</mgrwt>
</event>
<event>
 5    1  0.1239369E+001  0.9409287E+02  0.7546771E-02  0.1293232E+00
         -1   -1    0    0    0  501 -0.00000000000E+00  0.00000000000E+00  0.21354548054E+03  0.21354548054E+03  0.00000000000E+00 0.  1.
          1   -1    0    0  501    0  0.00000000000E+00 -0.00000000000E+00 -0.10364851820E+02  0.10364851820E+02  0.00000000000E+00 0. -1.
         23    2    1    2    0    0  0.00000000000E+00  0.00000000000E+00  0.20318062872E+03  0.22391033236E+03  0.94092874602E+02 0.  0.
        -13    1    3    3    0    0  0.65109592008E+01 -0.46491563895E+02  0.10892849615E+03  0.11861397631E+03  0.00000000000E+00 0.  1.
         13    1    3    3    0    0 -0.65109592008E+01  0.46491563895E+02  0.94252132572E+02  0.10529635605E+03  0.00000000000E+00 0. -1.
<mgrwt>
<rscale>  0 0.94092875E+02</rscale>
<asrwt>0</asrwt>
<pdfrwt beam="2">  1        1 0.15945927E-02 0.94092875E+02</pdfrwt>
<pdfrwt beam="1">  1       -1 0.32853148E-01 0.94092875E+02</pdfrwt>
<totfact> 0.62728441E+04</totfact>
</mgrwt>
</event>
<event>
 5    1  0.1239369E+001  0.8464566E+02  0.7546771E-02  0.1316362E+00
         -3   -1    0    0    0  501 -0.00000000000E+00  0.00000000000E+00  0.72997382351E+02  0.72997382351E+02  0.00000000000E+00 0. -1.
          3   -1    0    0  501    0  0.00000000000E+00 -0.00000000000E+00 -0.24538164558E+02  0.24538164558E+02  0.00000000000E+00 0.  1.
         23    2    1    2    0    0  0.00000000000E+00  0.00000000000E+00  0.48459217793E+02  0.97535546908E+02  0.84645656248E+02 0.  0.
        -13    1    3    3    0    0 -0.54398605343E+00  0.22609876523E+02 -0.16991115001E+02  0.28287814093E+02  0.00000000000E+00 0.  1.
         13    1    3    3    0    0  0.54398605343E+00 -0.22609876523E+02  0.65450332794E+02  0.69247732815E+02  0.00000000000E+00 0. -1.
<mgrwt>
<rscale>  0 0.84645656E+02</rscale>
<asrwt>0</asrwt>
<pdfrwt beam="2">  1        3 0.37751023E-02 0.84645656E+02</pdfrwt>
<pdfrwt beam="1">  1       -3 0.11230366E-01 0.84645656E+02</pdfrwt>
<totfact> 0.42623845E+04</totfact>
</mgrwt>
</event>
<event>
 5    1  0.1239369E+001  0.8960914E+02  0.7546771E-02  0.1303801E+00
          2   -1    0    0  501    0  0.00000000000E+00  0.00000000000E+00  0.17055224310E+02  0.17055224310E+02  0.00000000000E+00 0. -1.
         -2   -1    0    0    0  501 -0.00000000000E+00 -0.00000000000E+00 -0.11770290514E+03  0.11770290514E+03  0.00000000000E+00 0.  1.
         23    2    1    2    0    0  0.00000000000E+00  0.00000000000E+00 -0.10064768083E+03  0.13475812945E+03  0.89609139023E+02 0.  0.
        -13    1    3    3    0    0  0.24828760593E+02  0.24988110033E+02 -0.86867467960E+01  0.36281297738E+02  0.00000000000E+00 0. -1.
         13    1    3    3    0    0 -0.24828760593E+02 -0.24988110033E+02 -0.91960934037E+02  0.98476831714E+02  0.00000000000E+00 0.  1.
<mgrwt>
<rscale>  0 0.89609139E+02</rscale>
<asrwt>0</asrwt>
<pdfrwt beam="1">  1        2 0.26238807E-02 0.89609139E+02</pdfrwt>
<pdfrwt beam="2">  1       -2 0.18108139E-01 0.89609139E+02</pdfrwt>
<totfact> 0.79257598E+04</totfact>
</mgrwt>
</event>
<event>
 5    1  0.1239369E+001  0.1003030E+03  0.7546771E-02  0.1279660E+00
          2   -1    0    0  501    0  0.00000000000E+00  0.00000000000E+00  0.52121229040E+02  0.52121229040E+02  0.00000000000E+00 0. -1.
         -2   -1    0    0    0  501 -0.00000000000E+00 -0.00000000000E+00 -0.48256213877E+02  0.48256213877E+02  0.00000000000E+00 0.  1.
         23    2    1    2    0    0  0.00000000000E+00  0.00000000000E+00  0.38650151623E+01  0.10037744292E+03  0.10030300446E+03 0.  0.
        -13    1    3    3    0    0  0.50134200109E+02 -0.59092729643E+00  0.75436568531E+00  0.50143357319E+02  0.00000000000E+00 0.  1.
         13    1    3    3    0    0 -0.50134200109E+02  0.59092729643E+00  0.31106494770E+01  0.50234085598E+02  0.00000000000E+00 0. -1.
<mgrwt>
<rscale>  0 0.10030300E+03</rscale>
<asrwt>0</asrwt>
<pdfrwt beam="1">  1        2 0.80186506E-02 0.10030300E+03</pdfrwt>
<pdfrwt beam="2">  1       -2 0.74240329E-02 0.10030300E+03</pdfrwt>
<totfact> 0.77683619E+04</totfact>
</mgrwt>
</event>
<event>
 5    1  0.1239369E+001  0.9112016E+02  0.7546771E-02  0.1300162E+00
         -2   -1    0    0    0  501 -0.00000000000E+00  0.00000000000E+00  0.81517722650E+01  0.81517722650E+01  0.00000000000E+00 0. -1.
          2   -1    0    0  501    0  0.00000000000E+00 -0.00000000000E+00 -0.25463430322E+03  0.25463430322E+03  0.00000000000E+00 0.  1.
         23    2    1    2    0    0  0.00000000000E+00  0.00000000000E+00 -0.24648253095E+03  0.26278607548E+03  0.91120159146E+02 0.  0.
        -11    1    3    3    0    0  0.14907071426E+02 -0.41658651856E+02 -0.15457653099E+03  0.16078422804E+03  0.00000000000E+00 0.  1.
         11    1    3    3    0    0 -0.14907071426E+02  0.41658651856E+02 -0.91905999965E+02  0.10200184745E+03  0.00000000000E+00 0. -1.
<mgrwt>
<rscale>  0 0.91120159E+02</rscale>
<asrwt>0</asrwt>
<pdfrwt beam="2">  1        2 0.39174509E-01 0.91120159E+02</pdfrwt>
<pdfrwt beam="1">  1       -2 0.12541188E-02 0.91120159E+02</pdfrwt>
<totfact> 0.16928767E+05</totfact>
</mgrwt>
</event>
<event>
 5    1  0.1239369E+001  0.8544124E+02  0.7546771E-02  0.1314283E+00
         -3   -1    0    0    0  501 -0.00000000000E+00  0.00000000000E+00  0.73958407054E+01  0.73958407054E+01  0.00000000000E+00 0.  1.
          3   -1    0    0  501    0  0.00000000000E+00 -0.00000000000E+00 -0.24676724126E+03  0.24676724126E+03  0.00000000000E+00 0. -1.
         23    2    1    2    0    0  0.00000000000E+00  0.00000000000E+00 -0.23937140055E+03  0.25416308196E+03  0.85441236126E+02 0.  0.
        -13    1    3    3    0    0 -0.28265020699E+02  0.21374776587E+02 -0.19065978460E+03  0.19392510393E+03  0.00000000000E+00 0. -1.
         13    1    3    3    0    0  0.28265020699E+02 -0.21374776587E+02 -0.48711615954E+02  0.60237978038E+02  0.00000000000E+00 0.  1.
<mgrwt>
<rscale>  0 0.85441236E+02</rscale>
<asrwt>0</asrwt>
<pdfrwt beam="2">  1        3 0.37964187E-01 0.85441236E+02</pdfrwt>
<pdfrwt beam="1">  1       -3 0.11378218E-02 0.85441236E+02</pdfrwt>
<totfact> 0.30842247E+04</totfact>
</mgrwt>
</event>
<event>
 5    1  0.1239369E+001  0.8024236E+02  0.7546771E-02  0.1328365E+00
         -1   -1    0    0    0  501 -0.00000000000E+00  0.00000000000E+00  0.42024396426E+02  0.42024396426E+02  0.00000000000E+00 0.  1.
          1   -1    0    0  501    0  0.00000000000E+00 -0.00000000000E+00 -0.38304158144E+02  0.38304158144E+02  0.00000000000E+00 0. -1.
         23    2    1    2    0    0  0.00000000000E+00  0.00000000000E+00  0.37202382820E+01  0.80328554569E+02  0.80242361046E+02 0.  0.
        -13    1    3    3    0    0 -0.27507791742E+02 -0.28197063385E+02  0.94811894240E+01  0.40517230199E+02  0.00000000000E+00 0.  1.
         13    1    3    3    0    0  0.27507791742E+02  0.28197063385E+02 -0.57609511421E+01  0.39811324370E+02  0.00000000000E+00 0. -1.
<mgrwt>
<rscale>  0 0.80242361E+02</rscale>
<asrwt>0</asrwt>
<pdfrwt beam="2">  1        1 0.58929474E-02 0.80242361E+02</pdfrwt>
<pdfrwt beam="1">  1       -1 0.64652918E-02 0.80242361E+02</pdfrwt>
<totfact> 0.12877684E+05</totfact>
</mgrwt>
</event>
<event>
 5    1  0.1239369E+001  0.9360587E+02  0.7546771E-02  0.1294347E+00
         -1   -1    0    0    0  501 -0.00000000000E+00  0.00000000000E+00  0.65715073432E+01  0.65715073432E+01  0.00000000000E+00 0.  1.
          1   -1    0    0  501    0  0.00000000000E+00 -0.00000000000E+00 -0.33333517517E+03  0.33333517517E+03  0.00000000000E+00 0. -1.
         23    2    1    2    0    0  0.00000000000E+00  0.00000000000E+00 -0.32676366783E+03  0.33990668251E+03  0.93605866298E+02 0.  0.
        -11    1    3    3    0    0  0.13930622775E+02 -0.41875529959E+02 -0.21997493622E+03  0.22435818422E+03  0.00000000000E+00 0. -1.
         11    1    3    3    0    0 -0.13930622775E+02  0.41875529959E+02 -0.10678873161E+03  0.11554849829E+03  0.00000000000E+00 0.  1.
<mgrwt>
<rscale>  0 0.93605866E+02</rscale>
<asrwt>0</asrwt>
<pdfrwt beam="2">  1        1 0.51282345E-01 0.93605866E+02</pdfrwt>
<pdfrwt beam="1">  1       -1 0.10110009E-02 0.93605866E+02</pdfrwt>
<totfact> 0.12182825E+05</totfact>
</mgrwt>
</event>
<event>
 5    1  0.1239369E+001  0.9187998E+02  0.7546771E-02  0.1298362E+00
          3   -1    0    0  501    0  0.00000000000E+00  0.00000000000E+00  0.68358144334E+01  0.68358144334E+01  0.00000000000E+00 0. -1.
         -3   -1    0    0    0  501 -0.00000000000E+00 -0.00000000000E+00 -0.30873905091E+03  0.30873905091E+03  0.00000000000E+00 0.  1.
         23    2    1    2    0    0  0.00000000000E+00  0.00000000000E+00 -0.30190323648E+03  0.31557486535E+03  0.91879983900E+02 0.  0.
        -13    1    3    3    0    0 -0.25478637324E+02  0.37913322297E+02 -0.16774343332E+03  0.17385177707E+03  0.00000000000E+00 0.  1.
         13    1    3    3    0    0  0.25478637324E+02 -0.37913322297E+02 -0.13415980316E+03  0.14172308828E+03  0.00000000000E+00 0. -1.
<mgrwt>
<rscale>  0 0.91879984E+02</rscale>
<asrwt>0</asrwt>
<pdfrwt beam="1">  1        3 0.10516639E-02 0.91879984E+02</pdfrwt>
<pdfrwt beam="2">  1       -3 0.47498311E-01 0.91879984E+02</pdfrwt>
<totfact> 0.22953348E+04</totfact>
</mgrwt>
</event>
<event>
 5    1  0.1239369E+001  0.9038341E+02  0.7546771E-02  0.1301926E+00
         -1   -1    0    0    0  501 -0.00000000000E+00  0.00000000000E+00  0.13627121672E+02  0.13627121672E+02  0.00000000000E+00 0.  1.
          1   -1    0    0  501    0  0.00000000000E+00 -0.00000000000E+00 -0.14986952975E+03  0.14986952975E+03  0.00000000000E+00 0. -1.
         23    2    1    2    0    0  0.00000000000E+00  0.00000000000E+00 -0.13624240808E+03  0.16349665143E+03  0.90383412570E+02 0.  0.
        -11    1    3    3    0    0  0.37691157062E+01 -0.36776810748E+02 -0.21104848155E+02  0.42569409881E+02  0.00000000000E+00 0.  1.
         11    1    3    3    0    0 -0.37691157062E+01  0.36776810748E+02 -0.11513755993E+03  0.12092724155E+03  0.00000000000E+00 0. -1.
<mgrwt>
<rscale>  0 0.90383413E+02</rscale>
<asrwt>0</asrwt>
<pdfrwt beam="2">  1        1 0.23056850E-01 0.90383413E+02</pdfrwt>
<pdfrwt beam="1">  1       -1 0.20964803E-02 0.90383413E+02</pdfrwt>
<totfact> 0.11478689E+05</totfact>
</mgrwt>
</event>
<event>
 5    1  0.1239369E+001  0.9060115E+02  0.7546771E-02  0.1301402E+00
          2   -1    0    0  501    0  0.00000000000E+00  0.00000000000E+00  0.99940498015E+02  0.99940498015E+02  0.00000000000E+00 0. -1.
         -2   -1    0    0    0  501 -0.00000000000E+00 -0.00000000000E+00 -0.20533640154E+02  0.20533640154E+02  0.00000000000E+00 0.  1.
         23    2    1    2    0    0  0.00000000000E+00  0.00000000000E+00  0.79406857862E+02  0.12047413817E+03  0.90601152819E+02 0.  0.
        -11    1    3    3    0    0 -0.29948918984E+02 -0.20138850296E+02  0.32965100114E+01  0.36240557636E+02  0.00000000000E+00 0.  1.
         11    1    3    3    0    0  0.29948918984E+02  0.20138850296E+02  0.76110347850E+02  0.84233580533E+02  0.00000000000E+00 0. -1.
<mgrwt>
<rscale>  0 0.90601153E+02</rscale>
<asrwt>0</asrwt>
<pdfrwt beam="1">  1        2 0.15375461E-01 0.90601153E+02</pdfrwt>
<pdfrwt beam="2">  1       -2 0.31590216E-02 0.90601153E+02</pdfrwt>
<totfact> 0.12480947E+05</totfact>
</mgrwt>
</event>
<event>
 5    1  0.1239369E+001  0.8729139E+02  0.7546771E-02  0.1309547E+00
          2   -1    0    0  501    0  0.00000000000E+00  0.00000000000E+00  0.15441500176E+03  0.15441500176E+03  0.00000000000E+00 0. -1.
         -2   -1    0    0    0  501 -0.00000000000E+00 -0.00000000000E+00 -0.12336538139E+02  0.12336538139E+02  0.00000000000E+00 0.  1.
         23    2    1    2    0    0  0.00000000000E+00  0.00000000000E+00  0.14207846363E+03  0.16675153990E+03  0.87291386941E+02 0.  0.
        -11    1    3    3    0    0  0.42047646105E+02 -0.94575924078E+00  0.48757762313E+02  0.64391135953E+02  0.00000000000E+00 0. -1.
         11    1    3    3    0    0 -0.42047646105E+02  0.94575924078E+00  0.93320701313E+02  0.10236040395E+03  0.00000000000E+00 0.  1.
<mgrwt>
<rscale>  0 0.87291387E+02</rscale>
<asrwt>0</asrwt>
<pdfrwt beam="1">  1        2 0.23756153E-01 0.87291387E+02</pdfrwt>
<pdfrwt beam="2">  1       -2 0.18979290E-02 0.87291387E+02</pdfrwt>
<totfact> 0.15883385E+05</totfact>
</mgrwt>
</event>
<event>
 5    1  0.1239369E+001  0.9066370E+02  0.7546771E-02  0.1301252E+00
          1   -1    0    0  501    0  0.00000000000E+00  0.00000000000E+00  0.31360154380E+03  0.31360154380E+03  0.00000000000E+00 0. -1.
         -1   -1    0    0    0  501 -0.00000000000E+00 -0.00000000000E+00 -0.65528262548E+01  0.65528262548E+01  0.00000000000E+00 0.  1.
         23    2    1    2    0    0  0.00000000000E+00  0.00000000000E+00  0.30704871755E+03  0.32015437006E+03  0.90663695706E+02 0.  0.
        -13    1    3    3    0    0  0.40399176251E+02  0.16392827775E+02  0.10968044538E+03  0.11802804050E+03  0.00000000000E+00 0.  1.
         13    1    3    3    0    0 -0.40399176251E+02 -0.16392827775E+02  0.19736827216E+03  0.20212632956E+03  0.00000000000E+00 0. -1.
<mgrwt>
<rscale>  0 0.90663696E+02</rscale>
<asrwt>0</asrwt>
<pdfrwt beam="1">  1        1 0.48246380E-01 0.90663696E+02</pdfrwt>
<pdfrwt beam="2">  1       -1 0.10081274E-02 0.90663696E+02</pdfrwt>
<totfact> 0.13115733E+05</totfact>
</mgrwt>
</event>
<event>
 5    1  0.1239369E+001  0.9166369E+02  0.7546771E-02  0.1298872E+00
         -3   -1    0    0    0  501 -0.00000000000E+00  0.00000000000E+00  0.46816690308E+02  0.46816690308E+02  0.00000000000E+00 0.  1.
          3   -1    0    0  501    0  0.00000000000E+00 -0.00000000000E+00 -0.44867714986E+02  0.44867714986E+02  0.00000000000E+00 0. -1.
         23    2    1    2    0    0  0.00000000000E+00  0.00000000000E+00  0.19489753219E+01  0.91684405294E+02  0.91663687845E+02 0.  0.
        -11    1    3    3    0    0 -0.86988117605E+00  0.23540936637E+02  0.40297817595E+02  0.46678115793E+02  0.00000000000E+00 0.  1.
         11    1    3    3    0    0  0.86988117605E+00 -0.23540936637E+02 -0.38348842273E+02  0.45006289502E+02  0.00000000000E+00 0. -1.
<mgrwt>
<rscale>  0 0.91663688E+02</rscale>
<asrwt>0</asrwt>
<pdfrwt beam="2">  1        3 0.69027253E-02 0.91663688E+02</pdfrwt>
<pdfrwt beam="1">  1       -3 0.72025678E-02 0.91663688E+02</pdfrwt>
<totfact> 0.34790060E+04</totfact>
</mgrwt>
</event>
<event>
 5    1  0.1239369E+001  0.9130271E+02  0.7546771E-02  0.1299727E+00
         -1   -1    0    0    0  501 -0.00000000000E+00  0.00000000000E+00  0.22345294297E+03  0.22345294297E+03  0.00000000000E+00 0.  1.
          1   -1    0    0  501    0  0.00000000000E+00 -0.00000000000E+00 -0.93265553537E+01  0.93265553537E+01  0.00000000000E+00 0. -1.
         23    2    1    2    0    0  0.00000000000E+00  0.00000000000E+00  0.21412638762E+03  0.23277949832E+03  0.91302710619E+02 0.  0.
        -13    1    3    3    0    0 -0.65871857301E+01 -0.36758802831E+02  0.17400710333E+03  0.17796930244E+03  0.00000000000E+00 0.  1.
         13    1    3    3    0    0  0.65871857301E+01  0.36758802831E+02  0.40119284291E+02  0.54810195889E+02  0.00000000000E+00 0. -1.
<mgrwt>
<rscale>  0 0.91302711E+02</rscale>
<asrwt>0</asrwt>
<pdfrwt beam="2">  1        1 0.14348548E-02 0.91302711E+02</pdfrwt>
<pdfrwt beam="1">  1       -1 0.34377372E-01 0.91302711E+02</pdfrwt>
<totfact> 0.66925954E+04</totfact>
</mgrwt>
</event>
<event>
 5    1  0.1239369E+001  0.9192542E+02  0.7546771E-02  0.1298255E+00
         -3   -1    0    0    0  501 -0.00000000000E+00  0.00000000000E+00  0.18375235024E+02  0.18375235024E+02  0.00000000000E+00 0. -1.
          3   -1    0    0  501    0  0.00000000000E+00 -0.00000000000E+00 -0.11496835226E+03  0.11496835226E+03  0.00000000000E+00 0.  1.
         23    2    1    2    0    0  0.00000000000E+00  0.00000000000E+00 -0.96593117233E+02  0.13334358728E+03  0.91925415268E+02 0.  0.
        -13    1    3    3    0    0 -0.46159544854E+01 -0.34528222455E+02 -0.48022777194E+01  0.35164855367E+02  0.00000000000E+00 0.  1.
         13    1    3    3    0    0  0.46159544854E+01  0.34528222455E+02 -0.91790839514E+02  0.98178731915E+02  0.00000000000E+00 0. -1.
<mgrwt>
<rscale>  0 0.91925415E+02</rscale>
<asrwt>0</asrwt>
<pdfrwt beam="2">  1        3 0.17687439E-01 0.91925415E+02</pdfrwt>
<pdfrwt beam="1">  1       -3 0.28269592E-02 0.91925415E+02</pdfrwt>
<totfact> 0.31646185E+04</totfact>
</mgrwt>
</event>
<event>
 5    1  0.1239369E+001  0.8765158E+02  0.7546771E-02  0.1308640E+00
         -2   -1    0    0    0  501 -0.00000000000E+00  0.00000000000E+00  0.26104420163E+02  0.26104420163E+02  0.00000000000E+00 0.  1.
          2   -1    0    0  501    0  0.00000000000E+00 -0.00000000000E+00 -0.73577565022E+02  0.73577565022E+02  0.00000000000E+00 0. -1.
         23    2    1    2    0    0  0.00000000000E+00  0.00000000000E+00 -0.47473144859E+02  0.99681985185E+02  0.87651575500E+02 0.  0.
        -11    1    3    3    0    0  0.11526922089E+02  0.83257929477E+01  0.23408151681E+02  0.27388507192E+02  0.00000000000E+00 0.  1.
         11    1    3    3    0    0 -0.11526922089E+02 -0.83257929477E+01 -0.70881296541E+02  0.72293477993E+02  0.00000000000E+00 0. -1.
<mgrwt>
<rscale>  0 0.87651575E+02</rscale>
<asrwt>0</asrwt>
<pdfrwt beam="2">  1        2 0.11319625E-01 0.87651575E+02</pdfrwt>
<pdfrwt beam="1">  1       -2 0.40160646E-02 0.87651575E+02</pdfrwt>
<totfact> 0.12515731E+05</totfact>
</mgrwt>
</event>
<event>
 5    1  0.1239369E+001  0.9122910E+02  0.7546771E-02  0.1299902E+00
         -2   -1    0    0    0  501 -0.00000000000E+00  0.00000000000E+00  0.10035757081E+02  0.10035757081E+02  0.00000000000E+00 0.  1.
          2   -1    0    0  501    0  0.00000000000E+00 -0.00000000000E+00 -0.20732736285E+03  0.20732736285E+03  0.00000000000E+00 0. -1.
         23    2    1    2    0    0  0.00000000000E+00  0.00000000000E+00 -0.19729160577E+03  0.21736311993E+03  0.91229097326E+02 0.  0.
        -11    1    3    3    0    0 -0.42566518216E+02  0.16106162525E+02 -0.91352492116E+02  0.10206172035E+03  0.00000000000E+00 0.  1.
         11    1    3    3    0    0  0.42566518216E+02 -0.16106162525E+02 -0.10593911365E+03  0.11530139958E+03  0.00000000000E+00 0. -1.
<mgrwt>
<rscale>  0 0.91229097E+02</rscale>
<asrwt>0</asrwt>
<pdfrwt beam="2">  1        2 0.31896514E-01 0.91229097E+02</pdfrwt>
<pdfrwt beam="1">  1       -2 0.15439628E-02 0.91229097E+02</pdfrwt>
<totfact> 0.15646922E+05</totfact>
</mgrwt>
</event>
<event>
 5    1  0.1239369E+001  0.9016935E+02  0.7546771E-02  0.1302442E+00
         -1   -1    0    0    0  501 -0.00000000000E+00  0.00000000000E+00  0.88447942929E+01  0.88447942929E+01  0.00000000000E+00 0.  1.
          1   -1    0    0  501    0  0.00000000000E+00 -0.00000000000E+00 -0.22981063386E+03  0.22981063386E+03  0.00000000000E+00 0. -1.
         23    2    1    2    0    0  0.00000000000E+00  0.00000000000E+00 -0.22096583957E+03  0.23865542815E+03  0.90169346961E+02 0.  0.
        -11    1    3    3    0    0 -0.23041286736E+02 -0.25443583650E+02 -0.33120411356E+02  0.47699460079E+02  0.00000000000E+00 0.  1.
         11    1    3    3    0    0  0.23041286736E+02  0.25443583650E+02 -0.18784542821E+03  0.19095596808E+03  0.00000000000E+00 0. -1.
<mgrwt>
<rscale>  0 0.90169347E+02</rscale>
<asrwt>0</asrwt>
<pdfrwt beam="2">  1        1 0.35355482E-01 0.90169347E+02</pdfrwt>
<pdfrwt beam="1">  1       -1 0.13607376E-02 0.90169347E+02</pdfrwt>
<totfact> 0.12532161E+05</totfact>
</mgrwt>
</event>
<event>
 5    1  0.1239369E+001  0.8684594E+02  0.7546771E-02  0.1310675E+00
         -1   -1    0    0    0  501 -0.00000000000E+00  0.00000000000E+00  0.16651346561E+02  0.16651346561E+02  0.00000000000E+00 0.  1.
          1   -1    0    0  501    0  0.00000000000E+00 -0.00000000000E+00 -0.11323734519E+03  0.11323734519E+03  0.00000000000E+00 0. -1.
         23    2    1    2    0    0  0.00000000000E+00  0.00000000000E+00 -0.96585998632E+02  0.12988869175E+03  0.86845938959E+02 0.  0.
        -11    1    3    3    0    0 -0.30563359091E+02 -0.22792668309E+02 -0.79376385676E+02  0.88058135630E+02  0.00000000000E+00 0. -1.
         11    1    3    3    0    0  0.30563359091E+02  0.22792668309E+02 -0.17209612956E+02  0.41830556124E+02  0.00000000000E+00 0.  1.
<mgrwt>
<rscale>  0 0.86845939E+02</rscale>
<asrwt>0</asrwt>
<pdfrwt beam="2">  1        1 0.17421130E-01 0.86845939E+02</pdfrwt>
<pdfrwt beam="1">  1       -1 0.25617456E-02 0.86845939E+02</pdfrwt>
<totfact> 0.12167929E+05</totfact>
</mgrwt>
</event>
<event>
 5    1  0.1239369E+001  0.6232392E+02  0.7546771E-02  0.1388330E+00
          1   -1    0    0  501    0  0.00000000000E+00  0.00000000000E+00  0.18179361671E+03  0.18179361671E+03  0.00000000000E+00 0.  1.
         -1   -1    0    0    0  501 -0.00000000000E+00 -0.00000000000E+00 -0.53415938612E+01  0.53415938612E+01  0.00000000000E+00 0. -1.
         23    2    1    2    0    0  0.00000000000E+00  0.00000000000E+00  0.17645202285E+03  0.18713521058E+03  0.62323917304E+02 0.  0.
        -11    1    3    3    0    0 -0.27843221121E+02 -0.13822903507E+02  0.81681917071E+02  0.87397100639E+02  0.00000000000E+00 0.  1.
         11    1    3    3    0    0  0.27843221121E+02  0.13822903507E+02  0.94770105783E+02  0.99738109937E+02  0.00000000000E+00 0. -1.
<mgrwt>
<rscale>  0 0.62323917E+02</rscale>
<asrwt>0</asrwt>
<pdfrwt beam="1">  1        1 0.27968244E-01 0.62323917E+02</pdfrwt>
<pdfrwt beam="2">  1       -1 0.82178381E-03 0.62323917E+02</pdfrwt>
<totfact> 0.31604279E+05</totfact>
</mgrwt>
</event>
<event>
 5    1  0.1239369E+001  0.9106029E+02  0.7546771E-02  0.1300304E+00
         -1   -1    0    0    0  501 -0.00000000000E+00  0.00000000000E+00  0.18866509016E+03  0.18866509016E+03  0.00000000000E+00 0.  1.
          1   -1    0    0  501    0  0.00000000000E+00 -0.00000000000E+00 -0.10987694234E+02  0.10987694234E+02  0.00000000000E+00 0. -1.
         23    2    1    2    0    0  0.00000000000E+00  0.00000000000E+00  0.17767739592E+03  0.19965278439E+03  0.91060294822E+02 0.  0.
        -11    1    3    3    0    0  0.42079968221E+02  0.89804179804E+01  0.56198451389E+02  0.70778793230E+02  0.00000000000E+00 0.  1.
         11    1    3    3    0    0 -0.42079968221E+02 -0.89804179804E+01  0.12147894453E+03  0.12887399116E+03  0.00000000000E+00 0. -1.
<mgrwt>
<rscale>  0 0.91060295E+02</rscale>
<asrwt>0</asrwt>
<pdfrwt beam="2">  1        1 0.16904146E-02 0.91060295E+02</pdfrwt>
<pdfrwt beam="1">  1       -1 0.29025396E-01 0.91060295E+02</pdfrwt>
<totfact> 0.70804136E+04</totfact>
</mgrwt>
</event>
<event>
 5    1  0.1239369E+001  0.9035466E+02  0.7546771E-02  0.1301995E+00
          3   -1    0    0  501    0  0.00000000000E+00  0.00000000000E+00  0.27636153646E+03  0.27636153646E+03  0.00000000000E+00 0. -1.
         -3   -1    0    0    0  501 -0.00000000000E+00 -0.00000000000E+00 -0.73852215824E+01  0.73852215824E+01  0.00000000000E+00 0.  1.
         23    2    1    2    0    0  0.00000000000E+00  0.00000000000E+00  0.26897631488E+03  0.28374675805E+03  0.90354660835E+02 0.  0.
        -13    1    3    3    0    0  0.17739678052E+02 -0.32304825976E+02  0.21654090812E+03  0.21965487213E+03  0.00000000000E+00 0. -1.
         13    1    3    3    0    0 -0.17739678052E+02  0.32304825976E+02  0.52435406762E+02  0.64091885922E+02  0.00000000000E+00 0.  1.
<mgrwt>
<rscale>  0 0.90354661E+02</rscale>
<asrwt>0</asrwt>
<pdfrwt beam="1">  1        3 0.42517152E-01 0.90354661E+02</pdfrwt>
<pdfrwt beam="2">  1       -3 0.11361881E-02 0.90354661E+02</pdfrwt>
<totfact> 0.25280672E+04</totfact>
</mgrwt>
</event>
<event>
 5    1  0.1239369E+001  0.8808803E+02  0.7546771E-02  0.1307549E+00
          1   -1    0    0  501    0  0.00000000000E+00  0.00000000000E+00  0.23542813304E+02  0.23542813304E+02  0.00000000000E+00 0. -1.
         -1   -1    0    0    0  501 -0.00000000000E+00 -0.00000000000E+00 -0.82397760556E+02  0.82397760556E+02  0.00000000000E+00 0.  1.
         23    2    1    2    0    0  0.00000000000E+00  0.00000000000E+00 -0.58854947252E+02  0.10594057386E+03  0.88088026280E+02 0.  0.
        -11    1    3    3    0    0 -0.27846467603E+02  0.26060682994E+02 -0.55921390812E+02  0.67688897956E+02  0.00000000000E+00 0.  1.
         11    1    3    3    0    0  0.27846467603E+02 -0.26060682994E+02 -0.29335564397E+01  0.38251675904E+02  0.00000000000E+00 0. -1.
<mgrwt>
<rscale>  0 0.88088026E+02</rscale>
<asrwt>0</asrwt>
<pdfrwt beam="1">  1        1 0.36219713E-02 0.88088026E+02</pdfrwt>
<pdfrwt beam="2">  1       -1 0.12676578E-01 0.88088026E+02</pdfrwt>
<totfact> 0.91991364E+04</totfact>
</mgrwt>
</event>
<event>
 5    1  0.1239369E+001  0.8971193E+02  0.7546771E-02  0.1303551E+00
         -1   -1    0    0    0  501 -0.00000000000E+00  0.00000000000E+00  0.17122051510E+03  0.17122051510E+03  0.00000000000E+00 0.  1.
          1   -1    0    0  501    0  0.00000000000E+00 -0.00000000000E+00 -0.11751264330E+02  0.11751264330E+02  0.00000000000E+00 0. -1.
         23    2    1    2    0    0  0.00000000000E+00  0.00000000000E+00  0.15946925077E+03  0.18297177943E+03  0.89711928561E+02 0.  0.
        -11    1    3    3    0    0  0.34335686040E+02 -0.14837569513E+02  0.29239243555E+02  0.47476585477E+02  0.00000000000E+00 0. -1.
         11    1    3    3    0    0 -0.34335686040E+02  0.14837569513E+02  0.13023000721E+03  0.13549519395E+03  0.00000000000E+00 0.  1.
<mgrwt>
<rscale>  0 0.89711929E+02</rscale>
<asrwt>0</asrwt>
<pdfrwt beam="2">  1        1 0.18078869E-02 0.89711929E+02</pdfrwt>
<pdfrwt beam="1">  1       -1 0.26341616E-01 0.89711929E+02</pdfrwt>
<totfact> 0.75517082E+04</totfact>
</mgrwt>
</event>
<event>
 5    1  0.1239369E+001  0.9188925E+02  0.7546771E-02  0.1298340E+00
          2   -1    0    0  501    0  0.00000000000E+00  0.00000000000E+00  0.15308464419E+03  0.15308464419E+03  0.00000000000E+00 0.  1.
         -2   -1    0    0    0  501 -0.00000000000E+00 -0.00000000000E+00 -0.13789159483E+02  0.13789159483E+02  0.00000000000E+00 0. -1.
         23    2    1    2    0    0  0.00000000000E+00  0.00000000000E+00  0.13929548471E+03  0.16687380368E+03  0.91889250149E+02 0.  0.
        -13    1    3    3    0    0  0.17998320726E+02 -0.40857740332E+02  0.89342612158E+02  0.99876908448E+02  0.00000000000E+00 0.  1.
         13    1    3    3    0    0 -0.17998320726E+02  0.40857740332E+02  0.49952872552E+02  0.66996895228E+02  0.00000000000E+00 0. -1.
<mgrwt>
<rscale>  0 0.91889250E+02</rscale>
<asrwt>0</asrwt>
<pdfrwt beam="1">  1        2 0.23551483E-01 0.91889250E+02</pdfrwt>
<pdfrwt beam="2">  1       -2 0.21214093E-02 0.91889250E+02</pdfrwt>
<totfact> 0.13783844E+05</totfact>
</mgrwt>
</event>
<event>
 5    1  0.1239369E+001  0.9453844E+02  0.7546771E-02  0.1292219E+00
         -1   -1    0    0    0  501 -0.00000000000E+00  0.00000000000E+00  0.72370762589E+02  0.72370762589E+02  0.00000000000E+00 0.  1.
          1   -1    0    0  501    0  0.00000000000E+00 -0.00000000000E+00 -0.30874061433E+02  0.30874061433E+02  0.00000000000E+00 0. -1.
         23    2    1    2    0    0  0.00000000000E+00  0.00000000000E+00  0.41496701156E+02  0.10324482402E+03  0.94538444457E+02 0.  0.
        -11    1    3    3    0    0  0.34097076355E+02 -0.14410435799E+02  0.52851221521E+02  0.64525366269E+02  0.00000000000E+00 0.  1.
         11    1    3    3    0    0 -0.34097076355E+02  0.14410435799E+02 -0.11354520365E+02  0.38719457752E+02  0.00000000000E+00 0. -1.
<mgrwt>
<rscale>  0 0.94538444E+02</rscale>
<asrwt>0</asrwt>
<pdfrwt beam="2">  1        1 0.47498556E-02 0.94538444E+02</pdfrwt>
<pdfrwt beam="1">  1       -1 0.11133963E-01 0.94538444E+02</pdfrwt>
<totfact> 0.78466490E+04</totfact>
</mgrwt>
</event>
<event>
 5    1  0.1239369E+001  0.9392985E+02  0.7546771E-02  0.1293605E+00
          1   -1    0    0  501    0  0.00000000000E+00  0.00000000000E+00  0.65780954033E+02  0.65780954033E+02  0.00000000000E+00 0. -1.
         -1   -1    0    0    0  501 -0.00000000000E+00 -0.00000000000E+00 -0.33531044120E+02  0.33531044120E+02  0.00000000000E+00 0.  1.
         23    2    1    2    0    0  0.00000000000E+00  0.00000000000E+00  0.32249909914E+02  0.99311998153E+02  0.93929847694E+02 0.  0.
        -13    1    3    3    0    0 -0.46029727966E+02  0.43670681297E+01  0.24837061439E+02  0.52485109903E+02  0.00000000000E+00 0. -1.
         13    1    3    3    0    0  0.46029727966E+02 -0.43670681297E+01  0.74128484749E+01  0.46826888250E+02  0.00000000000E+00 0.  1.
<mgrwt>
<rscale>  0 0.93929848E+02</rscale>
<asrwt>0</asrwt>
<pdfrwt beam="1">  1        1 0.10120147E-01 0.93929848E+02</pdfrwt>
<pdfrwt beam="2">  1       -1 0.51586222E-02 0.93929848E+02</pdfrwt>
<totfact> 0.89991996E+04</totfact>
</mgrwt>
</event>
<event>
 5    1  0.1239369E+001  0.9208285E+02  0.7546771E-02  0.1297885E+00
          1   -1    0    0  501    0  0.00000000000E+00  0.00000000000E+00  0.99914966398E+01  0.99914966398E+01  0.00000000000E+00 0. -1.
         -1   -1    0    0    0  501 -0.00000000000E+00 -0.00000000000E+00 -0.21216167586E+03  0.21216167586E+03  0.00000000000E+00 0.  1.
         23    2    1    2    0    0  0.00000000000E+00  0.00000000000E+00 -0.20217017922E+03  0.22215317250E+03  0.92082846861E+02 0.  0.
        -11    1    3    3    0    0  0.24671588076E+02  0.23208555105E+02 -0.17631940843E+03  0.17954347127E+03  0.00000000000E+00 0.  1.
         11    1    3    3    0    0 -0.24671588076E+02 -0.23208555105E+02 -0.25850770795E+02  0.42609701231E+02  0.00000000000E+00 0. -1.
<mgrwt>
<rscale>  0 0.92082847E+02</rscale>
<asrwt>0</asrwt>
<pdfrwt beam="1">  1        1 0.15371534E-02 0.92082847E+02</pdfrwt>
<pdfrwt beam="2">  1       -1 0.32640257E-01 0.92082847E+02</pdfrwt>
<totfact> 0.66498257E+04</totfact>
</mgrwt>
</event>
<event>
 5    1  0.1239369E+001  0.9006460E+02  0.7546771E-02  0.1302695E+00
          1   -1    0    0  501    0  0.00000000000E+00  0.00000000000E+00  0.31621923795E+02  0.31621923795E+02  0.00000000000E+00 0. -1.
         -1   -1    0    0    0  501 -0.00000000000E+00 -0.00000000000E+00 -0.64129814329E+02  0.64129814329E+02  0.00000000000E+00 0.  1.
         23    2    1    2    0    0  0.00000000000E+00  0.00000000000E+00 -0.32507890534E+02  0.95751738124E+02  0.90064601297E+02 0.  0.
        -13    1    3    3    0    0 -0.12051391389E+02 -0.19383463011E+00 -0.62383104747E+02  0.63536803226E+02  0.00000000000E+00 0.  1.
         13    1    3    3    0    0  0.12051391389E+02  0.19383463011E+00  0.29875214213E+02  0.32214934899E+02  0.00000000000E+00 0. -1.
<mgrwt>
<rscale>  0 0.90064601E+02</rscale>
<asrwt>0</asrwt>
<pdfrwt beam="1">  1        1 0.48649113E-02 0.90064601E+02</pdfrwt>
<pdfrwt beam="2">  1       -1 0.98661253E-02 0.90064601E+02</pdfrwt>
<totfact> 0.90537687E+04</totfact>
</mgrwt>
</event>
<event>
 5    1  0.1239369E+001  0.9134048E+02  0.7546771E-02  0.1299638E+00
          2   -1    0    0  501    0  0.00000000000E+00  0.00000000000E+00  0.75522948245E+02  0.75522948245E+02  0.00000000000E+00 0. -1.
         -2   -1    0    0    0  501 -0.00000000000E+00 -0.00000000000E+00 -0.27617711766E+02  0.27617711766E+02  0.00000000000E+00 0.  1.
         23    2    1    2    0    0  0.00000000000E+00  0.00000000000E+00  0.47905236479E+02  0.10314066001E+03  0.91340484263E+02 0.  0.
        -13    1    3    3    0    0 -0.78665152608E+01 -0.19083057227E+02 -0.22050236132E+02  0.30203609866E+02  0.00000000000E+00 0.  1.
         13    1    3    3    0    0  0.78665152608E+01  0.19083057227E+02  0.69955472611E+02  0.72937050144E+02  0.00000000000E+00 0. -1.
<mgrwt>
<rscale>  0 0.91340484E+02</rscale>
<asrwt>0</asrwt>
<pdfrwt beam="1">  1        2 0.11618915E-01 0.91340484E+02</pdfrwt>
<pdfrwt beam="2">  1       -2 0.42488788E-02 0.91340484E+02</pdfrwt>
<totfact> 0.11242889E+05</totfact>
</mgrwt>
</event>
<event>
 5    1  0.1239369E+001  0.9359507E+02  0.7546771E-02  0.1294372E+00
          3   -1    0    0  501    0  0.00000000000E+00  0.00000000000E+00  0.30009832732E+02  0.30009832732E+02  0.00000000000E+00 0. -1.
         -3   -1    0    0    0  501 -0.00000000000E+00 -0.00000000000E+00 -0.72976391344E+02  0.72976391344E+02  0.00000000000E+00 0.  1.
         23    2    1    2    0    0  0.00000000000E+00  0.00000000000E+00 -0.42966558612E+02  0.10298622408E+03  0.93595070332E+02 0.  0.
        -13    1    3    3    0    0 -0.89322481097E+01 -0.14932335461E+02 -0.69284702956E+02  0.71436193644E+02  0.00000000000E+00 0.  1.
         13    1    3    3    0    0  0.89322481097E+01  0.14932335461E+02  0.26318144344E+02  0.31550030432E+02  0.00000000000E+00 0. -1.
<mgrwt>
<rscale>  0 0.93595070E+02</rscale>
<asrwt>0</asrwt>
<pdfrwt beam="1">  1        3 0.46168974E-02 0.93595070E+02</pdfrwt>
<pdfrwt beam="2">  1       -3 0.11227137E-01 0.93595070E+02</pdfrwt>
<totfact> 0.32076659E+04</totfact>
</mgrwt>
</event>
<event>
 5    1  0.1239369E+001  0.8634401E+02  0.7546771E-02  0.1311955E+00
         -2   -1    0    0    0  501 -0.00000000000E+00  0.00000000000E+00  0.44498014350E+02  0.44498014350E+02  0.00000000000E+00 0.  1.
          2   -1    0    0  501    0  0.00000000000E+00 -0.00000000000E+00 -0.41885507513E+02  0.41885507513E+02  0.00000000000E+00 0. -1.
         23    2    1    2    0    0  0.00000000000E+00  0.00000000000E+00  0.26125068368E+01  0.86383521863E+02  0.86344007652E+02 0.  0.
        -11    1    3    3    0    0 -0.28856733913E+02  0.89255173242E+01 -0.29553380340E+02  0.42258469461E+02  0.00000000000E+00 0. -1.
         11    1    3    3    0    0  0.28856733913E+02 -0.89255173242E+01  0.32165887177E+02  0.44125052402E+02  0.00000000000E+00 0.  1.
<mgrwt>
<rscale>  0 0.86344008E+02</rscale>
<asrwt>0</asrwt>
<pdfrwt beam="2">  1        2 0.64439243E-02 0.86344008E+02</pdfrwt>
<pdfrwt beam="1">  1       -2 0.68458483E-02 0.86344008E+02</pdfrwt>
<totfact> 0.11285267E+05</totfact>
</mgrwt>
</event>
<event>
 5    1  0.1239369E+001  0.9318576E+02  0.7546771E-02  0.1295315E+00
         -2   -1    0    0    0  501 -0.00000000000E+00  0.00000000000E+00  0.14678503284E+02  0.14678503284E+02  0.00000000000E+00 0. -1.
          2   -1    0    0  501    0  0.00000000000E+00 -0.00000000000E+00 -0.14789631632E+03  0.14789631632E+03  0.00000000000E+00 0.  1.
         23    2    1    2    0    0  0.00000000000E+00  0.00000000000E+00 -0.13321781303E+03  0.16257481960E+03  0.93185762106E+02 0.  0.
        -13    1    3    3    0    0  0.10202698890E+02  0.44317388475E+02 -0.84295252676E+02  0.95780037637E+02  0.00000000000E+00 0. -1.
         13    1    3    3    0    0 -0.10202698890E+02 -0.44317388475E+02 -0.48922560357E+02  0.66794781966E+02  0.00000000000E+00 0.  1.
<mgrwt>
<rscale>  0 0.93185762E+02</rscale>
<asrwt>0</asrwt>
<pdfrwt beam="2">  1        2 0.22753280E-01 0.93185762E+02</pdfrwt>
<pdfrwt beam="1">  1       -2 0.22582313E-02 0.93185762E+02</pdfrwt>
<totfact> 0.13112814E+05</totfact>
</mgrwt>
</event>
<event>
 5    1  0.1239369E+001  0.9141947E+02  0.7546771E-02  0.1299450E+00
         -1   -1    0    0    0  501 -0.00000000000E+00  0.00000000000E+00  0.26206121935E+02  0.26206121935E+02  0.00000000000E+00 0.  1.
          1   -1    0    0  501    0  0.00000000000E+00 -0.00000000000E+00 -0.79728685304E+02  0.79728685304E+02  0.00000000000E+00 0. -1.
         23    2    1    2    0    0  0.00000000000E+00  0.00000000000E+00 -0.53522563368E+02  0.10593480724E+03  0.91419465078E+02 0.  0.
        -13    1    3    3    0    0 -0.13706084933E+02 -0.19463046232E+02  0.18456472871E+02  0.30121559117E+02  0.00000000000E+00 0.  1.
         13    1    3    3    0    0  0.13706084933E+02  0.19463046232E+02 -0.71979036239E+02  0.75813248122E+02  0.00000000000E+00 0. -1.
<mgrwt>
<rscale>  0 0.91419465E+02</rscale>
<asrwt>0</asrwt>
<pdfrwt beam="2">  1        1 0.12265952E-01 0.91419465E+02</pdfrwt>
<pdfrwt beam="1">  1       -1 0.40317111E-02 0.91419465E+02</pdfrwt>
<totfact> 0.99957455E+04</totfact>
</mgrwt>
</event>
<event>
 5    1  0.1239369E+001  0.9080569E+02  0.7546771E-02  0.1300912E+00
          2   -1    0    0  501    0  0.00000000000E+00  0.00000000000E+00  0.57760914139E+02  0.57760914139E+02  0.00000000000E+00 0. -1.
         -2   -1    0    0    0  501 -0.00000000000E+00 -0.00000000000E+00 -0.35688808731E+02  0.35688808731E+02  0.00000000000E+00 0.  1.
         23    2    1    2    0    0  0.00000000000E+00  0.00000000000E+00  0.22072105407E+02  0.93449722870E+02  0.90805687418E+02 0.  0.
        -13    1    3    3    0    0  0.19242825326E+01  0.18275604837E+02 -0.31690517106E+02  0.36633174445E+02  0.00000000000E+00 0.  1.
         13    1    3    3    0    0 -0.19242825326E+01 -0.18275604837E+02  0.53762622514E+02  0.56816548425E+02  0.00000000000E+00 0. -1.
<mgrwt>
<rscale>  0 0.90805687E+02</rscale>
<asrwt>0</asrwt>
<pdfrwt beam="1">  1        2 0.88862945E-02 0.90805687E+02</pdfrwt>
<pdfrwt beam="2">  1       -2 0.54905860E-02 0.90805687E+02</pdfrwt>
<totfact> 0.10621302E+05</totfact>
</mgrwt>
</event>
<event>
 5    1  0.1239369E+001  0.8994428E+02  0.7546771E-02  0.1302987E+00
         -1   -1    0    0    0  501 -0.00000000000E+00  0.00000000000E+00  0.17222911272E+02  0.17222911272E+02  0.00000000000E+00 0.  1.
          1   -1    0    0  501    0  0.00000000000E+00 -0.00000000000E+00 -0.11743040716E+03  0.11743040716E+03  0.00000000000E+00 0. -1.
         23    2    1    2    0    0  0.00000000000E+00  0.00000000000E+00 -0.10020749589E+03  0.13465331843E+03  0.89944282380E+02 0.  0.
        -11    1    3    3    0    0 -0.24473338298E+02  0.13585962172E+02  0.25918139786E+01  0.28111210491E+02  0.00000000000E+00 0.  1.
         11    1    3    3    0    0  0.24473338298E+02 -0.13585962172E+02 -0.10279930987E+03  0.10654210794E+03  0.00000000000E+00 0. -1.
<mgrwt>
<rscale>  0 0.89944282E+02</rscale>
<asrwt>0</asrwt>
<pdfrwt beam="2">  1        1 0.18066217E-01 0.89944282E+02</pdfrwt>
<pdfrwt beam="1">  1       -1 0.26496786E-02 0.89944282E+02</pdfrwt>
<totfact> 0.11136750E+05</totfact>
</mgrwt>
</event>
<event>
 5    1  0.1239369E+001  0.8841805E+02  0.7546771E-02  0.1306728E+00
          1   -1    0    0  501    0  0.00000000000E+00  0.00000000000E+00  0.66251888276E+02  0.66251888276E+02  0.00000000000E+00 0. -1.
         -1   -1    0    0    0  501 -0.00000000000E+00 -0.00000000000E+00 -0.29500110138E+02  0.29500110138E+02  0.00000000000E+00 0.  1.
         23    2    1    2    0    0  0.00000000000E+00  0.00000000000E+00  0.36751778138E+02  0.95751998414E+02  0.88418052478E+02 0.  0.
        -11    1    3    3    0    0 -0.10837472277E+02 -0.13279954131E+02 -0.25755067736E+02  0.30937541938E+02  0.00000000000E+00 0.  1.
         11    1    3    3    0    0  0.10837472277E+02  0.13279954131E+02  0.62506845875E+02  0.64814456476E+02  0.00000000000E+00 0. -1.
<mgrwt>
<rscale>  0 0.88418052E+02</rscale>
<asrwt>0</asrwt>
<pdfrwt beam="1">  1        1 0.10192598E-01 0.88418052E+02</pdfrwt>
<pdfrwt beam="2">  1       -1 0.45384785E-02 0.88418052E+02</pdfrwt>
<totfact> 0.10647766E+05</totfact>
</mgrwt>
</event>
<event>
 5    1  0.1239369E+001  0.9099930E+02  0.7546771E-02  0.1300450E+00
          2   -1    0    0  501    0  0.00000000000E+00  0.00000000000E+00  0.26371517694E+03  0.26371517694E+03  0.00000000000E+00 0. -1.
         -2   -1    0    0    0  501 -0.00000000000E+00 -0.00000000000E+00 -0.78502045423E+01  0.78502045423E+01  0.00000000000E+00 0.  1.
         23    2    1    2    0    0  0.00000000000E+00  0.00000000000E+00  0.25586497239E+03  0.27156538148E+03  0.90999298456E+02 0.  0.
        -11    1    3    3    0    0 -0.10881914042E+02 -0.40296151146E+02  0.18198152813E+03  0.18670691586E+03  0.00000000000E+00 0. -1.
         11    1    3    3    0    0  0.10881914042E+02  0.40296151146E+02  0.73883444265E+02  0.84858465617E+02  0.00000000000E+00 0.  1.
<mgrwt>
<rscale>  0 0.90999298E+02</rscale>
<asrwt>0</asrwt>
<pdfrwt beam="1">  1        2 0.40571559E-01 0.90999298E+02</pdfrwt>
<pdfrwt beam="2">  1       -2 0.12077240E-02 0.90999298E+02</pdfrwt>
<totfact> 0.17212077E+05</totfact>
</mgrwt>
</event>
<event>
 5    1  0.1239369E+001  0.9037604E+02  0.7546771E-02  0.1301944E+00
         -1   -1    0    0    0  501 -0.00000000000E+00  0.00000000000E+00  0.19947861004E+02  0.19947861004E+02  0.00000000000E+00 0.  1.
          1   -1    0    0  501    0  0.00000000000E+00 -0.00000000000E+00 -0.10236472156E+03  0.10236472156E+03  0.00000000000E+00 0. -1.
         23    2    1    2    0    0  0.00000000000E+00  0.00000000000E+00 -0.82416860554E+02  0.12231258256E+03  0.90376041901E+02 0.  0.
        -11    1    3    3    0    0  0.44430500391E+02 -0.50723057577E+01 -0.32420917053E+02  0.55235075027E+02  0.00000000000E+00 0.  1.
         11    1    3    3    0    0 -0.44430500391E+02  0.50723057577E+01 -0.49995943502E+02  0.67077507536E+02  0.00000000000E+00 0. -1.
<mgrwt>
<rscale>  0 0.90376042E+02</rscale>
<asrwt>0</asrwt>
<pdfrwt beam="2">  1        1 0.15748419E-01 0.90376042E+02</pdfrwt>
<pdfrwt beam="1">  1       -1 0.30689017E-02 0.90376042E+02</pdfrwt>
<totfact> 0.10740706E+05</totfact>
</mgrwt>
</event>
<event>
 5    1  0.1239369E+001  0.9058862E+02  0.7546771E-02  0.1301432E+00
          3   -1    0    0  501    0  0.00000000000E+00  0.00000000000E+00  0.95696954873E+02  0.95696954873E+02  0.00000000000E+00 0. -1.
         -3   -1    0    0    0  501 -0.00000000000E+00 -0.00000000000E+00 -0.21438244171E+02  0.21438244171E+02  0.00000000000E+00 0.  1.
         23    2    1    2    0    0  0.00000000000E+00  0.00000000000E+00  0.74258710702E+02  0.11713519904E+03  0.90588623678E+02 0.  0.
        -13    1    3    3    0    0  0.19721149077E+02  0.12151642761E+02  0.87458370559E+02  0.90474044474E+02  0.00000000000E+00 0. -1.
         13    1    3    3    0    0 -0.19721149077E+02 -0.12151642761E+02 -0.13199659856E+02  0.26661154570E+02  0.00000000000E+00 0.  1.
<mgrwt>
<rscale>  0 0.90588624E+02</rscale>
<asrwt>0</asrwt>
<pdfrwt beam="1">  1        3 0.14722608E-01 0.90588624E+02</pdfrwt>
<pdfrwt beam="2">  1       -3 0.32981915E-02 0.90588624E+02</pdfrwt>
<totfact> 0.34035795E+04</totfact>
</mgrwt>
</event>
<event>
 5    1  0.1239369E+001  0.8801230E+02  0.7546771E-02  0.1307738E+00
          1   -1    0    0  501    0  0.00000000000E+00  0.00000000000E+00  0.34540582390E+02  0.34540582390E+02  0.00000000000E+00 0. -1.
         -1   -1    0    0    0  501 -0.00000000000E+00 -0.00000000000E+00 -0.56065679699E+02  0.56065679699E+02  0.00000000000E+00 0.  1.
         23    2    1    2    0    0  0.00000000000E+00  0.00000000000E+00 -0.21525097309E+02  0.90606262090E+02  0.88012299798E+02 0.  0.
        -11    1    3    3    0    0  0.20895165988E+02 -0.26734125676E+02 -0.39610200202E+02  0.52156393638E+02  0.00000000000E+00 0.  1.
         11    1    3    3    0    0 -0.20895165988E+02  0.26734125676E+02  0.18085102893E+02  0.38449868452E+02  0.00000000000E+00 0. -1.
<mgrwt>
<rscale>  0 0.88012300E+02</rscale>
<asrwt>0</asrwt>
<pdfrwt beam="1">  1        1 0.53139358E-02 0.88012300E+02</pdfrwt>
<pdfrwt beam="2">  1       -1 0.86254890E-02 0.88012300E+02</pdfrwt>
<totfact> 0.97980369E+04</totfact>
</mgrwt>
</event>
<event>
 5    1  0.1239369E+001  0.9084963E+02  0.7546771E-02  0.1300807E+00
         -2   -1    0    0    0  501 -0.00000000000E+00  0.00000000000E+00  0.23161182283E+03  0.23161182283E+03  0.00000000000E+00 0.  1.
          2   -1    0    0  501    0  0.00000000000E+00 -0.00000000000E+00 -0.89089315377E+01  0.89089315377E+01  0.00000000000E+00 0. -1.
         23    2    1    2    0    0  0.00000000000E+00  0.00000000000E+00  0.22270289129E+03  0.24052075436E+03  0.90849631213E+02 0.  0.
        -13    1    3    3    0    0 -0.32343754739E+02 -0.12272045958E+02  0.33411184745E+02  0.48093958546E+02  0.00000000000E+00 0. -1.
         13    1    3    3    0    0  0.32343754739E+02  0.12272045958E+02  0.18929170654E+03  0.19242679582E+03  0.00000000000E+00 0.  1.
<mgrwt>
<rscale>  0 0.90849631E+02</rscale>
<asrwt>0</asrwt>
<pdfrwt beam="2">  1        2 0.13706050E-02 0.90849631E+02</pdfrwt>
<pdfrwt beam="1">  1       -2 0.35632583E-01 0.90849631E+02</pdfrwt>
<totfact> 0.58845901E+04</totfact>
</mgrwt>
</event>
<event>
 5    1  0.1239369E+001  0.9093172E+02  0.7546771E-02  0.1300611E+00
         -1   -1    0    0    0  501 -0.00000000000E+00  0.00000000000E+00  0.25207117457E+02  0.25207117457E+02  0.00000000000E+00 0.  1.
          1   -1    0    0  501    0  0.00000000000E+00 -0.00000000000E+00 -0.82006378760E+02  0.82006378760E+02  0.00000000000E+00 0. -1.
         23    2    1    2    0    0  0.00000000000E+00  0.00000000000E+00 -0.56799261303E+02  0.10721349622E+03  0.90931719914E+02 0.  0.
        -13    1    3    3    0    0 -0.18041920775E+02  0.31510208461E+02  0.38629907277E+01  0.36514748251E+02  0.00000000000E+00 0.  1.
         13    1    3    3    0    0  0.18041920775E+02 -0.31510208461E+02 -0.60662252031E+02  0.70698747966E+02  0.00000000000E+00 0. -1.
<mgrwt>
<rscale>  0 0.90931720E+02</rscale>
<asrwt>0</asrwt>
<pdfrwt beam="2">  1        1 0.12616366E-01 0.90931720E+02</pdfrwt>
<pdfrwt beam="1">  1       -1 0.38780181E-02 0.90931720E+02</pdfrwt>
<totfact> 0.10188931E+05</totfact>
</mgrwt>
</event>
<event>
 5    1  0.1239369E+001  0.9102541E+02  0.7546771E-02  0.1300387E+00
         -2   -1    0    0    0  501 -0.00000000000E+00  0.00000000000E+00  0.96334933938E+02  0.96334933938E+02  0.00000000000E+00 0. -1.
          2   -1    0    0  501    0  0.00000000000E+00 -0.00000000000E+00 -0.21502129775E+02  0.21502129775E+02  0.00000000000E+00 0.  1.
         23    2    1    2    0    0  0.00000000000E+00  0.00000000000E+00  0.74832804163E+02  0.11783706371E+03  0.91025408572E+02 0.  0.
        -13    1    3    3    0    0 -0.31227837511E+02  0.12012051872E+02 -0.25250491919E+01  0.33553585490E+02  0.00000000000E+00 0.  1.
         13    1    3    3    0    0  0.31227837511E+02 -0.12012051872E+02  0.77357853355E+02  0.84283478223E+02  0.00000000000E+00 0. -1.
<mgrwt>
<rscale>  0 0.91025409E+02</rscale>
<asrwt>0</asrwt>
<pdfrwt beam="2">  1        2 0.33080200E-02 0.91025409E+02</pdfrwt>
<pdfrwt beam="1">  1       -2 0.14820759E-01 0.91025409E+02</pdfrwt>
<totfact> 0.81028066E+04</totfact>
</mgrwt>
</event>
<event>
 5    1  0.1239369E+001  0.9174416E+02  0.7546771E-02  0.1298682E+00
         -2   -1    0    0    0  501 -0.00000000000E+00  0.00000000000E+00  0.56960689179E+02  0.56960689179E+02  0.00000000000E+00 0.  1.
          2   -1    0    0  501    0  0.00000000000E+00 -0.00000000000E+00 -0.36942105868E+02  0.36942105868E+02  0.00000000000E+00 0. -1.
         23    2    1    2    0    0  0.00000000000E+00  0.00000000000E+00  0.20018583311E+02  0.93902795046E+02  0.91744161884E+02 0.  0.
        -11    1    3    3    0    0 -0.16318833989E+02  0.51350843228E+01  0.53573333485E+02  0.56238558787E+02  0.00000000000E+00 0.  1.
         11    1    3    3    0    0  0.16318833989E+02 -0.51350843228E+01 -0.33554750174E+02  0.37664236260E+02  0.00000000000E+00 0. -1.
<mgrwt>
<rscale>  0 0.91744162E+02</rscale>
<asrwt>0</asrwt>
<pdfrwt beam="2">  1        2 0.56834009E-02 0.91744162E+02</pdfrwt>
<pdfrwt beam="1">  1       -2 0.87631830E-02 0.91744162E+02</pdfrwt>
<totfact> 0.91765630E+04</totfact>
</mgrwt>
</event>
<event>
 5    1  0.1239369E+001  0.9084016E+02  0.7546771E-02  0.1300830E+00
          1   -1    0    0  501    0  0.00000000000E+00  0.00000000000E+00  0.26880502003E+03  0.26880502003E+03  0.00000000000E+00 0. -1.
         -1   -1    0    0    0  501 -0.00000000000E+00 -0.00000000000E+00 -0.76746466407E+01  0.76746466407E+01  0.00000000000E+00 0.  1.
         23    2    1    2    0    0  0.00000000000E+00  0.00000000000E+00  0.26113037339E+03  0.27647966667E+03  0.90840157287E+02 0.  0.
        -13    1    3    3    0    0  0.19826412265E+02 -0.35801238400E+02  0.70600533765E+02  0.81604231889E+02  0.00000000000E+00 0. -1.
         13    1    3    3    0    0 -0.19826412265E+02  0.35801238400E+02  0.19052983963E+03  0.19487543478E+03  0.00000000000E+00 0.  1.
<mgrwt>
<rscale>  0 0.90840157E+02</rscale>
<asrwt>0</asrwt>
<pdfrwt beam="1">  1        1 0.41354611E-01 0.90840157E+02</pdfrwt>
<pdfrwt beam="2">  1       -1 0.11807151E-02 0.90840157E+02</pdfrwt>
<totfact> 0.12667786E+05</totfact>
</mgrwt>
</event>
<event>
 5    1  0.1239369E+001  0.9083223E+02  0.7546771E-02  0.1300849E+00
          4   -1    0    0  501    0  0.00000000000E+00  0.00000000000E+00  0.38917161638E+03  0.38917161638E+03  0.00000000000E+00 0. -1.
         -4   -1    0    0    0  501 -0.00000000000E+00 -0.00000000000E+00 -0.53000356403E+01  0.53000356403E+01  0.00000000000E+00 0.  1.
         23    2    1    2    0    0  0.00000000000E+00  0.00000000000E+00  0.38387158074E+03  0.39447165202E+03  0.90832228575E+02 0.  0.
        -13    1    3    3    0    0  0.25645342198E+02 -0.35990678587E+02  0.14646811700E+03  0.15298994026E+03  0.00000000000E+00 0.  1.
         13    1    3    3    0    0 -0.25645342198E+02  0.35990678587E+02  0.23740346374E+03  0.24148171176E+03  0.00000000000E+00 0. -1.
<mgrwt>
<rscale>  0 0.90832229E+02</rscale>
<asrwt>0</asrwt>
<pdfrwt beam="1">  1        4 0.59872534E-01 0.90832229E+02</pdfrwt>
<pdfrwt beam="2">  1       -4 0.81539040E-03 0.90832229E+02</pdfrwt>
<totfact> 0.15433981E+04</totfact>
</mgrwt>
</event>
<event>
 5    1  0.1239369E+001  0.9645065E+02  0.7546771E-02  0.1287942E+00
          4   -1    0    0  501    0  0.00000000000E+00  0.00000000000E+00  0.48995759138E+02  0.48995759138E+02  0.00000000000E+00 0. -1.
         -4   -1    0    0    0  501 -0.00000000000E+00 -0.00000000000E+00 -0.47467006541E+02  0.47467006541E+02  0.00000000000E+00 0.  1.
         23    2    1    2    0    0  0.00000000000E+00  0.00000000000E+00  0.15287525965E+01  0.96462765679E+02  0.96450650998E+02 0.  0.
        -13    1    3    3    0    0  0.28158542797E+02  0.12319738928E+02 -0.36402133669E+02  0.47642363872E+02  0.00000000000E+00 0.  1.
         13    1    3    3    0    0 -0.28158542797E+02 -0.12319738928E+02  0.37930886266E+02  0.48820401807E+02  0.00000000000E+00 0. -1.
<mgrwt>
<rscale>  0 0.96450651E+02</rscale>
<asrwt>0</asrwt>
<pdfrwt beam="1">  1        4 0.75378091E-02 0.96450651E+02</pdfrwt>
<pdfrwt beam="2">  1       -4 0.73026164E-02 0.96450651E+02</pdfrwt>
<totfact> 0.22886350E+04</totfact>
</mgrwt>
</event>
<event>
 5    1  0.1239369E+001  0.9401996E+02  0.7546771E-02  0.1293399E+00
          2   -1    0    0  501    0  0.00000000000E+00  0.00000000000E+00  0.20720498429E+03  0.20720498429E+03  0.00000000000E+00 0. -1.
         -2   -1    0    0    0  501 -0.00000000000E+00 -0.00000000000E+00 -0.10665468677E+02  0.10665468677E+02  0.00000000000E+00 0.  1.
         23    2    1    2    0    0  0.00000000000E+00  0.00000000000E+00  0.19653951561E+03  0.21787045297E+03  0.94019961064E+02 0.  0.
        -11    1    3    3    0    0  0.46401939178E+02 -0.37703071661E+00  0.80827535012E+02  0.93200710983E+02  0.00000000000E+00 0.  1.
         11    1    3    3    0    0 -0.46401939178E+02  0.37703071661E+00  0.11571198060E+03  0.12466974199E+03  0.00000000000E+00 0. -1.
<mgrwt>
<rscale>  0 0.94019961E+02</rscale>
<asrwt>0</asrwt>
<pdfrwt beam="1">  1        2 0.31877687E-01 0.94019961E+02</pdfrwt>
<pdfrwt beam="2">  1       -2 0.16408415E-02 0.94019961E+02</pdfrwt>
<totfact> 0.14422542E+05</totfact>
</mgrwt>
</event>
<event>
 5    1  0.1239369E+001  0.9290021E+02  0.7546771E-02  0.1295977E+00
         -1   -1    0    0    0  501 -0.00000000000E+00  0.00000000000E+00  0.11030499393E+02  0.11030499393E+02  0.00000000000E+00 0.  1.
          1   -1    0    0  501    0  0.00000000000E+00 -0.00000000000E+00 -0.19560421608E+03  0.19560421608E+03  0.00000000000E+00 0. -1.
         23    2    1    2    0    0  0.00000000000E+00  0.00000000000E+00 -0.18457371669E+03  0.20663471547E+03  0.92900208541E+02 0.  0.
        -13    1    3    3    0    0 -0.27100307407E+02 -0.15166342330E+02 -0.15455710609E+02  0.34688954895E+02  0.00000000000E+00 0.  1.
         13    1    3    3    0    0  0.27100307407E+02  0.15166342330E+02 -0.16911800608E+03  0.17194576058E+03  0.00000000000E+00 0. -1.
<mgrwt>
<rscale>  0 0.92900209E+02</rscale>
<asrwt>0</asrwt>
<pdfrwt beam="2">  1        1 0.30092956E-01 0.92900209E+02</pdfrwt>
<pdfrwt beam="1">  1       -1 0.16969999E-02 0.92900209E+02</pdfrwt>
<totfact> 0.11211064E+05</totfact>
</mgrwt>
</event>
<event>
 5    1  0.1239369E+001  0.7847000E+02  0.7546771E-02  0.1333450E+00
         -2   -1    0    0    0  501 -0.00000000000E+00  0.00000000000E+00  0.51736213513E+02  0.51736213513E+02  0.00000000000E+00 0. -1.
          2   -1    0    0  501    0  0.00000000000E+00 -0.00000000000E+00 -0.29754502497E+02  0.29754502497E+02  0.00000000000E+00 0.  1.
         23    2    1    2    0    0  0.00000000000E+00  0.00000000000E+00  0.21981711016E+02  0.81490716010E+02  0.78470001763E+02 0.  0.
        -13    1    3    3    0    0 -0.21425607802E+02 -0.78061934209E+01 -0.22166132727E+02  0.31801427098E+02  0.00000000000E+00 0.  1.
         13    1    3    3    0    0  0.21425607802E+02  0.78061934209E+01  0.44147843743E+02  0.49689288912E+02  0.00000000000E+00 0. -1.
<mgrwt>
<rscale>  0 0.78470002E+02</rscale>
<asrwt>0</asrwt>
<pdfrwt beam="2">  1        2 0.45776158E-02 0.78470002E+02</pdfrwt>
<pdfrwt beam="1">  1       -2 0.79594174E-02 0.78470002E+02</pdfrwt>
<totfact> 0.13671853E+05</totfact>
</mgrwt>
</event>
<event>
 5    1  0.1239369E+001  0.8843150E+02  0.7546771E-02  0.1306695E+00
          1   -1    0    0  501    0  0.00000000000E+00  0.00000000000E+00  0.91965574247E+02  0.91965574247E+02  0.00000000000E+00 0. -1.
         -1   -1    0    0    0  501 -0.00000000000E+00 -0.00000000000E+00 -0.21258308172E+02  0.21258308172E+02  0.00000000000E+00 0.  1.
         23    2    1    2    0    0  0.00000000000E+00  0.00000000000E+00  0.70707266076E+02  0.11322388242E+03  0.88431499332E+02 0.  0.
        -13    1    3    3    0    0  0.26497599412E+02 -0.34659429845E+02  0.26153427330E+02  0.50866497942E+02  0.00000000000E+00 0. -1.
         13    1    3    3    0    0 -0.26497599412E+02  0.34659429845E+02  0.44553838745E+02  0.62357384476E+02  0.00000000000E+00 0.  1.
<mgrwt>
<rscale>  0 0.88431499E+02</rscale>
<asrwt>0</asrwt>
<pdfrwt beam="1">  1        1 0.14148550E-01 0.88431499E+02</pdfrwt>
<pdfrwt beam="2">  1       -1 0.32705090E-02 0.88431499E+02</pdfrwt>
<totfact> 0.11197220E+05</totfact>
</mgrwt>
</event>
<event>
 5    1  0.1239369E+001  0.9120473E+02  0.7546771E-02  0.1299960E+00
          2   -1    0    0  501    0  0.00000000000E+00  0.00000000000E+00  0.40184638255E+02  0.40184638255E+02  0.00000000000E+00 0. -1.
         -2   -1    0    0    0  501 -0.00000000000E+00 -0.00000000000E+00 -0.51750518279E+02  0.51750518279E+02  0.00000000000E+00 0.  1.
         23    2    1    2    0    0  0.00000000000E+00  0.00000000000E+00 -0.11565880023E+02  0.91935156534E+02  0.91204733573E+02 0.  0.
        -13    1    3    3    0    0  0.19795638977E+01 -0.45512508362E+02 -0.78655858029E+01  0.46229585014E+02  0.00000000000E+00 0. -1.
         13    1    3    3    0    0 -0.19795638977E+01  0.45512508362E+02 -0.37002942206E+01  0.45705571519E+02  0.00000000000E+00 0.  1.
<mgrwt>
<rscale>  0 0.91204734E+02</rscale>
<asrwt>0</asrwt>
<pdfrwt beam="1">  1        2 0.61822520E-02 0.91204734E+02</pdfrwt>
<pdfrwt beam="2">  1       -2 0.79616182E-02 0.91204734E+02</pdfrwt>
<totfact> 0.95417560E+04</totfact>
</mgrwt>
</event>
<event>
 5    1  0.1239369E+001  0.8911224E+02  0.7546771E-02  0.1305016E+00
         -1   -1    0    0    0  501 -0.00000000000E+00  0.00000000000E+00  0.11068574156E+03  0.11068574156E+03  0.00000000000E+00 0.  1.
          1   -1    0    0  501    0  0.00000000000E+00 -0.00000000000E+00 -0.17935895729E+02  0.17935895729E+02  0.00000000000E+00 0. -1.
         23    2    1    2    0    0  0.00000000000E+00  0.00000000000E+00  0.92749845834E+02  0.12862163729E+03  0.89112242019E+02 0.  0.
        -13    1    3    3    0    0 -0.24327982493E+02  0.19587860461E+02  0.92239312494E+02  0.97383909240E+02  0.00000000000E+00 0.  1.
         13    1    3    3    0    0  0.24327982493E+02 -0.19587860461E+02  0.51053334023E+00  0.31237728053E+02  0.00000000000E+00 0. -1.
<mgrwt>
<rscale>  0 0.89112242E+02</rscale>
<asrwt>0</asrwt>
<pdfrwt beam="2">  1        1 0.27593687E-02 0.89112242E+02</pdfrwt>
<pdfrwt beam="1">  1       -1 0.17028575E-01 0.89112242E+02</pdfrwt>
<totfact> 0.84663901E+04</totfact>
</mgrwt>
</event>
<event>
 5    1  0.1239369E+001  0.9084710E+02  0.7546771E-02  0.1300813E+00
         -2   -1    0    0    0  501 -0.00000000000E+00  0.00000000000E+00  0.10488035670E+02  0.10488035670E+02  0.00000000000E+00 0.  1.
          2   -1    0    0  501    0  0.00000000000E+00 -0.00000000000E+00 -0.19672880733E+03  0.19672880733E+03  0.00000000000E+00 0. -1.
         23    2    1    2    0    0  0.00000000000E+00  0.00000000000E+00 -0.18624077166E+03  0.20721684300E+03  0.90847096786E+02 0.  0.
        -11    1    3    3    0    0  0.22273605143E+02  0.38669832569E+02 -0.11245185460E+03  0.12098301137E+03  0.00000000000E+00 0.  1.
         11    1    3    3    0    0 -0.22273605143E+02 -0.38669832569E+02 -0.73788917066E+02  0.86233831637E+02  0.00000000000E+00 0. -1.
<mgrwt>
<rscale>  0 0.90847097E+02</rscale>
<asrwt>0</asrwt>
<pdfrwt beam="2">  1        2 0.30265972E-01 0.90847097E+02</pdfrwt>
<pdfrwt beam="1">  1       -2 0.16135438E-02 0.90847097E+02</pdfrwt>
<totfact> 0.15526850E+05</totfact>
</mgrwt>
</event>
<event>
 5    1  0.1239369E+001  0.9016894E+02  0.7546771E-02  0.1302443E+00
          2   -1    0    0  501    0  0.00000000000E+00  0.00000000000E+00  0.53044336759E+02  0.53044336759E+02  0.00000000000E+00 0. -1.
         -2   -1    0    0    0  501 -0.00000000000E+00 -0.00000000000E+00 -0.38319062412E+02  0.38319062412E+02  0.00000000000E+00 0.  1.
         23    2    1    2    0    0  0.00000000000E+00  0.00000000000E+00  0.14725274347E+02  0.91363399171E+02  0.90168935912E+02 0.  0.
        -11    1    3    3    0    0 -0.67825277395E+01  0.44460797072E+02  0.10541729474E+02  0.46194082079E+02  0.00000000000E+00 0.  1.
         11    1    3    3    0    0  0.67825277395E+01 -0.44460797072E+02  0.41835448734E+01  0.45169317092E+02  0.00000000000E+00 0. -1.
<mgrwt>
<rscale>  0 0.90168936E+02</rscale>
<asrwt>0</asrwt>
<pdfrwt beam="1">  1        2 0.81606672E-02 0.90168936E+02</pdfrwt>
<pdfrwt beam="2">  1       -2 0.58952404E-02 0.90168936E+02</pdfrwt>
<totfact> 0.10594397E+05</totfact>
</mgrwt>
</event>
<event>
 5    1  0.1239369E+001  0.9205533E+02  0.7546771E-02  0.1297949E+00
          1   -1    0    0  501    0  0.00000000000E+00  0.00000000000E+00  0.98322648236E+01  0.98322648236E+01  0.00000000000E+00 0. -1.
         -1   -1    0    0    0  501 -0.00000000000E+00 -0.00000000000E+00 -0.21546876520E+03  0.21546876520E+03  0.00000000000E+00 0.  1.
         23    2    1    2    0    0  0.00000000000E+00  0.00000000000E+00 -0.20563650037E+03  0.22530103002E+03  0.92055330332E+02 0.  0.
        -11    1    3    3    0    0 -0.54835194774E+01  0.41741977340E+02 -0.57287460047E+02  0.71093703918E+02  0.00000000000E+00 0. -1.
         11    1    3    3    0    0  0.54835194774E+01 -0.41741977340E+02 -0.14834904033E+03  0.15420732610E+03  0.00000000000E+00 0.  1.
<mgrwt>
<rscale>  0 0.92055330E+02</rscale>
<asrwt>0</asrwt>
<pdfrwt beam="1">  1        1 0.15126561E-02 0.92055330E+02</pdfrwt>
<pdfrwt beam="2">  1       -1 0.33149040E-01 0.92055330E+02</pdfrwt>
<totfact> 0.66241310E+04</totfact>
</mgrwt>
</event>
<event>
 5    1  0.1239369E+001  0.1248703E+03  0.7546771E-02  0.1235272E+00
         -3   -1    0    0    0  501 -0.00000000000E+00  0.00000000000E+00  0.11904881706E+03  0.11904881706E+03  0.00000000000E+00 0. -1.
          3   -1    0    0  501    0  0.00000000000E+00 -0.00000000000E+00 -0.32744093270E+02  0.32744093270E+02  0.00000000000E+00 0.  1.
         23    2    1    2    0    0  0.00000000000E+00  0.00000000000E+00  0.86304723794E+02  0.15179291033E+03  0.12487026179E+03 0.  0.
        -13    1    3    3    0    0 -0.41288235742E+02 -0.32340052119E+02  0.84331564375E+02  0.99309667866E+02  0.00000000000E+00 0. -1.
         13    1    3    3    0    0  0.41288235742E+02  0.32340052119E+02  0.19731594186E+01  0.52483242467E+02  0.00000000000E+00 0.  1.
<mgrwt>
<rscale>  0 0.12487026E+03</rscale>
<asrwt>0</asrwt>
<pdfrwt beam="2">  1        3 0.50375529E-02 0.12487026E+03</pdfrwt>
<pdfrwt beam="1">  1       -3 0.18315202E-01 0.12487026E+03</pdfrwt>
<totfact> 0.13090182E+04</totfact>
</mgrwt>
</event>
<event>
 5    1  0.1239369E+001  0.9424262E+02  0.7546771E-02  0.1292891E+00
         -2   -1    0    0    0  501 -0.00000000000E+00  0.00000000000E+00  0.34028538898E+03  0.34028538898E+03  0.00000000000E+00 0.  1.
          2   -1    0    0  501    0  0.00000000000E+00 -0.00000000000E+00 -0.65251642541E+01  0.65251642541E+01  0.00000000000E+00 0. -1.
         23    2    1    2    0    0  0.00000000000E+00  0.00000000000E+00  0.33376022472E+03  0.34681055323E+03  0.94242624249E+02 0.  0.
        -11    1    3    3    0    0 -0.24202061250E+02  0.38878973732E+02  0.12605001012E+03  0.13411159316E+03  0.00000000000E+00 0.  1.
         11    1    3    3    0    0  0.24202061250E+02 -0.38878973732E+02  0.20771021460E+03  0.21269896007E+03  0.00000000000E+00 0. -1.
<mgrwt>
<rscale>  0 0.94242624E+02</rscale>
<asrwt>0</asrwt>
<pdfrwt beam="2">  1        2 0.10038717E-02 0.94242624E+02</pdfrwt>
<pdfrwt beam="1">  1       -2 0.52351585E-01 0.94242624E+02</pdfrwt>
<totfact> 0.43490927E+04</totfact>
</mgrwt>
</event>
<event>
 5    1  0.1239369E+001  0.7992841E+02  0.7546771E-02  0.1329255E+00
          3   -1    0    0  501    0  0.00000000000E+00  0.00000000000E+00  0.40349296579E+02  0.40349296579E+02  0.00000000000E+00 0. -1.
         -3   -1    0    0    0  501 -0.00000000000E+00 -0.00000000000E+00 -0.39582790868E+02  0.39582790868E+02  0.00000000000E+00 0.  1.
         23    2    1    2    0    0  0.00000000000E+00  0.00000000000E+00  0.76650571125E+00  0.79932087447E+02  0.79928412174E+02 0.  0.
        -13    1    3    3    0    0  0.12569894536E+02  0.30151138434E+02 -0.22640498290E+02  0.39745258338E+02  0.00000000000E+00 0.  1.
         13    1    3    3    0    0 -0.12569894536E+02 -0.30151138434E+02  0.23407004001E+02  0.40186829109E+02  0.00000000000E+00 0. -1.
<mgrwt>
<rscale>  0 0.79928412E+02</rscale>
<asrwt>0</asrwt>
<pdfrwt beam="1">  1        3 0.62075841E-02 0.79928412E+02</pdfrwt>
<pdfrwt beam="2">  1       -3 0.60896602E-02 0.79928412E+02</pdfrwt>
<totfact> 0.51721668E+04</totfact>
</mgrwt>
</event>
<event>
 5    1  0.1239369E+001  0.9111190E+02  0.7546771E-02  0.1300181E+00
         -2   -1    0    0    0  501 -0.00000000000E+00  0.00000000000E+00  0.51483581474E+02  0.51483581474E+02  0.00000000000E+00 0.  1.
          2   -1    0    0  501    0  0.00000000000E+00 -0.00000000000E+00 -0.40310803916E+02  0.40310803916E+02  0.00000000000E+00 0. -1.
         23    2    1    2    0    0  0.00000000000E+00  0.00000000000E+00  0.11172777558E+02  0.91794385390E+02  0.91111899501E+02 0.  0.
        -13    1    3    3    0    0 -0.12447578993E+02  0.43808294596E+02  0.44664599765E+01  0.45760880269E+02  0.00000000000E+00 0.  1.
         13    1    3    3    0    0  0.12447578993E+02 -0.43808294596E+02  0.67063175811E+01  0.46033505121E+02  0.00000000000E+00 0. -1.
<mgrwt>
<rscale>  0 0.91111900E+02</rscale>
<asrwt>0</asrwt>
<pdfrwt beam="2">  1        2 0.62016621E-02 0.91111900E+02</pdfrwt>
<pdfrwt beam="1">  1       -2 0.79205510E-02 0.91111900E+02</pdfrwt>
<totfact> 0.95777247E+04</totfact>
</mgrwt>
</event>
<event>
 5    1  0.1239369E+001  0.9418082E+02  0.7546771E-02  0.1293032E+00
         -1   -1    0    0    0  501 -0.00000000000E+00  0.00000000000E+00  0.12976544008E+02  0.12976544008E+02  0.00000000000E+00 0.  1.
          1   -1    0    0  501    0  0.00000000000E+00 -0.00000000000E+00 -0.17088576531E+03  0.17088576531E+03  0.00000000000E+00 0. -1.
         23    2    1    2    0    0  0.00000000000E+00  0.00000000000E+00 -0.15790922130E+03  0.18386230932E+03  0.94180818725E+02 0.  0.
        -11    1    3    3    0    0 -0.22028086769E+02 -0.20231040609E+02 -0.79468077791E+01  0.30946459647E+02  0.00000000000E+00 0.  1.
         11    1    3    3    0    0  0.22028086769E+02  0.20231040609E+02 -0.14996241353E+03  0.15291584967E+03  0.00000000000E+00 0. -1.
<mgrwt>
<rscale>  0 0.94180819E+02</rscale>
<asrwt>0</asrwt>
<pdfrwt beam="2">  1        1 0.26290116E-01 0.94180819E+02</pdfrwt>
<pdfrwt beam="1">  1       -1 0.19963915E-02 0.94180819E+02</pdfrwt>
<totfact> 0.10527056E+05</totfact>
</mgrwt>
</event>
<event>
 5    1  0.1239369E+001  0.8736408E+02  0.7546771E-02  0.1309363E+00
          1   -1    0    0  501    0  0.00000000000E+00  0.00000000000E+00  0.85636951492E+02  0.85636951492E+02  0.00000000000E+00 0. -1.
         -1   -1    0    0    0  501 -0.00000000000E+00 -0.00000000000E+00 -0.22281507856E+02  0.22281507856E+02  0.00000000000E+00 0.  1.
         23    2    1    2    0    0  0.00000000000E+00  0.00000000000E+00  0.63355443636E+02  0.10791845935E+03  0.87364075168E+02 0.  0.
        -13    1    3    3    0    0  0.32383173188E+02 -0.18049187901E+02  0.31411219759E+01  0.37206313132E+02  0.00000000000E+00 0.  1.
         13    1    3    3    0    0 -0.32383173188E+02  0.18049187901E+02  0.60214321660E+02  0.70712146217E+02  0.00000000000E+00 0. -1.
<mgrwt>
<rscale>  0 0.87364075E+02</rscale>
<asrwt>0</asrwt>
<pdfrwt beam="1">  1        1 0.13174915E-01 0.87364075E+02</pdfrwt>
<pdfrwt beam="2">  1       -1 0.34279243E-02 0.87364075E+02</pdfrwt>
<totfact> 0.11443130E+05</totfact>
</mgrwt>
</event>
<event>
 5    1  0.1239369E+001  0.9062538E+02  0.7546771E-02  0.1301344E+00
         -2   -1    0    0    0  501 -0.00000000000E+00  0.00000000000E+00  0.14706980185E+03  0.14706980185E+03  0.00000000000E+00 0.  1.
          2   -1    0    0  501    0  0.00000000000E+00 -0.00000000000E+00 -0.13960988158E+02  0.13960988158E+02  0.00000000000E+00 0. -1.
         23    2    1    2    0    0  0.00000000000E+00  0.00000000000E+00  0.13310881370E+03  0.16103079001E+03  0.90625377505E+02 0.  0.
        -11    1    3    3    0    0  0.14227055533E+02 -0.40577508683E+02  0.41156992963E+02  0.59521772401E+02  0.00000000000E+00 0. -1.
         11    1    3    3    0    0 -0.14227055533E+02  0.40577508683E+02  0.91951820732E+02  0.10150901761E+03  0.00000000000E+00 0.  1.
<mgrwt>
<rscale>  0 0.90625378E+02</rscale>
<asrwt>0</asrwt>
<pdfrwt beam="2">  1        2 0.21478444E-02 0.90625378E+02</pdfrwt>
<pdfrwt beam="1">  1       -2 0.22626122E-01 0.90625378E+02</pdfrwt>
<totfact> 0.71444947E+04</totfact>
</mgrwt>
</event>
<event>
 5    1  0.1239369E+001  0.8828862E+02  0.7546771E-02  0.1307050E+00
          1   -1    0    0  501    0  0.00000000000E+00  0.00000000000E+00  0.17920837641E+02  0.17920837641E+02  0.00000000000E+00 0. -1.
         -1   -1    0    0    0  501 -0.00000000000E+00 -0.00000000000E+00 -0.10874045025E+03  0.10874045025E+03  0.00000000000E+00 0.  1.
         23    2    1    2    0    0  0.00000000000E+00  0.00000000000E+00 -0.90819612606E+02  0.12666128789E+03  0.88288616569E+02 0.  0.
        -13    1    3    3    0    0  0.14986081590E+02 -0.24746526357E+02  0.24247909026E+01  0.29031927582E+02  0.00000000000E+00 0. -1.
         13    1    3    3    0    0 -0.14986081590E+02  0.24746526357E+02 -0.93244403509E+02  0.97629360307E+02  0.00000000000E+00 0.  1.
<mgrwt>
<rscale>  0 0.88288617E+02</rscale>
<asrwt>0</asrwt>
<pdfrwt beam="1">  1        1 0.27570519E-02 0.88288617E+02</pdfrwt>
<pdfrwt beam="2">  1       -1 0.16729300E-01 0.88288617E+02</pdfrwt>
<totfact> 0.87010728E+04</totfact>
</mgrwt>
</event>
<event>
 5    1  0.1239369E+001  0.9049992E+02  0.7546771E-02  0.1301646E+00
          3   -1    0    0  501    0  0.00000000000E+00  0.00000000000E+00  0.54268405386E+01  0.54268405386E+01  0.00000000000E+00 0. -1.
         -3   -1    0    0    0  501 -0.00000000000E+00 -0.00000000000E+00 -0.37730218656E+03  0.37730218656E+03  0.00000000000E+00 0.  1.
         23    2    1    2    0    0  0.00000000000E+00  0.00000000000E+00 -0.37187534602E+03  0.38272902710E+03  0.90499918261E+02 0.  0.
        -13    1    3    3    0    0 -0.36577963277E+02 -0.26406748326E+02 -0.17110879453E+03  0.17695616214E+03  0.00000000000E+00 0.  1.
         13    1    3    3    0    0  0.36577963277E+02  0.26406748326E+02 -0.20076655149E+03  0.20577286496E+03  0.00000000000E+00 0. -1.
<mgrwt>
<rscale>  0 0.90499918E+02</rscale>
<asrwt>0</asrwt>
<pdfrwt beam="1">  1        3 0.83489849E-03 0.90499918E+02</pdfrwt>
<pdfrwt beam="2">  1       -3 0.58046494E-01 0.90499918E+02</pdfrwt>
<totfact> 0.21558496E+04</totfact>
</mgrwt>
</event>
<event>
 5    1  0.1239369E+001  0.9106686E+02  0.7546771E-02  0.1300289E+00
          1   -1    0    0  501    0  0.00000000000E+00  0.00000000000E+00  0.13547248235E+03  0.13547248235E+03  0.00000000000E+00 0. -1.
         -1   -1    0    0    0  501 -0.00000000000E+00 -0.00000000000E+00 -0.15304166205E+02  0.15304166205E+02  0.00000000000E+00 0.  1.
         23    2    1    2    0    0  0.00000000000E+00  0.00000000000E+00  0.12016831614E+03  0.15077664855E+03  0.91066863043E+02 0.  0.
        -11    1    3    3    0    0 -0.24746143787E+02  0.26984042342E+01 -0.30409589699E+01  0.25077887654E+02  0.00000000000E+00 0.  1.
         11    1    3    3    0    0  0.24746143787E+02 -0.26984042342E+01  0.12320927511E+03  0.12569876090E+03  0.00000000000E+00 0. -1.
<mgrwt>
<rscale>  0 0.91066863E+02</rscale>
<asrwt>0</asrwt>
<pdfrwt beam="1">  1        1 0.20841920E-01 0.91066863E+02</pdfrwt>
<pdfrwt beam="2">  1       -1 0.23544872E-02 0.91066863E+02</pdfrwt>
<totfact> 0.11043563E+05</totfact>
</mgrwt>
</event>
<event>
 5    1  0.1239369E+001  0.9127275E+02  0.7546771E-02  0.1299798E+00
         -1   -1    0    0    0  501 -0.00000000000E+00  0.00000000000E+00  0.17212449173E+03  0.17212449173E+03  0.00000000000E+00 0.  1.
          1   -1    0    0  501    0  0.00000000000E+00 -0.00000000000E+00 -0.12099839661E+02  0.12099839661E+02  0.00000000000E+00 0. -1.
         23    2    1    2    0    0  0.00000000000E+00  0.00000000000E+00  0.16002465207E+03  0.18422433139E+03  0.91272750625E+02 0.  0.
        -11    1    3    3    0    0  0.39451303176E+02  0.96888251688E+01  0.12198327041E+03  0.12856981339E+03  0.00000000000E+00 0.  1.
         11    1    3    3    0    0 -0.39451303176E+02 -0.96888251688E+01  0.38041381663E+02  0.55654518004E+02  0.00000000000E+00 0. -1.
<mgrwt>
<rscale>  0 0.91272751E+02</rscale>
<asrwt>0</asrwt>
<pdfrwt beam="2">  1        1 0.18615139E-02 0.91272751E+02</pdfrwt>
<pdfrwt beam="1">  1       -1 0.26480689E-01 0.91272751E+02</pdfrwt>
<totfact> 0.72110865E+04</totfact>
</mgrwt>
</event>
<event>
 5    1  0.1239369E+001  0.8878394E+02  0.7546771E-02  0.1305824E+00
         -1   -1    0    0    0  501 -0.00000000000E+00  0.00000000000E+00  0.36882942602E+02  0.36882942602E+02  0.00000000000E+00 0.  1.
          1   -1    0    0  501    0  0.00000000000E+00 -0.00000000000E+00 -0.53429769094E+02  0.53429769094E+02  0.00000000000E+00 0. -1.
         23    2    1    2    0    0  0.00000000000E+00  0.00000000000E+00 -0.16546826492E+02  0.90312711697E+02  0.88783942394E+02 0.  0.
        -13    1    3    3    0    0 -0.40383293889E+02 -0.17713507669E+02 -0.13467043654E+02  0.46107917369E+02  0.00000000000E+00 0.  1.
         13    1    3    3    0    0  0.40383293889E+02  0.17713507669E+02 -0.30797828380E+01  0.44204794328E+02  0.00000000000E+00 0. -1.
<mgrwt>
<rscale>  0 0.88783942E+02</rscale>
<asrwt>0</asrwt>
<pdfrwt beam="2">  1        1 0.82199645E-02 0.88783942E+02</pdfrwt>
<pdfrwt beam="1">  1       -1 0.56742989E-02 0.88783942E+02</pdfrwt>
<totfact> 0.10196597E+05</totfact>
</mgrwt>
</event>
<event>
 5    1  0.1239369E+001  0.9098405E+02  0.7546771E-02  0.1300486E+00
          2   -1    0    0  501    0  0.00000000000E+00  0.00000000000E+00  0.11309383767E+03  0.11309383767E+03  0.00000000000E+00 0. -1.
         -2   -1    0    0    0  501 -0.00000000000E+00 -0.00000000000E+00 -0.18299179560E+02  0.18299179560E+02  0.00000000000E+00 0.  1.
         23    2    1    2    0    0  0.00000000000E+00  0.00000000000E+00  0.94794658106E+02  0.13139301723E+03  0.90984052287E+02 0.  0.
        -13    1    3    3    0    0 -0.41058013588E+02 -0.19535964120E+02  0.49495086689E+02  0.67209954473E+02  0.00000000000E+00 0.  1.
         13    1    3    3    0    0  0.41058013588E+02  0.19535964120E+02  0.45299571417E+02  0.64183062754E+02  0.00000000000E+00 0. -1.
<mgrwt>
<rscale>  0 0.90984052E+02</rscale>
<asrwt>0</asrwt>
<pdfrwt beam="1">  1        2 0.17399052E-01 0.90984052E+02</pdfrwt>
<pdfrwt beam="2">  1       -2 0.28152585E-02 0.90984052E+02</pdfrwt>
<totfact> 0.12818376E+05</totfact>
</mgrwt>
</event>
<event>
 5    1  0.1239369E+001  0.9240408E+02  0.7546771E-02  0.1297132E+00
         -1   -1    0    0    0  501 -0.00000000000E+00  0.00000000000E+00  0.11303148094E+03  0.11303148094E+03  0.00000000000E+00 0.  1.
          1   -1    0    0  501    0  0.00000000000E+00 -0.00000000000E+00 -0.18885257559E+02  0.18885257559E+02  0.00000000000E+00 0. -1.
         23    2    1    2    0    0  0.00000000000E+00  0.00000000000E+00  0.94146223383E+02  0.13191673850E+03  0.92404082807E+02 0.  0.
        -11    1    3    3    0    0 -0.40236871586E+02  0.11226766444E+02  0.18895221628E+02  0.45848397139E+02  0.00000000000E+00 0. -1.
         11    1    3    3    0    0  0.40236871586E+02 -0.11226766444E+02  0.75251001755E+02  0.86068341362E+02  0.00000000000E+00 0.  1.
<mgrwt>
<rscale>  0 0.92404083E+02</rscale>
<asrwt>0</asrwt>
<pdfrwt beam="2">  1        1 0.29054243E-02 0.92404083E+02</pdfrwt>
<pdfrwt beam="1">  1       -1 0.17389458E-01 0.92404083E+02</pdfrwt>
<totfact> 0.76781290E+04</totfact>
</mgrwt>
</event>
<event>
 5    1  0.1239369E+001  0.9637017E+02  0.7546771E-02  0.1288120E+00
          1   -1    0    0  501    0  0.00000000000E+00  0.00000000000E+00  0.19533130406E+02  0.19533130406E+02  0.00000000000E+00 0. -1.
         -1   -1    0    0    0  501 -0.00000000000E+00 -0.00000000000E+00 -0.11886483532E+03  0.11886483532E+03  0.00000000000E+00 0.  1.
         23    2    1    2    0    0  0.00000000000E+00  0.00000000000E+00 -0.99331704912E+02  0.13839796572E+03  0.96370168185E+02 0.  0.
        -11    1    3    3    0    0 -0.36310238226E+02 -0.28398365138E+02 -0.69817563071E+02  0.83662372998E+02  0.00000000000E+00 0.  1.
         11    1    3    3    0    0  0.36310238226E+02  0.28398365138E+02 -0.29514141842E+02  0.54735592727E+02  0.00000000000E+00 0. -1.
<mgrwt>
<rscale>  0 0.96370168E+02</rscale>
<asrwt>0</asrwt>
<pdfrwt beam="1">  1        1 0.30050970E-02 0.96370168E+02</pdfrwt>
<pdfrwt beam="2">  1       -1 0.18286898E-01 0.96370168E+02</pdfrwt>
<totfact> 0.68168185E+04</totfact>
</mgrwt>
</event>
<event>
 5    1  0.1239369E+001  0.9051405E+02  0.7546771E-02  0.1301612E+00
         -1   -1    0    0    0  501 -0.00000000000E+00  0.00000000000E+00  0.54989397312E+02  0.54989397312E+02  0.00000000000E+00 0.  1.
          1   -1    0    0  501    0  0.00000000000E+00 -0.00000000000E+00 -0.37247147763E+02  0.37247147763E+02  0.00000000000E+00 0. -1.
         23    2    1    2    0    0  0.00000000000E+00  0.00000000000E+00  0.17742249549E+02  0.92236545075E+02  0.90514047685E+02 0.  0.
        -13    1    3    3    0    0 -0.33306035620E+02 -0.49897583277E+01 -0.21936779795E+02  0.40192188354E+02  0.00000000000E+00 0. -1.
         13    1    3    3    0    0  0.33306035620E+02  0.49897583277E+01  0.39679029344E+02  0.52044356722E+02  0.00000000000E+00 0.  1.
<mgrwt>
<rscale>  0 0.90514048E+02</rscale>
<asrwt>0</asrwt>
<pdfrwt beam="2">  1        1 0.57303304E-02 0.90514048E+02</pdfrwt>
<pdfrwt beam="1">  1       -1 0.84599073E-02 0.90514048E+02</pdfrwt>
<totfact> 0.91553798E+04</totfact>
</mgrwt>
</event>
<event>
 5    1  0.1239369E+001  0.8982144E+02  0.7546771E-02  0.1303285E+00
          2   -1    0    0  501    0  0.00000000000E+00  0.00000000000E+00  0.42326390047E+02  0.42326390047E+02  0.00000000000E+00 0. -1.
         -2   -1    0    0    0  501 -0.00000000000E+00 -0.00000000000E+00 -0.47652839124E+02  0.47652839124E+02  0.00000000000E+00 0.  1.
         23    2    1    2    0    0  0.00000000000E+00  0.00000000000E+00 -0.53264490774E+01  0.89979229171E+02  0.89821437433E+02 0.  0.
        -13    1    3    3    0    0  0.27293801133E+02 -0.34339115843E+02 -0.12315825008E+02  0.45561014067E+02  0.00000000000E+00 0.  1.
         13    1    3    3    0    0 -0.27293801133E+02  0.34339115843E+02  0.69893759305E+01  0.44418215104E+02  0.00000000000E+00 0. -1.
<mgrwt>
<rscale>  0 0.89821437E+02</rscale>
<asrwt>0</asrwt>
<pdfrwt beam="1">  1        2 0.65117523E-02 0.89821437E+02</pdfrwt>
<pdfrwt beam="2">  1       -2 0.73312060E-02 0.89821437E+02</pdfrwt>
<totfact> 0.10105770E+05</totfact>
</mgrwt>
</event>
<event>
 5    1  0.1239369E+001  0.9096168E+02  0.7546771E-02  0.1300539E+00
          1   -1    0    0  501    0  0.00000000000E+00  0.00000000000E+00  0.12305910174E+03  0.12305910174E+03  0.00000000000E+00 0. -1.
         -1   -1    0    0    0  501 -0.00000000000E+00 -0.00000000000E+00 -0.16809049971E+02  0.16809049971E+02  0.00000000000E+00 0.  1.
         23    2    1    2    0    0  0.00000000000E+00  0.00000000000E+00  0.10625005176E+03  0.13986815171E+03  0.90961675237E+02 0.  0.
        -11    1    3    3    0    0  0.36458042652E+02 -0.54325894410E+01  0.94091616088E+02  0.10105411481E+03  0.00000000000E+00 0. -1.
         11    1    3    3    0    0 -0.36458042652E+02  0.54325894410E+01  0.12158435676E+02  0.38814036896E+02  0.00000000000E+00 0.  1.
<mgrwt>
<rscale>  0 0.90961675E+02</rscale>
<asrwt>0</asrwt>
<pdfrwt beam="1">  1        1 0.18932169E-01 0.90961675E+02</pdfrwt>
<pdfrwt beam="2">  1       -1 0.25860078E-02 0.90961675E+02</pdfrwt>
<totfact> 0.10890849E+05</totfact>
</mgrwt>
</event>
<event>
 5    1  0.1239369E+001  0.1011305E+03  0.7546771E-02  0.1277936E+00
          3   -1    0    0  501    0  0.00000000000E+00  0.00000000000E+00  0.19830017732E+03  0.19830017732E+03  0.00000000000E+00 0. -1.
         -3   -1    0    0    0  501 -0.00000000000E+00 -0.00000000000E+00 -0.12893815928E+02  0.12893815928E+02  0.00000000000E+00 0.  1.
         23    2    1    2    0    0  0.00000000000E+00  0.00000000000E+00  0.18540636139E+03  0.21119399325E+03  0.10113052921E+03 0.  0.
        -13    1    3    3    0    0 -0.36481597237E+02  0.30272380822E+02  0.55962681859E+02  0.73342659744E+02  0.00000000000E+00 0.  1.
         13    1    3    3    0    0  0.36481597237E+02 -0.30272380822E+02  0.12944367953E+03  0.13785133350E+03  0.00000000000E+00 0. -1.
<mgrwt>
<rscale>  0 0.10113053E+03</rscale>
<asrwt>0</asrwt>
<pdfrwt beam="1">  1        3 0.30507717E-01 0.10113053E+03</pdfrwt>
<pdfrwt beam="2">  1       -3 0.19836641E-02 0.10113053E+03</pdfrwt>
<totfact> 0.21081575E+04</totfact>
</mgrwt>
</event>
<event>
 5    1  0.1239369E+001  0.8729820E+02  0.7546771E-02  0.1309530E+00
          3   -1    0    0  501    0  0.00000000000E+00  0.00000000000E+00  0.55533909358E+02  0.55533909358E+02  0.00000000000E+00 0. -1.
         -3   -1    0    0    0  501 -0.00000000000E+00 -0.00000000000E+00 -0.34307759238E+02  0.34307759238E+02  0.00000000000E+00 0.  1.
         23    2    1    2    0    0  0.00000000000E+00  0.00000000000E+00  0.21226150120E+02  0.89841668595E+02  0.87298201397E+02 0.  0.
        -11    1    3    3    0    0 -0.48996870550E+01  0.15851041111E+02  0.52162389096E+02  0.54737348070E+02  0.00000000000E+00 0. -1.
         11    1    3    3    0    0  0.48996870550E+01 -0.15851041111E+02 -0.30936238976E+02  0.35104320525E+02  0.00000000000E+00 0.  1.
<mgrwt>
<rscale>  0 0.87298201E+02</rscale>
<asrwt>0</asrwt>
<pdfrwt beam="1">  1        3 0.85436784E-02 0.87298201E+02</pdfrwt>
<pdfrwt beam="2">  1       -3 0.52781168E-02 0.87298201E+02</pdfrwt>
<totfact> 0.39879606E+04</totfact>
</mgrwt>
</event>
<event>
 5    1  0.1239369E+001  0.9185702E+02  0.7546771E-02  0.1298416E+00
          2   -1    0    0  501    0  0.00000000000E+00  0.00000000000E+00  0.20622107589E+02  0.20622107589E+02  0.00000000000E+00 0. -1.
         -2   -1    0    0    0  501 -0.00000000000E+00 -0.00000000000E+00 -0.10228963997E+03  0.10228963997E+03  0.00000000000E+00 0.  1.
         23    2    1    2    0    0  0.00000000000E+00  0.00000000000E+00 -0.81667532385E+02  0.12291174756E+03  0.91857018474E+02 0.  0.
        -13    1    3    3    0    0 -0.33647716763E+02 -0.29208227582E+01 -0.82480596686E+02  0.89127711059E+02  0.00000000000E+00 0.  1.
         13    1    3    3    0    0  0.33647716763E+02  0.29208227582E+01  0.81306430097E+00  0.33784036504E+02  0.00000000000E+00 0. -1.
<mgrwt>
<rscale>  0 0.91857018E+02</rscale>
<asrwt>0</asrwt>
<pdfrwt beam="1">  1        2 0.31726319E-02 0.91857018E+02</pdfrwt>
<pdfrwt beam="2">  1       -2 0.15736868E-01 0.91857018E+02</pdfrwt>
<totfact> 0.77811018E+04</totfact>
</mgrwt>
</event>
<event>
 5    1  0.1239369E+001  0.9123423E+02  0.7546771E-02  0.1299890E+00
         -3   -1    0    0    0  501 -0.00000000000E+00  0.00000000000E+00  0.15626872988E+02  0.15626872988E+02  0.00000000000E+00 0.  1.
          3   -1    0    0  501    0  0.00000000000E+00 -0.00000000000E+00 -0.13316298331E+03  0.13316298331E+03  0.00000000000E+00 0. -1.
         23    2    1    2    0    0  0.00000000000E+00  0.00000000000E+00 -0.11753611032E+03  0.14878985630E+03  0.91234226625E+02 0.  0.
        -11    1    3    3    0    0  0.22135001750E+02  0.29370635721E+02 -0.10278087319E+03  0.10916272459E+03  0.00000000000E+00 0. -1.
         11    1    3    3    0    0 -0.22135001750E+02 -0.29370635721E+02 -0.14755237134E+02  0.39627131715E+02  0.00000000000E+00 0.  1.
<mgrwt>
<rscale>  0 0.91234227E+02</rscale>
<asrwt>0</asrwt>
<pdfrwt beam="2">  1        3 0.20486611E-01 0.91234227E+02</pdfrwt>
<pdfrwt beam="1">  1       -3 0.24041345E-02 0.91234227E+02</pdfrwt>
<totfact> 0.31327673E+04</totfact>
</mgrwt>
</event>
<event>
 5    1  0.1239369E+001  0.9129523E+02  0.7546771E-02  0.1299745E+00
          2   -1    0    0  501    0  0.00000000000E+00  0.00000000000E+00  0.12344913283E+03  0.12344913283E+03  0.00000000000E+00 0. -1.
         -2   -1    0    0    0  501 -0.00000000000E+00 -0.00000000000E+00 -0.16879056195E+02  0.16879056195E+02  0.00000000000E+00 0.  1.
         23    2    1    2    0    0  0.00000000000E+00  0.00000000000E+00  0.10657007663E+03  0.14032818902E+03  0.91295232080E+02 0.  0.
        -11    1    3    3    0    0 -0.20655726372E+02  0.13928230323E+02  0.11207814918E+03  0.11481361485E+03  0.00000000000E+00 0. -1.
         11    1    3    3    0    0  0.20655726372E+02 -0.13928230323E+02 -0.55080725467E+01  0.25514574170E+02  0.00000000000E+00 0.  1.
<mgrwt>
<rscale>  0 0.91295232E+02</rscale>
<asrwt>0</asrwt>
<pdfrwt beam="1">  1        2 0.18992174E-01 0.91295232E+02</pdfrwt>
<pdfrwt beam="2">  1       -2 0.25967780E-02 0.91295232E+02</pdfrwt>
<totfact> 0.13058989E+05</totfact>
</mgrwt>
</event>
<event>
 5    1  0.1239369E+001  0.9148850E+02  0.7546771E-02  0.1299287E+00
          2   -1    0    0  501    0  0.00000000000E+00  0.00000000000E+00  0.12837671529E+02  0.12837671529E+02  0.00000000000E+00 0. -1.
         -2   -1    0    0    0  501 -0.00000000000E+00 -0.00000000000E+00 -0.16299967560E+03  0.16299967560E+03  0.00000000000E+00 0.  1.
         23    2    1    2    0    0  0.00000000000E+00  0.00000000000E+00 -0.15016200407E+03  0.17583734713E+03  0.91488497522E+02 0.  0.
        -13    1    3    3    0    0  0.15888052416E+02 -0.21554344856E+02 -0.14636261175E+03  0.14879191547E+03  0.00000000000E+00 0.  1.
         13    1    3    3    0    0 -0.15888052416E+02  0.21554344856E+02 -0.37993923269E+01  0.27045431662E+02  0.00000000000E+00 0. -1.
<mgrwt>
<rscale>  0 0.91488498E+02</rscale>
<asrwt>0</asrwt>
<pdfrwt beam="1">  1        2 0.19750263E-02 0.91488498E+02</pdfrwt>
<pdfrwt beam="2">  1       -2 0.25076874E-01 0.91488498E+02</pdfrwt>
<totfact> 0.67140837E+04</totfact>
</mgrwt>
</event>
<event>
 5    1  0.1239369E+001  0.1047217E+03  0.7546771E-02  0.1270669E+00
         -3   -1    0    0    0  501 -0.00000000000E+00  0.00000000000E+00  0.16821263725E+02  0.16821263725E+02  0.00000000000E+00 0.  1.
          3   -1    0    0  501    0  0.00000000000E+00 -0.00000000000E+00 -0.16298753370E+03  0.16298753370E+03  0.00000000000E+00 0. -1.
         23    2    1    2    0    0  0.00000000000E+00  0.00000000000E+00 -0.14616626997E+03  0.17980879742E+03  0.10472165561E+03 0.  0.
        -13    1    3    3    0    0 -0.45348945778E+02 -0.92031661172E+00 -0.11799820995E+03  0.12641578785E+03  0.00000000000E+00 0. -1.
         13    1    3    3    0    0  0.45348945778E+02  0.92031661172E+00 -0.28168060019E+02  0.53393009571E+02  0.00000000000E+00 0.  1.
<mgrwt>
<rscale>  0 0.10472166E+03</rscale>
<asrwt>0</asrwt>
<pdfrwt beam="2">  1        3 0.25075004E-01 0.10472166E+03</pdfrwt>
<pdfrwt beam="1">  1       -3 0.25878869E-02 0.10472166E+03</pdfrwt>
<totfact> 0.20275171E+04</totfact>
</mgrwt>
</event>
<event>
 5    1  0.1239369E+001  0.9175934E+02  0.7546771E-02  0.1298646E+00
          1   -1    0    0  501    0  0.00000000000E+00  0.00000000000E+00  0.37032181540E+02  0.37032181540E+02  0.00000000000E+00 0. -1.
         -1   -1    0    0    0  501 -0.00000000000E+00 -0.00000000000E+00 -0.56840937999E+02  0.56840937999E+02  0.00000000000E+00 0.  1.
         23    2    1    2    0    0  0.00000000000E+00  0.00000000000E+00 -0.19808756459E+02  0.93873119539E+02  0.91759335980E+02 0.  0.
        -11    1    3    3    0    0 -0.28063993049E+02  0.33491106105E+02 -0.24215993919E+02  0.49956543670E+02  0.00000000000E+00 0.  1.
         11    1    3    3    0    0  0.28063993049E+02 -0.33491106105E+02  0.44072374596E+01  0.43916575869E+02  0.00000000000E+00 0. -1.
<mgrwt>
<rscale>  0 0.91759336E+02</rscale>
<asrwt>0</asrwt>
<pdfrwt beam="1">  1        1 0.56972587E-02 0.91759336E+02</pdfrwt>
<pdfrwt beam="2">  1       -1 0.87447597E-02 0.91759336E+02</pdfrwt>
<totfact> 0.87995724E+04</totfact>
</mgrwt>
</event>
<event>
 5    1  0.1239369E+001  0.9088243E+02  0.7546771E-02  0.1300729E+00
         -2   -1    0    0    0  501 -0.00000000000E+00  0.00000000000E+00  0.16410343281E+02  0.16410343281E+02  0.00000000000E+00 0.  1.
          2   -1    0    0  501    0  0.00000000000E+00 -0.00000000000E+00 -0.12582941882E+03  0.12582941882E+03  0.00000000000E+00 0. -1.
         23    2    1    2    0    0  0.00000000000E+00  0.00000000000E+00 -0.10941907554E+03  0.14223976210E+03  0.90882428615E+02 0.  0.
        -11    1    3    3    0    0  0.42072704216E+02  0.13342876425E+02 -0.71621211297E+02  0.84129321280E+02  0.00000000000E+00 0. -1.
         11    1    3    3    0    0 -0.42072704216E+02 -0.13342876425E+02 -0.37797864245E+02  0.58110440825E+02  0.00000000000E+00 0.  1.
<mgrwt>
<rscale>  0 0.90882429E+02</rscale>
<asrwt>0</asrwt>
<pdfrwt beam="2">  1        2 0.19358373E-01 0.90882429E+02</pdfrwt>
<pdfrwt beam="1">  1       -2 0.25246681E-02 0.90882429E+02</pdfrwt>
<totfact> 0.13303745E+05</totfact>
</mgrwt>
</event>
<event>
 5    1  0.1239369E+001  0.1167041E+03  0.7546771E-02  0.1248635E+00
         -1   -1    0    0    0  501 -0.00000000000E+00  0.00000000000E+00  0.75478874299E+02  0.75478874299E+02  0.00000000000E+00 0.  1.
          1   -1    0    0  501    0  0.00000000000E+00 -0.00000000000E+00 -0.45111430623E+02  0.45111430623E+02  0.00000000000E+00 0. -1.
         23    2    1    2    0    0  0.00000000000E+00  0.00000000000E+00  0.30367443676E+02  0.12059030492E+03  0.11670407022E+03 0.  0.
        -11    1    3    3    0    0 -0.42703496495E+02 -0.75546323768E+01  0.55526096749E+02  0.70454300816E+02  0.00000000000E+00 0. -1.
         11    1    3    3    0    0  0.42703496495E+02  0.75546323768E+01 -0.25158653073E+02  0.50136004106E+02  0.00000000000E+00 0.  1.
<mgrwt>
<rscale>  0 0.11670407E+03</rscale>
<asrwt>0</asrwt>
<pdfrwt beam="2">  1        1 0.69402201E-02 0.11670407E+03</pdfrwt>
<pdfrwt beam="1">  1       -1 0.11612135E-01 0.11670407E+03</pdfrwt>
<totfact> 0.45449154E+04</totfact>
</mgrwt>
</event>
<event>
 5    1  0.1239369E+001  0.8933187E+02  0.7546771E-02  0.1304478E+00
          3   -1    0    0  501    0  0.00000000000E+00  0.00000000000E+00  0.21560050823E+02  0.21560050823E+02  0.00000000000E+00 0. -1.
         -3   -1    0    0    0  501 -0.00000000000E+00 -0.00000000000E+00 -0.92534381078E+02  0.92534381078E+02  0.00000000000E+00 0.  1.
         23    2    1    2    0    0  0.00000000000E+00  0.00000000000E+00 -0.70974330256E+02  0.11409443190E+03  0.89331874690E+02 0.  0.
        -13    1    3    3    0    0  0.19578493325E+02 -0.51694661741E+01 -0.86335102991E+02  0.88678017512E+02  0.00000000000E+00 0.  1.
         13    1    3    3    0    0 -0.19578493325E+02  0.51694661741E+01  0.15360772735E+02  0.25416414390E+02  0.00000000000E+00 0. -1.
<mgrwt>
<rscale>  0 0.89331875E+02</rscale>
<asrwt>0</asrwt>
<pdfrwt beam="1">  1        3 0.33169309E-02 0.89331875E+02</pdfrwt>
<pdfrwt beam="2">  1       -3 0.14236059E-01 0.89331875E+02</pdfrwt>
<totfact> 0.35574250E+04</totfact>
</mgrwt>
</event>
<event>
 5    1  0.1239369E+001  0.9179862E+02  0.7546771E-02  0.1298554E+00
          1   -1    0    0  501    0  0.00000000000E+00  0.00000000000E+00  0.15664655941E+03  0.15664655941E+03  0.00000000000E+00 0. -1.
         -1   -1    0    0    0  501 -0.00000000000E+00 -0.00000000000E+00 -0.13449045539E+02  0.13449045539E+02  0.00000000000E+00 0.  1.
         23    2    1    2    0    0  0.00000000000E+00  0.00000000000E+00  0.14319751388E+03  0.17009560495E+03  0.91798621145E+02 0.  0.
        -13    1    3    3    0    0  0.21904485543E+02  0.37162994510E+02  0.10065194952E+03  0.10950666459E+03  0.00000000000E+00 0. -1.
         13    1    3    3    0    0 -0.21904485543E+02 -0.37162994510E+02  0.42545564360E+02  0.60588940365E+02  0.00000000000E+00 0.  1.
<mgrwt>
<rscale>  0 0.91798621E+02</rscale>
<asrwt>0</asrwt>
<pdfrwt beam="1">  1        1 0.24099469E-01 0.91798621E+02</pdfrwt>
<pdfrwt beam="2">  1       -1 0.20690840E-02 0.91798621E+02</pdfrwt>
<totfact> 0.11098000E+05</totfact>
</mgrwt>
</event>
<event>
 5    1  0.1239369E+001  0.9223249E+02  0.7546771E-02  0.1297534E+00
          2   -1    0    0  501    0  0.00000000000E+00  0.00000000000E+00  0.18672603070E+03  0.18672603070E+03  0.00000000000E+00 0. -1.
         -2   -1    0    0    0  501 -0.00000000000E+00 -0.00000000000E+00 -0.11389455691E+02  0.11389455691E+02  0.00000000000E+00 0.  1.
         23    2    1    2    0    0  0.00000000000E+00  0.00000000000E+00  0.17533657500E+03  0.19811548639E+03  0.92232485666E+02 0.  0.
        -13    1    3    3    0    0  0.15341781798E+02  0.35261524249E+02  0.14234588774E+03  0.14744862535E+03  0.00000000000E+00 0. -1.
         13    1    3    3    0    0 -0.15341781798E+02 -0.35261524249E+02  0.32990687263E+02  0.50666861036E+02  0.00000000000E+00 0.  1.
<mgrwt>
<rscale>  0 0.92232486E+02</rscale>
<asrwt>0</asrwt>
<pdfrwt beam="1">  1        2 0.28727079E-01 0.92232486E+02</pdfrwt>
<pdfrwt beam="2">  1       -2 0.17522241E-02 0.92232486E+02</pdfrwt>
<totfact> 0.14628621E+05</totfact>
</mgrwt>
</event>
<event>
 5    1  0.1239369E+001  0.9067800E+02  0.7546771E-02  0.1301218E+00
          3   -1    0    0  501    0  0.00000000000E+00  0.00000000000E+00  0.24020852269E+02  0.24020852269E+02  0.00000000000E+00 0.  1.
         -3   -1    0    0    0  501 -0.00000000000E+00 -0.00000000000E+00 -0.85576688195E+02  0.85576688195E+02  0.00000000000E+00 0. -1.
         23    2    1    2    0    0  0.00000000000E+00  0.00000000000E+00 -0.61555835926E+02  0.10959754046E+03  0.90678001408E+02 0.  0.
        -13    1    3    3    0    0  0.10395031390E+02 -0.32310547470E+02 -0.67109659649E+02  0.75204618034E+02  0.00000000000E+00 0. -1.
         13    1    3    3    0    0 -0.10395031390E+02  0.32310547470E+02  0.55538237227E+01  0.34392922431E+02  0.00000000000E+00 0.  1.
<mgrwt>
<rscale>  0 0.90678001E+02</rscale>
<asrwt>0</asrwt>
<pdfrwt beam="1">  1        3 0.36955157E-02 0.90678001E+02</pdfrwt>
<pdfrwt beam="2">  1       -3 0.13165644E-01 0.90678001E+02</pdfrwt>
<totfact> 0.34485078E+04</totfact>
</mgrwt>
</event>
<event>
 5    1  0.1239369E+001  0.9160400E+02  0.7546771E-02  0.1299013E+00
          3   -1    0    0  501    0  0.00000000000E+00  0.00000000000E+00  0.18452313581E+02  0.18452313581E+02  0.00000000000E+00 0.  1.
         -3   -1    0    0    0  501 -0.00000000000E+00 -0.00000000000E+00 -0.11368888852E+03  0.11368888852E+03  0.00000000000E+00 0. -1.
         23    2    1    2    0    0  0.00000000000E+00  0.00000000000E+00 -0.95236574943E+02  0.13214120210E+03  0.91603996020E+02 0.  0.
        -13    1    3    3    0    0  0.27534445017E+02 -0.33194668807E+02 -0.25373829139E+02  0.50038614137E+02  0.00000000000E+00 0.  1.
         13    1    3    3    0    0 -0.27534445017E+02  0.33194668807E+02 -0.69862745804E+02  0.82102587967E+02  0.00000000000E+00 0. -1.
<mgrwt>
<rscale>  0 0.91603996E+02</rscale>
<asrwt>0</asrwt>
<pdfrwt beam="1">  1        3 0.28388174E-02 0.91603996E+02</pdfrwt>
<pdfrwt beam="2">  1       -3 0.17490599E-01 0.91603996E+02</pdfrwt>
<totfact> 0.32027732E+04</totfact>
</mgrwt>
</event>
<event>
 5    1  0.1239369E+001  0.8950815E+02  0.7546771E-02  0.1304047E+00
         -3   -1    0    0    0  501 -0.00000000000E+00  0.00000000000E+00  0.76413412637E+02  0.76413412637E+02  0.00000000000E+00 0.  1.
          3   -1    0    0  501    0  0.00000000000E+00 -0.00000000000E+00 -0.26211723450E+02  0.26211723450E+02  0.00000000000E+00 0. -1.
         23    2    1    2    0    0  0.00000000000E+00  0.00000000000E+00  0.50201689187E+02  0.10262513609E+03  0.89508150241E+02 0.  0.
        -11    1    3    3    0    0 -0.16242475101E+02  0.29038121388E+02 -0.92170111323E+01  0.34525118180E+02  0.00000000000E+00 0. -1.
         11    1    3    3    0    0  0.16242475101E+02 -0.29038121388E+02  0.59418700319E+02  0.68100017906E+02  0.00000000000E+00 0.  1.
<mgrwt>
<rscale>  0 0.89508150E+02</rscale>
<asrwt>0</asrwt>
<pdfrwt beam="2">  1        3 0.40325729E-02 0.89508150E+02</pdfrwt>
<pdfrwt beam="1">  1       -3 0.11755909E-01 0.89508150E+02</pdfrwt>
<totfact> 0.36251591E+04</totfact>
</mgrwt>
</event>
<event>
 5    1  0.1239369E+001  0.9070852E+02  0.7546771E-02  0.1301145E+00
         -1   -1    0    0    0  501 -0.00000000000E+00  0.00000000000E+00  0.42985364418E+02  0.42985364418E+02  0.00000000000E+00 0.  1.
          1   -1    0    0  501    0  0.00000000000E+00 -0.00000000000E+00 -0.47853702202E+02  0.47853702202E+02  0.00000000000E+00 0. -1.
         23    2    1    2    0    0  0.00000000000E+00  0.00000000000E+00 -0.48683377843E+01  0.90839066621E+02  0.90708518408E+02 0.  0.
        -13    1    3    3    0    0  0.94560577667E+01 -0.10426309952E+02  0.40742657565E+02  0.43105557799E+02  0.00000000000E+00 0.  1.
         13    1    3    3    0    0 -0.94560577667E+01  0.10426309952E+02 -0.45610995349E+02  0.47733508822E+02  0.00000000000E+00 0. -1.
<mgrwt>
<rscale>  0 0.90708518E+02</rscale>
<asrwt>0</asrwt>
<pdfrwt beam="2">  1        1 0.73621080E-02 0.90708518E+02</pdfrwt>
<pdfrwt beam="1">  1       -1 0.66131330E-02 0.90708518E+02</pdfrwt>
<totfact> 0.94500516E+04</totfact>
</mgrwt>
</event>
<event>
 5    1  0.1239369E+001  0.9358619E+02  0.7546771E-02  0.1294392E+00
          4   -1    0    0  501    0  0.00000000000E+00  0.00000000000E+00  0.13506668011E+03  0.13506668011E+03  0.00000000000E+00 0. -1.
         -4   -1    0    0    0  501 -0.00000000000E+00 -0.00000000000E+00 -0.16211206254E+02  0.16211206254E+02  0.00000000000E+00 0.  1.
         23    2    1    2    0    0  0.00000000000E+00  0.00000000000E+00  0.11885547385E+03  0.15127788636E+03  0.93586191487E+02 0.  0.
        -11    1    3    3    0    0  0.29661255211E+02  0.24340348849E+02  0.10272192291E+03  0.10965416586E+03  0.00000000000E+00 0. -1.
         11    1    3    3    0    0 -0.29661255211E+02 -0.24340348849E+02  0.16133550941E+02  0.41623720506E+02  0.00000000000E+00 0.  1.
<mgrwt>
<rscale>  0 0.93586191E+02</rscale>
<asrwt>0</asrwt>
<pdfrwt beam="1">  1        4 0.20779488E-01 0.93586191E+02</pdfrwt>
<pdfrwt beam="2">  1       -4 0.24940318E-02 0.93586191E+02</pdfrwt>
<totfact> 0.22003743E+04</totfact>
</mgrwt>
</event>
<event>
 5    1  0.1239369E+001  0.9196134E+02  0.7546771E-02  0.1298170E+00
         -4   -1    0    0    0  501 -0.00000000000E+00  0.00000000000E+00  0.93275463750E+01  0.93275463750E+01  0.00000000000E+00 0.  1.
          4   -1    0    0  501    0  0.00000000000E+00 -0.00000000000E+00 -0.22666431658E+03  0.22666431658E+03  0.00000000000E+00 0. -1.
         23    2    1    2    0    0  0.00000000000E+00  0.00000000000E+00 -0.21733677021E+03  0.23599186296E+03  0.91961338061E+02 0.  0.
        -11    1    3    3    0    0  0.30452313244E+02  0.11997643658E+02 -0.25793987118E+02  0.41672732173E+02  0.00000000000E+00 0.  1.
         11    1    3    3    0    0 -0.30452313244E+02 -0.11997643658E+02 -0.19154278309E+03  0.19431913079E+03  0.00000000000E+00 0. -1.
<mgrwt>
<rscale>  0 0.91961338E+02</rscale>
<asrwt>0</asrwt>
<pdfrwt beam="2">  1        4 0.34871428E-01 0.91961338E+02</pdfrwt>
<pdfrwt beam="1">  1       -4 0.14350073E-02 0.91961338E+02</pdfrwt>
<totfact> 0.19518465E+04</totfact>
</mgrwt>
</event>
<event>
 5    1  0.1239369E+001  0.8314353E+02  0.7546771E-02  0.1320360E+00
         -2   -1    0    0    0  501 -0.00000000000E+00  0.00000000000E+00  0.21195615632E+02  0.21195615632E+02  0.00000000000E+00 0. -1.
          2   -1    0    0  501    0  0.00000000000E+00 -0.00000000000E+00 -0.81536283167E+02  0.81536283167E+02  0.00000000000E+00 0.  1.
         23    2    1    2    0    0  0.00000000000E+00  0.00000000000E+00 -0.60340667534E+02  0.10273189880E+03  0.83143531753E+02 0.  0.
        -11    1    3    3    0    0 -0.13464126977E+02  0.36959223897E+02 -0.46791055038E+02  0.61128305865E+02  0.00000000000E+00 0.  1.
         11    1    3    3    0    0  0.13464126977E+02 -0.36959223897E+02 -0.13549612496E+02  0.41603592935E+02  0.00000000000E+00 0. -1.
<mgrwt>
<rscale>  0 0.83143532E+02</rscale>
<asrwt>0</asrwt>
<pdfrwt beam="2">  1        2 0.12544044E-01 0.83143532E+02</pdfrwt>
<pdfrwt beam="1">  1       -2 0.32608639E-02 0.83143532E+02</pdfrwt>
<totfact> 0.14889447E+05</totfact>
</mgrwt>
</event>
<event>
 5    1  0.1239369E+001  0.9158514E+02  0.7546771E-02  0.1299058E+00
          2   -1    0    0  501    0  0.00000000000E+00  0.00000000000E+00  0.10356872873E+03  0.10356872873E+03  0.00000000000E+00 0. -1.
         -2   -1    0    0    0  501 -0.00000000000E+00 -0.00000000000E+00 -0.20247034080E+02  0.20247034080E+02  0.00000000000E+00 0.  1.
         23    2    1    2    0    0  0.00000000000E+00  0.00000000000E+00  0.83321694654E+02  0.12381576281E+03  0.91585142469E+02 0.  0.
        -11    1    3    3    0    0  0.18617733215E+02  0.17606079888E+02  0.92969105783E+02  0.96435722993E+02  0.00000000000E+00 0. -1.
         11    1    3    3    0    0 -0.18617733215E+02 -0.17606079888E+02 -0.96474111288E+01  0.27380039821E+02  0.00000000000E+00 0.  1.
<mgrwt>
<rscale>  0 0.91585142E+02</rscale>
<asrwt>0</asrwt>
<pdfrwt beam="1">  1        2 0.15933650E-01 0.91585142E+02</pdfrwt>
<pdfrwt beam="2">  1       -2 0.31149284E-02 0.91585142E+02</pdfrwt>
<totfact> 0.12248384E+05</totfact>
</mgrwt>
</event>
<event>
 5    1  0.1239369E+001  0.8519877E+02  0.7546771E-02  0.1314914E+00
          1   -1    0    0  501    0  0.00000000000E+00  0.00000000000E+00  0.11350655747E+03  0.11350655747E+03  0.00000000000E+00 0. -1.
         -1   -1    0    0    0  501 -0.00000000000E+00 -0.00000000000E+00 -0.15987687911E+02  0.15987687911E+02  0.00000000000E+00 0.  1.
         23    2    1    2    0    0  0.00000000000E+00  0.00000000000E+00  0.97518869556E+02  0.12949424538E+03  0.85198765640E+02 0.  0.
        -11    1    3    3    0    0  0.24993790321E+02 -0.20747249600E+02  0.68703449475E+01  0.33201499368E+02  0.00000000000E+00 0.  1.
         11    1    3    3    0    0 -0.24993790321E+02  0.20747249600E+02  0.90648524609E+02  0.96292746011E+02  0.00000000000E+00 0. -1.
<mgrwt>
<rscale>  0 0.85198766E+02</rscale>
<asrwt>0</asrwt>
<pdfrwt beam="1">  1        1 0.17462547E-01 0.85198766E+02</pdfrwt>
<pdfrwt beam="2">  1       -1 0.24596444E-02 0.85198766E+02</pdfrwt>
<totfact> 0.12817420E+05</totfact>
</mgrwt>
</event>
<event>
 5    1  0.1239369E+001  0.9138412E+02  0.7546771E-02  0.1299534E+00
          1   -1    0    0  501    0  0.00000000000E+00  0.00000000000E+00  0.63493361437E+01  0.63493361437E+01  0.00000000000E+00 0. -1.
         -1   -1    0    0    0  501 -0.00000000000E+00 -0.00000000000E+00 -0.32881613752E+03  0.32881613752E+03  0.00000000000E+00 0.  1.
         23    2    1    2    0    0  0.00000000000E+00  0.00000000000E+00 -0.32246680137E+03  0.33516547366E+03  0.91384116488E+02 0.  0.
        -11    1    3    3    0    0  0.40952029569E+02  0.63588593570E+00 -0.23552412804E+03  0.23905875421E+03  0.00000000000E+00 0.  1.
         11    1    3    3    0    0 -0.40952029569E+02 -0.63588593570E+00 -0.86942673335E+02  0.96106719450E+02  0.00000000000E+00 0. -1.
<mgrwt>
<rscale>  0 0.91384116E+02</rscale>
<asrwt>0</asrwt>
<pdfrwt beam="1">  1        1 0.97682114E-03 0.91384116E+02</pdfrwt>
<pdfrwt beam="2">  1       -1 0.50587088E-01 0.91384116E+02</pdfrwt>
<totfact> 0.58009526E+04</totfact>
</mgrwt>
</event>
<event>
 5    1  0.1239369E+001  0.8947688E+02  0.7546771E-02  0.1304123E+00
         -1   -1    0    0    0  501 -0.00000000000E+00  0.00000000000E+00  0.60655560714E+02  0.60655560714E+02  0.00000000000E+00 0.  1.
          1   -1    0    0  501    0  0.00000000000E+00 -0.00000000000E+00 -0.32998263738E+02  0.32998263738E+02  0.00000000000E+00 0. -1.
         23    2    1    2    0    0  0.00000000000E+00  0.00000000000E+00  0.27657296976E+02  0.93653824451E+02  0.89476883933E+02 0.  0.
        -13    1    3    3    0    0 -0.78385697812E+01 -0.34960061921E+02  0.41872671556E+02  0.55108708286E+02  0.00000000000E+00 0.  1.
         13    1    3    3    0    0  0.78385697812E+01  0.34960061921E+02 -0.14215374581E+02  0.38545116165E+02  0.00000000000E+00 0. -1.
<mgrwt>
<rscale>  0 0.89476884E+02</rscale>
<asrwt>0</asrwt>
<pdfrwt beam="2">  1        1 0.50766560E-02 0.89476884E+02</pdfrwt>
<pdfrwt beam="1">  1       -1 0.93316247E-02 0.89476884E+02</pdfrwt>
<totfact> 0.92854804E+04</totfact>
</mgrwt>
</event>
<event>
 5    1  0.1239369E+001  0.8941503E+02  0.7546771E-02  0.1304274E+00
          2   -1    0    0  501    0  0.00000000000E+00  0.00000000000E+00  0.56593573081E+02  0.56593573081E+02  0.00000000000E+00 0. -1.
         -2   -1    0    0    0  501 -0.00000000000E+00 -0.00000000000E+00 -0.35317827211E+02  0.35317827211E+02  0.00000000000E+00 0.  1.
         23    2    1    2    0    0  0.00000000000E+00  0.00000000000E+00  0.21275745870E+02  0.91911400292E+02  0.89415033083E+02 0.  0.
        -13    1    3    3    0    0  0.20496766119E+02 -0.36536974374E+02  0.26684411501E+02  0.49670169467E+02  0.00000000000E+00 0. -1.
         13    1    3    3    0    0 -0.20496766119E+02  0.36536974374E+02 -0.54086656307E+01  0.42241230825E+02  0.00000000000E+00 0.  1.
<mgrwt>
<rscale>  0 0.89415033E+02</rscale>
<asrwt>0</asrwt>
<pdfrwt beam="1">  1        2 0.87067036E-02 0.89415033E+02</pdfrwt>
<pdfrwt beam="2">  1       -2 0.54335119E-02 0.89415033E+02</pdfrwt>
<totfact> 0.11034062E+05</totfact>
</mgrwt>
</event>
<event>
 5    1  0.1239369E+001  0.9078681E+02  0.7546771E-02  0.1300957E+00
         -2   -1    0    0    0  501 -0.00000000000E+00  0.00000000000E+00  0.43137359968E+02  0.43137359968E+02  0.00000000000E+00 0. -1.
          2   -1    0    0  501    0  0.00000000000E+00 -0.00000000000E+00 -0.47767438978E+02  0.47767438978E+02  0.00000000000E+00 0.  1.
         23    2    1    2    0    0  0.00000000000E+00  0.00000000000E+00 -0.46300790106E+01  0.90904798946E+02  0.90786809834E+02 0.  0.
        -11    1    3    3    0    0  0.41319246520E+02  0.82808365399E+01 -0.19210285445E+02  0.46312929660E+02  0.00000000000E+00 0.  1.
         11    1    3    3    0    0 -0.41319246520E+02 -0.82808365399E+01  0.14580206434E+02  0.44591869287E+02  0.00000000000E+00 0. -1.
<mgrwt>
<rscale>  0 0.90786810E+02</rscale>
<asrwt>0</asrwt>
<pdfrwt beam="2">  1        2 0.73488368E-02 0.90786810E+02</pdfrwt>
<pdfrwt beam="1">  1       -2 0.66365169E-02 0.90786810E+02</pdfrwt>
<totfact> 0.10111119E+05</totfact>
</mgrwt>
</event>
<event>
 5    1  0.1239369E+001  0.9285941E+02  0.7546771E-02  0.1296071E+00
         -1   -1    0    0    0  501 -0.00000000000E+00  0.00000000000E+00  0.46724188165E+02  0.46724188165E+02  0.00000000000E+00 0.  1.
          1   -1    0    0  501    0  0.00000000000E+00 -0.00000000000E+00 -0.46137077639E+02  0.46137077639E+02  0.00000000000E+00 0. -1.
         23    2    1    2    0    0  0.00000000000E+00  0.00000000000E+00  0.58711052655E+00  0.92861265804E+02  0.92859409797E+02 0.  0.
        -11    1    3    3    0    0 -0.20286173599E+02  0.21123140478E+02 -0.35734954025E+02  0.46202844524E+02  0.00000000000E+00 0. -1.
         11    1    3    3    0    0  0.20286173599E+02 -0.21123140478E+02  0.36322064552E+02  0.46658421279E+02  0.00000000000E+00 0.  1.
<mgrwt>
<rscale>  0 0.92859410E+02</rscale>
<asrwt>0</asrwt>
<pdfrwt beam="2">  1        1 0.70980119E-02 0.92859410E+02</pdfrwt>
<pdfrwt beam="1">  1       -1 0.71883366E-02 0.92859410E+02</pdfrwt>
<totfact> 0.87995282E+04</totfact>
</mgrwt>
</event>
<event>
 5    1  0.1239369E+001  0.9016851E+02  0.7546771E-02  0.1302444E+00
          1   -1    0    0  501    0  0.00000000000E+00  0.00000000000E+00  0.21473481546E+02  0.21473481546E+02  0.00000000000E+00 0. -1.
         -1   -1    0    0    0  501 -0.00000000000E+00 -0.00000000000E+00 -0.94655826105E+02  0.94655826105E+02  0.00000000000E+00 0.  1.
         23    2    1    2    0    0  0.00000000000E+00  0.00000000000E+00 -0.73182344559E+02  0.11612930765E+03  0.90168511911E+02 0.  0.
        -13    1    3    3    0    0 -0.32881940972E+02  0.98347824064E+01  0.10601168230E+01  0.34337571766E+02  0.00000000000E+00 0. -1.
         13    1    3    3    0    0  0.32881940972E+02 -0.98347824064E+01 -0.74242461382E+02  0.81791735885E+02  0.00000000000E+00 0.  1.
<mgrwt>
<rscale>  0 0.90168512E+02</rscale>
<asrwt>0</asrwt>
<pdfrwt beam="1">  1        1 0.33036126E-02 0.90168512E+02</pdfrwt>
<pdfrwt beam="2">  1       -1 0.14562434E-01 0.90168512E+02</pdfrwt>
<totfact> 0.84577698E+04</totfact>
</mgrwt>
</event>
<event>
 5    1  0.1239369E+001  0.9135206E+02  0.7546771E-02  0.1299610E+00
          1   -1    0    0  501    0  0.00000000000E+00  0.00000000000E+00  0.59356726519E+01  0.59356726519E+01  0.00000000000E+00 0. -1.
         -1   -1    0    0    0  501 -0.00000000000E+00 -0.00000000000E+00 -0.35148500342E+03  0.35148500342E+03  0.00000000000E+00 0.  1.
         23    2    1    2    0    0  0.00000000000E+00  0.00000000000E+00 -0.34554933077E+03  0.35742067608E+03  0.91352064506E+02 0.  0.
        -11    1    3    3    0    0  0.37179219984E+02 -0.20875853217E+02 -0.23685048267E+03  0.24065794562E+03  0.00000000000E+00 0. -1.
         11    1    3    3    0    0 -0.37179219984E+02  0.20875853217E+02 -0.10869884810E+03  0.11676273046E+03  0.00000000000E+00 0.  1.
<mgrwt>
<rscale>  0 0.91352065E+02</rscale>
<asrwt>0</asrwt>
<pdfrwt beam="1">  1        1 0.91318020E-03 0.91352065E+02</pdfrwt>
<pdfrwt beam="2">  1       -1 0.54074628E-01 0.91352065E+02</pdfrwt>
<totfact> 0.56394843E+04</totfact>
</mgrwt>
</event>
<event>
 5    1  0.1239369E+001  0.9119534E+02  0.7546771E-02  0.1299983E+00
          2   -1    0    0  501    0  0.00000000000E+00  0.00000000000E+00  0.38376262783E+02  0.38376262783E+02  0.00000000000E+00 0. -1.
         -2   -1    0    0    0  501 -0.00000000000E+00 -0.00000000000E+00 -0.54177962771E+02  0.54177962771E+02  0.00000000000E+00 0.  1.
         23    2    1    2    0    0  0.00000000000E+00  0.00000000000E+00 -0.15801699988E+02  0.92554225554E+02  0.91195344977E+02 0.  0.
        -11    1    3    3    0    0 -0.85963308084E+01  0.22264424172E+02 -0.47332667245E+02  0.53009271600E+02  0.00000000000E+00 0.  1.
         11    1    3    3    0    0  0.85963308084E+01 -0.22264424172E+02  0.31530967257E+02  0.39544953954E+02  0.00000000000E+00 0. -1.
<mgrwt>
<rscale>  0 0.91195345E+02</rscale>
<asrwt>0</asrwt>
<pdfrwt beam="1">  1        2 0.59040405E-02 0.91195345E+02</pdfrwt>
<pdfrwt beam="2">  1       -2 0.83350711E-02 0.91195345E+02</pdfrwt>
<totfact> 0.94314502E+04</totfact>
</mgrwt>
</event>
<event>
 5    1  0.1239369E+001  0.9220743E+02  0.7546771E-02  0.1297592E+00
          4   -1    0    0  501    0  0.00000000000E+00  0.00000000000E+00  0.11663753128E+03  0.11663753128E+03  0.00000000000E+00 0. -1.
         -4   -1    0    0    0  501 -0.00000000000E+00 -0.00000000000E+00 -0.18223572719E+02  0.18223572719E+02  0.00000000000E+00 0.  1.
         23    2    1    2    0    0  0.00000000000E+00  0.00000000000E+00  0.98413958556E+02  0.13486110400E+03  0.92207429918E+02 0.  0.
        -11    1    3    3    0    0 -0.21853519628E+02  0.30764328327E+01  0.10841023314E+03  0.11063371733E+03  0.00000000000E+00 0. -1.
         11    1    3    3    0    0  0.21853519628E+02 -0.30764328327E+01 -0.99962745887E+01  0.24227386668E+02  0.00000000000E+00 0.  1.
<mgrwt>
<rscale>  0 0.92207430E+02</rscale>
<asrwt>0</asrwt>
<pdfrwt beam="1">  1        4 0.17944235E-01 0.92207430E+02</pdfrwt>
<pdfrwt beam="2">  1       -4 0.28036266E-02 0.92207430E+02</pdfrwt>
<totfact> 0.23724408E+04</totfact>
</mgrwt>
</event>
<event>
 5    1  0.1239369E+001  0.8368609E+02  0.7546771E-02  0.1318905E+00
          2   -1    0    0  501    0  0.00000000000E+00  0.00000000000E+00  0.37532331329E+02  0.37532331329E+02  0.00000000000E+00 0.  1.
         -2   -1    0    0    0  501 -0.00000000000E+00 -0.00000000000E+00 -0.46648857322E+02  0.46648857322E+02  0.00000000000E+00 0. -1.
         23    2    1    2    0    0  0.00000000000E+00  0.00000000000E+00 -0.91165259929E+01  0.84181188652E+02  0.83686088908E+02 0.  0.
        -11    1    3    3    0    0 -0.27279848553E+02  0.23181391000E+02  0.17232614788E+02  0.39730719075E+02  0.00000000000E+00 0.  1.
         11    1    3    3    0    0  0.27279848553E+02 -0.23181391000E+02 -0.26349140781E+02  0.44450469577E+02  0.00000000000E+00 0. -1.
<mgrwt>
<rscale>  0 0.83686089E+02</rscale>
<asrwt>0</asrwt>
<pdfrwt beam="1">  1        2 0.57742048E-02 0.83686089E+02</pdfrwt>
<pdfrwt beam="2">  1       -2 0.71767473E-02 0.83686089E+02</pdfrwt>
<totfact> 0.12012052E+05</totfact>
</mgrwt>
</event>
<event>
 5    1  0.1239369E+001  0.9133551E+02  0.7546771E-02  0.1299649E+00
          2   -1    0    0  501    0  0.00000000000E+00  0.00000000000E+00  0.96560000231E+02  0.96560000231E+02  0.00000000000E+00 0. -1.
         -2   -1    0    0    0  501 -0.00000000000E+00 -0.00000000000E+00 -0.21598424410E+02  0.21598424410E+02  0.00000000000E+00 0.  1.
         23    2    1    2    0    0  0.00000000000E+00  0.00000000000E+00  0.74961575821E+02  0.11815842464E+03  0.91335510422E+02 0.  0.
        -13    1    3    3    0    0 -0.21591777900E+02 -0.36799906651E+02  0.16417086067E+02  0.45716066293E+02  0.00000000000E+00 0. -1.
         13    1    3    3    0    0  0.21591777900E+02  0.36799906651E+02  0.58544489754E+02  0.72442358348E+02  0.00000000000E+00 0.  1.
<mgrwt>
<rscale>  0 0.91335510E+02</rscale>
<asrwt>0</asrwt>
<pdfrwt beam="1">  1        2 0.14855384E-01 0.91335510E+02</pdfrwt>
<pdfrwt beam="2">  1       -2 0.33228346E-02 0.91335510E+02</pdfrwt>
<totfact> 0.12080072E+05</totfact>
</mgrwt>
</event>
<event>
 5    1  0.1239369E+001  0.8642223E+02  0.7546771E-02  0.1311755E+00
         -2   -1    0    0    0  501 -0.00000000000E+00  0.00000000000E+00  0.94890262171E+01  0.94890262171E+01  0.00000000000E+00 0.  1.
          2   -1    0    0  501    0  0.00000000000E+00 -0.00000000000E+00 -0.19677471731E+03  0.19677471731E+03  0.00000000000E+00 0. -1.
         23    2    1    2    0    0  0.00000000000E+00  0.00000000000E+00 -0.18728569110E+03  0.20626374353E+03  0.86422229813E+02 0.  0.
        -11    1    3    3    0    0  0.22774211966E+02 -0.36521013671E+02 -0.10280953038E+03  0.11145514213E+03  0.00000000000E+00 0.  1.
         11    1    3    3    0    0 -0.22774211966E+02  0.36521013671E+02 -0.84476160719E+02  0.94808601404E+02  0.00000000000E+00 0. -1.
<mgrwt>
<rscale>  0 0.86422230E+02</rscale>
<asrwt>0</asrwt>
<pdfrwt beam="2">  1        2 0.30273031E-01 0.86422230E+02</pdfrwt>
<pdfrwt beam="1">  1       -2 0.14598503E-02 0.86422230E+02</pdfrwt>
<totfact> 0.17753750E+05</totfact>
</mgrwt>
</event>
<event>
 5    1  0.1239369E+001  0.9004124E+02  0.7546771E-02  0.1302752E+00
         -1   -1    0    0    0  501 -0.00000000000E+00  0.00000000000E+00  0.23694726687E+02  0.23694726687E+02  0.00000000000E+00 0.  1.
          1   -1    0    0  501    0  0.00000000000E+00 -0.00000000000E+00 -0.85540392671E+02  0.85540392671E+02  0.00000000000E+00 0. -1.
         23    2    1    2    0    0  0.00000000000E+00  0.00000000000E+00 -0.61845665984E+02  0.10923511936E+03  0.90041239996E+02 0.  0.
        -11    1    3    3    0    0  0.30169936109E+02 -0.23769101122E+02 -0.59417065662E+02  0.70750144204E+02  0.00000000000E+00 0. -1.
         11    1    3    3    0    0 -0.30169936109E+02  0.23769101122E+02 -0.24286003212E+01  0.38484975153E+02  0.00000000000E+00 0.  1.
<mgrwt>
<rscale>  0 0.90041240E+02</rscale>
<asrwt>0</asrwt>
<pdfrwt beam="2">  1        1 0.13160060E-01 0.90041240E+02</pdfrwt>
<pdfrwt beam="1">  1       -1 0.36453426E-02 0.90041240E+02</pdfrwt>
<totfact> 0.10537281E+05</totfact>
</mgrwt>
</event>
<event>
 5    1  0.1239369E+001  0.9119196E+02  0.7546771E-02  0.1299991E+00
         -1   -1    0    0    0  501 -0.00000000000E+00  0.00000000000E+00  0.37122056293E+02  0.37122056293E+02  0.00000000000E+00 0.  1.
          1   -1    0    0  501    0  0.00000000000E+00 -0.00000000000E+00 -0.56004265958E+02  0.56004265958E+02  0.00000000000E+00 0. -1.
         23    2    1    2    0    0  0.00000000000E+00  0.00000000000E+00 -0.18882209665E+02  0.93126322251E+02  0.91191962662E+02 0.  0.
        -13    1    3    3    0    0  0.36193270699E+02 -0.27684483627E+02 -0.11090934613E+02  0.46897679134E+02  0.00000000000E+00 0.  1.
         13    1    3    3    0    0 -0.36193270699E+02  0.27684483627E+02 -0.77912750526E+01  0.46228643118E+02  0.00000000000E+00 0. -1.
<mgrwt>
<rscale>  0 0.91191963E+02</rscale>
<asrwt>0</asrwt>
<pdfrwt beam="2">  1        1 0.86160408E-02 0.91191963E+02</pdfrwt>
<pdfrwt beam="1">  1       -1 0.57110856E-02 0.91191963E+02</pdfrwt>
<totfact> 0.95330329E+04</totfact>
</mgrwt>
</event>
<event>
 5    1  0.1239369E+001  0.9093051E+02  0.7546771E-02  0.1300614E+00
          2   -1    0    0  501    0  0.00000000000E+00  0.00000000000E+00  0.12106026201E+03  0.12106026201E+03  0.00000000000E+00 0. -1.
         -2   -1    0    0    0  501 -0.00000000000E+00 -0.00000000000E+00 -0.17074878804E+02  0.17074878804E+02  0.00000000000E+00 0.  1.
         23    2    1    2    0    0  0.00000000000E+00  0.00000000000E+00  0.10398538320E+03  0.13813514081E+03  0.90930507571E+02 0.  0.
        -11    1    3    3    0    0 -0.34681855625E+01 -0.18684278627E+02  0.11473764757E+03  0.11630072376E+03  0.00000000000E+00 0. -1.
         11    1    3    3    0    0  0.34681855625E+01  0.18684278627E+02 -0.10752264363E+02  0.21834417048E+02  0.00000000000E+00 0.  1.
<mgrwt>
<rscale>  0 0.90930508E+02</rscale>
<asrwt>0</asrwt>
<pdfrwt beam="1">  1        2 0.18624655E-01 0.90930508E+02</pdfrwt>
<pdfrwt beam="2">  1       -2 0.26269045E-02 0.90930508E+02</pdfrwt>
<totfact> 0.13119739E+05</totfact>
</mgrwt>
</event>
<event>
 5    1  0.1239369E+001  0.9043106E+02  0.7546771E-02  0.1301811E+00
          3   -1    0    0  501    0  0.00000000000E+00  0.00000000000E+00  0.22434632864E+02  0.22434632864E+02  0.00000000000E+00 0. -1.
         -3   -1    0    0    0  501 -0.00000000000E+00 -0.00000000000E+00 -0.91128923488E+02  0.91128923488E+02  0.00000000000E+00 0.  1.
         23    2    1    2    0    0  0.00000000000E+00  0.00000000000E+00 -0.68694290624E+02  0.11356355635E+03  0.90431055323E+02 0.  0.
        -11    1    3    3    0    0  0.44230396901E+02  0.15343934905E+01 -0.22717465911E+02  0.49747016301E+02  0.00000000000E+00 0. -1.
         11    1    3    3    0    0 -0.44230396901E+02 -0.15343934905E+01 -0.45976824713E+02  0.63816540051E+02  0.00000000000E+00 0.  1.
<mgrwt>
<rscale>  0 0.90431055E+02</rscale>
<asrwt>0</asrwt>
<pdfrwt beam="1">  1        3 0.34514819E-02 0.90431055E+02</pdfrwt>
<pdfrwt beam="2">  1       -3 0.14019835E-01 0.90431055E+02</pdfrwt>
<totfact> 0.34453423E+04</totfact>
</mgrwt>
</event>
<event>
 5    1  0.1239369E+001  0.9145817E+02  0.7546771E-02  0.1299358E+00
          1   -1    0    0  501    0  0.00000000000E+00  0.00000000000E+00  0.14611957842E+02  0.14611957842E+02  0.00000000000E+00 0. -1.
         -1   -1    0    0    0  501 -0.00000000000E+00 -0.00000000000E+00 -0.14311220039E+03  0.14311220039E+03  0.00000000000E+00 0.  1.
         23    2    1    2    0    0  0.00000000000E+00  0.00000000000E+00 -0.12850024254E+03  0.15772415823E+03  0.91458174895E+02 0.  0.
        -13    1    3    3    0    0 -0.34963074042E+02  0.20277646348E-01 -0.13420284205E+02  0.37450246805E+02  0.00000000000E+00 0. -1.
         13    1    3    3    0    0  0.34963074042E+02 -0.20277646348E-01 -0.11507995834E+03  0.12027391142E+03  0.00000000000E+00 0.  1.
<mgrwt>
<rscale>  0 0.91458175E+02</rscale>
<asrwt>0</asrwt>
<pdfrwt beam="1">  1        1 0.22479936E-02 0.91458175E+02</pdfrwt>
<pdfrwt beam="2">  1       -1 0.22017261E-01 0.91458175E+02</pdfrwt>
<totfact> 0.75001582E+04</totfact>
</mgrwt>
</event>
<event>
 5    1  0.1239369E+001  0.8950593E+02  0.7546771E-02  0.1304053E+00
         -1   -1    0    0    0  501 -0.00000000000E+00  0.00000000000E+00  0.10061660604E+03  0.10061660604E+03  0.00000000000E+00 0.  1.
          1   -1    0    0  501    0  0.00000000000E+00 -0.00000000000E+00 -0.19905539400E+02  0.19905539400E+02  0.00000000000E+00 0. -1.
         23    2    1    2    0    0  0.00000000000E+00  0.00000000000E+00  0.80711066644E+02  0.12052214544E+03  0.89505928651E+02 0.  0.
        -11    1    3    3    0    0  0.25761142248E+01  0.36753876583E+02  0.61488716612E+01  0.37353613360E+02  0.00000000000E+00 0. -1.
         11    1    3    3    0    0 -0.25761142248E+01 -0.36753876583E+02  0.74562194983E+02  0.83168532084E+02  0.00000000000E+00 0.  1.
<mgrwt>
<rscale>  0 0.89505929E+02</rscale>
<asrwt>0</asrwt>
<pdfrwt beam="2">  1        1 0.30623907E-02 0.89505929E+02</pdfrwt>
<pdfrwt beam="1">  1       -1 0.15479478E-01 0.89505929E+02</pdfrwt>
<totfact> 0.85238348E+04</totfact>
</mgrwt>
</event>
<event>
 5    1  0.1239369E+001  0.8877447E+02  0.7546771E-02  0.1305847E+00
          1   -1    0    0  501    0  0.00000000000E+00  0.00000000000E+00  0.21265634501E+02  0.21265634501E+02  0.00000000000E+00 0. -1.
         -1   -1    0    0    0  501 -0.00000000000E+00 -0.00000000000E+00 -0.92648385466E+02  0.92648385466E+02  0.00000000000E+00 0.  1.
         23    2    1    2    0    0  0.00000000000E+00  0.00000000000E+00 -0.71382750965E+02  0.11391401997E+03  0.88774471610E+02 0.  0.
        -13    1    3    3    0    0 -0.21415787057E+02 -0.11121107100E+02 -0.83496010574E+02  0.86913167818E+02  0.00000000000E+00 0.  1.
         13    1    3    3    0    0  0.21415787057E+02  0.11121107100E+02  0.12113259609E+02  0.27000852148E+02  0.00000000000E+00 0. -1.
<mgrwt>
<rscale>  0 0.88774472E+02</rscale>
<asrwt>0</asrwt>
<pdfrwt beam="1">  1        1 0.32716360E-02 0.88774472E+02</pdfrwt>
<pdfrwt beam="2">  1       -1 0.14253598E-01 0.88774472E+02</pdfrwt>
<totfact> 0.88367971E+04</totfact>
</mgrwt>
</event>
<event>
 5    1  0.1239369E+001  0.9486987E+02  0.7546771E-02  0.1291469E+00
         -2   -1    0    0    0  501 -0.00000000000E+00  0.00000000000E+00  0.82129054195E+02  0.82129054195E+02  0.00000000000E+00 0.  1.
          2   -1    0    0  501    0  0.00000000000E+00 -0.00000000000E+00 -0.27396798101E+02  0.27396798101E+02  0.00000000000E+00 0. -1.
         23    2    1    2    0    0  0.00000000000E+00  0.00000000000E+00  0.54732256093E+02  0.10952585230E+03  0.94869871214E+02 0.  0.
        -13    1    3    3    0    0 -0.33297329958E+02  0.33195756385E+02  0.20119244609E+02  0.51141513743E+02  0.00000000000E+00 0. -1.
         13    1    3    3    0    0  0.33297329958E+02 -0.33195756385E+02  0.34613011484E+02  0.58384338553E+02  0.00000000000E+00 0.  1.
<mgrwt>
<rscale>  0 0.94869871E+02</rscale>
<asrwt>0</asrwt>
<pdfrwt beam="2">  1        2 0.42148920E-02 0.94869871E+02</pdfrwt>
<pdfrwt beam="1">  1       -2 0.12635239E-01 0.94869871E+02</pdfrwt>
<totfact> 0.76598547E+04</totfact>
</mgrwt>
</event>
<event>
 5    1  0.1239369E+001  0.9229507E+02  0.7546771E-02  0.1297387E+00
         -3   -1    0    0    0  501 -0.00000000000E+00  0.00000000000E+00  0.37894917624E+02  0.37894917624E+02  0.00000000000E+00 0.  1.
          3   -1    0    0  501    0  0.00000000000E+00 -0.00000000000E+00 -0.56197380404E+02  0.56197380404E+02  0.00000000000E+00 0. -1.
         23    2    1    2    0    0  0.00000000000E+00  0.00000000000E+00 -0.18302462781E+02  0.94092298028E+02  0.92295072481E+02 0.  0.
        -13    1    3    3    0    0 -0.32938025375E+01 -0.32393245275E+02  0.24187605753E+02  0.40561209877E+02  0.00000000000E+00 0.  1.
         13    1    3    3    0    0  0.32938025375E+01  0.32393245275E+02 -0.42490068534E+02  0.53531088151E+02  0.00000000000E+00 0. -1.
<mgrwt>
<rscale>  0 0.92295072E+02</rscale>
<asrwt>0</asrwt>
<pdfrwt beam="2">  1        3 0.86457508E-02 0.92295072E+02</pdfrwt>
<pdfrwt beam="1">  1       -3 0.58299874E-02 0.92295072E+02</pdfrwt>
<totfact> 0.33966509E+04</totfact>
</mgrwt>
</event>
<event>
 5    1  0.1239369E+001  0.9018302E+02  0.7546771E-02  0.1302409E+00
         -2   -1    0    0    0  501 -0.00000000000E+00  0.00000000000E+00  0.37495232767E+03  0.37495232767E+03  0.00000000000E+00 0.  1.
          2   -1    0    0  501    0  0.00000000000E+00 -0.00000000000E+00 -0.54226746194E+01  0.54226746194E+01  0.00000000000E+00 0. -1.
         23    2    1    2    0    0  0.00000000000E+00  0.00000000000E+00  0.36952965305E+03  0.38037500229E+03  0.90183024361E+02 0.  0.
        -11    1    3    3    0    0  0.45018267591E+02 -0.25531479550E+01  0.18356079600E+03  0.18901780025E+03  0.00000000000E+00 0.  1.
         11    1    3    3    0    0 -0.45018267591E+02  0.25531479550E+01  0.18596885705E+03  0.19135720204E+03  0.00000000000E+00 0. -1.
<mgrwt>
<rscale>  0 0.90183024E+02</rscale>
<asrwt>0</asrwt>
<pdfrwt beam="2">  1        2 0.83425793E-03 0.90183024E+02</pdfrwt>
<pdfrwt beam="1">  1       -2 0.57684953E-01 0.90183024E+02</pdfrwt>
<totfact> 0.45840115E+04</totfact>
</mgrwt>
</event>
<event>
 5    1  0.1239369E+001  0.9114926E+02  0.7546771E-02  0.1300092E+00
         -1   -1    0    0    0  501 -0.00000000000E+00  0.00000000000E+00  0.94533801140E+01  0.94533801140E+01  0.00000000000E+00 0.  1.
          1   -1    0    0  501    0  0.00000000000E+00 -0.00000000000E+00 -0.21971474353E+03  0.21971474353E+03  0.00000000000E+00 0. -1.
         23    2    1    2    0    0  0.00000000000E+00  0.00000000000E+00 -0.21026136341E+03  0.22916812364E+03  0.91149261921E+02 0.  0.
        -13    1    3    3    0    0 -0.16348299186E+02 -0.29642986250E+02 -0.28413431502E+02  0.44196115325E+02  0.00000000000E+00 0.  1.
         13    1    3    3    0    0  0.16348299186E+02  0.29642986250E+02 -0.18184793191E+03  0.18497200831E+03  0.00000000000E+00 0. -1.
<mgrwt>
<rscale>  0 0.91149262E+02</rscale>
<asrwt>0</asrwt>
<pdfrwt beam="2">  1        1 0.33802266E-01 0.91149262E+02</pdfrwt>
<pdfrwt beam="1">  1       -1 0.14543663E-02 0.91149262E+02</pdfrwt>
<totfact> 0.12069054E+05</totfact>
</mgrwt>
</event>
<event>
 5    1  0.1239369E+001  0.9079463E+02  0.7546771E-02  0.1300939E+00
         -1   -1    0    0    0  501 -0.00000000000E+00  0.00000000000E+00  0.48219676302E+02  0.48219676302E+02  0.00000000000E+00 0.  1.
          1   -1    0    0  501    0  0.00000000000E+00 -0.00000000000E+00 -0.42740151529E+02  0.42740151529E+02  0.00000000000E+00 0. -1.
         23    2    1    2    0    0  0.00000000000E+00  0.00000000000E+00  0.54795247729E+01  0.90959827830E+02  0.90794631379E+02 0.  0.
        -11    1    3    3    0    0  0.70636172740E+01  0.18094955696E+02  0.43846041362E+02  0.47956203497E+02  0.00000000000E+00 0.  1.
         11    1    3    3    0    0 -0.70636172740E+01 -0.18094955696E+02 -0.38366516589E+02  0.43003624334E+02  0.00000000000E+00 0. -1.
<mgrwt>
<rscale>  0 0.90794631E+02</rscale>
<asrwt>0</asrwt>
<pdfrwt beam="2">  1        1 0.65754079E-02 0.90794631E+02</pdfrwt>
<pdfrwt beam="1">  1       -1 0.74184117E-02 0.90794631E+02</pdfrwt>
<totfact> 0.92666881E+04</totfact>
</mgrwt>
</event>
<event>
 5    1  0.1239369E+001  0.9206094E+02  0.7546771E-02  0.1297936E+00
         -2   -1    0    0    0  501 -0.00000000000E+00  0.00000000000E+00  0.70691943029E+02  0.70691943029E+02  0.00000000000E+00 0.  1.
          2   -1    0    0  501    0  0.00000000000E+00 -0.00000000000E+00 -0.29972357461E+02  0.29972357461E+02  0.00000000000E+00 0. -1.
         23    2    1    2    0    0  0.00000000000E+00  0.00000000000E+00  0.40719585568E+02  0.10066430049E+03  0.92060940383E+02 0.  0.
        -11    1    3    3    0    0 -0.24675108242E+02 -0.15365308058E+02  0.59386266229E+02  0.66118698377E+02  0.00000000000E+00 0.  1.
         11    1    3    3    0    0  0.24675108242E+02  0.15365308058E+02 -0.18666680660E+02  0.34545602113E+02  0.00000000000E+00 0. -1.
<mgrwt>
<rscale>  0 0.92060940E+02</rscale>
<asrwt>0</asrwt>
<pdfrwt beam="2">  1        2 0.46111319E-02 0.92060940E+02</pdfrwt>
<pdfrwt beam="1">  1       -2 0.10875683E-01 0.92060940E+02</pdfrwt>
<totfact> 0.85941825E+04</totfact>
</mgrwt>
</event>
<event>
 5    1  0.1239369E+001  0.9356284E+02  0.7546771E-02  0.1294446E+00
          2   -1    0    0  501    0  0.00000000000E+00  0.00000000000E+00  0.55428908091E+02  0.55428908091E+02  0.00000000000E+00 0. -1.
         -2   -1    0    0    0  501 -0.00000000000E+00 -0.00000000000E+00 -0.39483030925E+02  0.39483030925E+02  0.00000000000E+00 0.  1.
         23    2    1    2    0    0  0.00000000000E+00  0.00000000000E+00  0.15945877166E+02  0.94911939016E+02  0.93562840750E+02 0.  0.
        -11    1    3    3    0    0  0.14513358365E+02  0.21629891562E+02 -0.31446240506E+02  0.40833268568E+02  0.00000000000E+00 0.  1.
         11    1    3    3    0    0 -0.14513358365E+02 -0.21629891562E+02  0.47392117672E+02  0.54078670448E+02  0.00000000000E+00 0. -1.
<mgrwt>
<rscale>  0 0.93562841E+02</rscale>
<asrwt>0</asrwt>
<pdfrwt beam="1">  1        2 0.85275243E-02 0.93562841E+02</pdfrwt>
<pdfrwt beam="2">  1       -2 0.60743125E-02 0.93562841E+02</pdfrwt>
<totfact> 0.96499811E+04</totfact>
</mgrwt>
</event>
<event>
 4    1  0.1239369E+001  0.4703656E+02  0.7546771E-02  0.1462014E+00
         -3   -1    0    0    0  501 -0.00000000000E+00  0.00000000000E+00  0.11817600043E+03  0.11817600043E+03  0.00000000000E+00 0.  1.
          3   -1    0    0  501    0  0.00000000000E+00 -0.00000000000E+00 -0.46803868824E+01  0.46803868824E+01  0.00000000000E+00 0. -1.
        -13    1    1    2    0    0  0.22473397852E+02  0.19277416691E+01  0.39355462415E+02  0.45361020941E+02  0.00000000000E+00 0. -1.
         13    1    1    2    0    0 -0.22473397852E+02 -0.19277416691E+01  0.74140151132E+02  0.77495366370E+02  0.00000000000E+00 0.  1.
<mgrwt>
<rscale>  0 0.47036556E+02</rscale>
<asrwt>0</asrwt>
<pdfrwt beam="2">  1        3 0.72005961E-03 0.47036556E+02</pdfrwt>
<pdfrwt beam="1">  1       -3 0.18180921E-01 0.47036556E+02</pdfrwt>
<totfact> 0.18470010E+05</totfact>
</mgrwt>
</event>
<event>
 5    1  0.1239369E+001  0.8833863E+02  0.7546771E-02  0.1306926E+00
          4   -1    0    0  501    0  0.00000000000E+00  0.00000000000E+00  0.21221003011E+03  0.21221003011E+03  0.00000000000E+00 0. -1.
         -4   -1    0    0    0  501 -0.00000000000E+00 -0.00000000000E+00 -0.91933836055E+01  0.91933836055E+01  0.00000000000E+00 0.  1.
         23    2    1    2    0    0  0.00000000000E+00  0.00000000000E+00  0.20301664650E+03  0.22140341371E+03  0.88338626019E+02 0.  0.
        -13    1    3    3    0    0  0.24411476006E+02 -0.33064423250E+02  0.14205718325E+03  0.14788312804E+03  0.00000000000E+00 0. -1.
         13    1    3    3    0    0 -0.24411476006E+02  0.33064423250E+02  0.60959463253E+02  0.73520285675E+02  0.00000000000E+00 0.  1.
<mgrwt>
<rscale>  0 0.88338626E+02</rscale>
<asrwt>0</asrwt>
<pdfrwt beam="1">  1        4 0.32647693E-01 0.88338626E+02</pdfrwt>
<pdfrwt beam="2">  1       -4 0.14143669E-02 0.88338626E+02</pdfrwt>
<totfact> 0.22326868E+04</totfact>
</mgrwt>
</event>
<event>
 5    1  0.1239369E+001  0.9072857E+02  0.7546771E-02  0.1301097E+00
         -1   -1    0    0    0  501 -0.00000000000E+00  0.00000000000E+00  0.28641528410E+02  0.28641528410E+02  0.00000000000E+00 0.  1.
          1   -1    0    0  501    0  0.00000000000E+00 -0.00000000000E+00 -0.71850860813E+02  0.71850860813E+02  0.00000000000E+00 0. -1.
         23    2    1    2    0    0  0.00000000000E+00  0.00000000000E+00 -0.43209332403E+02  0.10049238922E+03  0.90728572594E+02 0.  0.
        -11    1    3    3    0    0 -0.49537950190E+01  0.24488210874E+02  0.20334436257E+02  0.32213380059E+02  0.00000000000E+00 0.  1.
         11    1    3    3    0    0  0.49537950190E+01 -0.24488210874E+02 -0.63543768660E+02  0.68279009164E+02  0.00000000000E+00 0. -1.
<mgrwt>
<rscale>  0 0.90728573E+02</rscale>
<asrwt>0</asrwt>
<pdfrwt beam="2">  1        1 0.11053978E-01 0.90728573E+02</pdfrwt>
<pdfrwt beam="1">  1       -1 0.44063891E-02 0.90728573E+02</pdfrwt>
<totfact> 0.10041953E+05</totfact>
</mgrwt>
</event>
<event>
 5    1  0.1239369E+001  0.9062728E+02  0.7546771E-02  0.1301340E+00
          1   -1    0    0  501    0  0.00000000000E+00  0.00000000000E+00  0.10962159547E+03  0.10962159547E+03  0.00000000000E+00 0. -1.
         -1   -1    0    0    0  501 -0.00000000000E+00 -0.00000000000E+00 -0.18731034976E+02  0.18731034976E+02  0.00000000000E+00 0.  1.
         23    2    1    2    0    0  0.00000000000E+00  0.00000000000E+00  0.90890560491E+02  0.12835263044E+03  0.90627279310E+02 0.  0.
        -11    1    3    3    0    0  0.15420990774E+02 -0.19612550091E+02  0.99018215735E+02  0.10211300664E+03  0.00000000000E+00 0. -1.
         11    1    3    3    0    0 -0.15420990774E+02  0.19612550091E+02 -0.81276552447E+01  0.26239623803E+02  0.00000000000E+00 0.  1.
<mgrwt>
<rscale>  0 0.90627279E+02</rscale>
<asrwt>0</asrwt>
<pdfrwt beam="1">  1        1 0.16864860E-01 0.90627279E+02</pdfrwt>
<pdfrwt beam="2">  1       -1 0.28816978E-02 0.90627279E+02</pdfrwt>
<totfact> 0.10783404E+05</totfact>
</mgrwt>
</event>
<event>
 5    1  0.1239369E+001  0.9108839E+02  0.7546771E-02  0.1300237E+00
         -2   -1    0    0    0  501 -0.00000000000E+00  0.00000000000E+00  0.10690294919E+03  0.10690294919E+03  0.00000000000E+00 0.  1.
          2   -1    0    0  501    0  0.00000000000E+00 -0.00000000000E+00 -0.19403332731E+02  0.19403332731E+02  0.00000000000E+00 0. -1.
         23    2    1    2    0    0  0.00000000000E+00  0.00000000000E+00  0.87499616458E+02  0.12630628192E+03  0.91088385495E+02 0.  0.
        -13    1    3    3    0    0  0.22122718699E+02  0.22970287961E+02  0.88836211709E+02  0.94387082392E+02  0.00000000000E+00 0.  1.
         13    1    3    3    0    0 -0.22122718699E+02 -0.22970287961E+02 -0.13365952511E+01  0.31919199528E+02  0.00000000000E+00 0. -1.
<mgrwt>
<rscale>  0 0.91088385E+02</rscale>
<asrwt>0</asrwt>
<pdfrwt beam="2">  1        2 0.29851282E-02 0.91088385E+02</pdfrwt>
<pdfrwt beam="1">  1       -2 0.16446607E-01 0.91088385E+02</pdfrwt>
<totfact> 0.78401197E+04</totfact>
</mgrwt>
</event>
<event>
 5    1  0.1239369E+001  0.8894211E+02  0.7546771E-02  0.1305434E+00
         -2   -1    0    0    0  501 -0.00000000000E+00  0.00000000000E+00  0.94087420965E+02  0.94087420965E+02  0.00000000000E+00 0.  1.
          2   -1    0    0  501    0  0.00000000000E+00 -0.00000000000E+00 -0.21019544564E+02  0.21019544564E+02  0.00000000000E+00 0. -1.
         23    2    1    2    0    0  0.00000000000E+00  0.00000000000E+00  0.73067876401E+02  0.11510696553E+03  0.88942110113E+02 0.  0.
        -11    1    3    3    0    0 -0.19007047418E+02 -0.18310017479E+02 -0.97887966352E+01  0.28148625743E+02  0.00000000000E+00 0. -1.
         11    1    3    3    0    0  0.19007047418E+02  0.18310017479E+02  0.82856673036E+02  0.86958339785E+02  0.00000000000E+00 0.  1.
<mgrwt>
<rscale>  0 0.88942110E+02</rscale>
<asrwt>0</asrwt>
<pdfrwt beam="2">  1        2 0.32337761E-02 0.88942110E+02</pdfrwt>
<pdfrwt beam="1">  1       -2 0.14474988E-01 0.88942110E+02</pdfrwt>
<totfact> 0.86408729E+04</totfact>
</mgrwt>
</event>
<event>
 5    1  0.1239369E+001  0.9132362E+02  0.7546771E-02  0.1299678E+00
         -1   -1    0    0    0  501 -0.00000000000E+00  0.00000000000E+00  0.20488385701E+02  0.20488385701E+02  0.00000000000E+00 0.  1.
          1   -1    0    0  501    0  0.00000000000E+00 -0.00000000000E+00 -0.10176502544E+03  0.10176502544E+03  0.00000000000E+00 0. -1.
         23    2    1    2    0    0  0.00000000000E+00  0.00000000000E+00 -0.81276639735E+02  0.12225341114E+03  0.91323624369E+02 0.  0.
        -13    1    3    3    0    0 -0.33329878514E+02 -0.55510270289E+01  0.47705314392E+00  0.33792340590E+02  0.00000000000E+00 0.  1.
         13    1    3    3    0    0  0.33329878514E+02  0.55510270289E+01 -0.81753692879E+02  0.88461070546E+02  0.00000000000E+00 0. -1.
<mgrwt>
<rscale>  0 0.91323624E+02</rscale>
<asrwt>0</asrwt>
<pdfrwt beam="2">  1        1 0.15656158E-01 0.91323624E+02</pdfrwt>
<pdfrwt beam="1">  1       -1 0.31520593E-02 0.91323624E+02</pdfrwt>
<totfact> 0.10429804E+05</totfact>
</mgrwt>
</event>
<event>
 5    1  0.1239369E+001  0.8330017E+02  0.7546771E-02  0.1319939E+00
          2   -1    0    0  501    0  0.00000000000E+00  0.00000000000E+00  0.29899326089E+03  0.29899326089E+03  0.00000000000E+00 0. -1.
         -2   -1    0    0    0  501 -0.00000000000E+00 -0.00000000000E+00 -0.58019017983E+01  0.58019017983E+01  0.00000000000E+00 0.  1.
         23    2    1    2    0    0  0.00000000000E+00  0.00000000000E+00  0.29319135909E+03  0.30479516269E+03  0.83300168981E+02 0.  0.
        -13    1    3    3    0    0 -0.15307465161E+02  0.38349350282E+02  0.16654926066E+03  0.17159151315E+03  0.00000000000E+00 0. -1.
         13    1    3    3    0    0  0.15307465161E+02 -0.38349350282E+02  0.12664209843E+03  0.13320364954E+03  0.00000000000E+00 0.  1.
<mgrwt>
<rscale>  0 0.83300169E+02</rscale>
<asrwt>0</asrwt>
<pdfrwt beam="1">  1        2 0.45998951E-01 0.83300169E+02</pdfrwt>
<pdfrwt beam="2">  1       -2 0.89260051E-03 0.83300169E+02</pdfrwt>
<totfact> 0.22805544E+05</totfact>
</mgrwt>
</event>
<event>
 5    1  0.1239369E+001  0.8661937E+02  0.7546771E-02  0.1311251E+00
         -1   -1    0    0    0  501 -0.00000000000E+00  0.00000000000E+00  0.17375357005E+02  0.17375357005E+02  0.00000000000E+00 0.  1.
          1   -1    0    0  501    0  0.00000000000E+00 -0.00000000000E+00 -0.10795340396E+03  0.10795340396E+03  0.00000000000E+00 0. -1.
         23    2    1    2    0    0  0.00000000000E+00  0.00000000000E+00 -0.90578046954E+02  0.12532876096E+03  0.86619372745E+02 0.  0.
        -11    1    3    3    0    0  0.13616784494E+02 -0.40670597597E+02 -0.36581842185E+02  0.56371495515E+02  0.00000000000E+00 0.  1.
         11    1    3    3    0    0 -0.13616784494E+02  0.40670597597E+02 -0.53996204768E+02  0.68957265449E+02  0.00000000000E+00 0. -1.
<mgrwt>
<rscale>  0 0.86619373E+02</rscale>
<asrwt>0</asrwt>
<pdfrwt beam="2">  1        1 0.16608216E-01 0.86619373E+02</pdfrwt>
<pdfrwt beam="1">  1       -1 0.26731319E-02 0.86619373E+02</pdfrwt>
<totfact> 0.12156815E+05</totfact>
</mgrwt>
</event>
<event>
 5    1  0.1239369E+001  0.8507370E+02  0.7546771E-02  0.1315240E+00
         -1   -1    0    0    0  501 -0.00000000000E+00  0.00000000000E+00  0.17382485046E+02  0.17382485046E+02  0.00000000000E+00 0.  1.
          1   -1    0    0  501    0  0.00000000000E+00 -0.00000000000E+00 -0.10409233242E+03  0.10409233242E+03  0.00000000000E+00 0. -1.
         23    2    1    2    0    0  0.00000000000E+00  0.00000000000E+00 -0.86709847373E+02  0.12147481746E+03  0.85073695386E+02 0.  0.
        -13    1    3    3    0    0 -0.48136623542E+01  0.18144162951E+02  0.11148143660E+02  0.21832615545E+02  0.00000000000E+00 0.  1.
         13    1    3    3    0    0  0.48136623542E+01 -0.18144162951E+02 -0.97857991033E+02  0.99642201920E+02  0.00000000000E+00 0. -1.
<mgrwt>
<rscale>  0 0.85073695E+02</rscale>
<asrwt>0</asrwt>
<pdfrwt beam="2">  1        1 0.16014205E-01 0.85073695E+02</pdfrwt>
<pdfrwt beam="1">  1       -1 0.26742285E-02 0.85073695E+02</pdfrwt>
<totfact> 0.12686105E+05</totfact>
</mgrwt>
</event>
<event>
 5    1  0.1239369E+001  0.9077840E+02  0.7546771E-02  0.1300978E+00
          1   -1    0    0  501    0  0.00000000000E+00  0.00000000000E+00  0.16973600658E+02  0.16973600658E+02  0.00000000000E+00 0. -1.
         -1   -1    0    0    0  501 -0.00000000000E+00 -0.00000000000E+00 -0.12137550550E+03  0.12137550550E+03  0.00000000000E+00 0.  1.
         23    2    1    2    0    0  0.00000000000E+00  0.00000000000E+00 -0.10440190484E+03  0.13834910615E+03  0.90778397429E+02 0.  0.
        -11    1    3    3    0    0 -0.36263496736E+01  0.29900966445E+02 -0.45204516779E+00  0.30123455166E+02  0.00000000000E+00 0. -1.
         11    1    3    3    0    0  0.36263496736E+01 -0.29900966445E+02 -0.10394985967E+03  0.10822565099E+03  0.00000000000E+00 0.  1.
<mgrwt>
<rscale>  0 0.90778397E+02</rscale>
<asrwt>0</asrwt>
<pdfrwt beam="1">  1        1 0.26113233E-02 0.90778397E+02</pdfrwt>
<pdfrwt beam="2">  1       -1 0.18673154E-01 0.90778397E+02</pdfrwt>
<totfact> 0.79239252E+04</totfact>
</mgrwt>
</event>
<event>
 4    1  0.1239369E+001  0.2939684E+02  0.7546771E-02  0.1604853E+00
          2   -1    0    0  501    0  0.00000000000E+00  0.00000000000E+00  0.11081648819E+02  0.11081648819E+02  0.00000000000E+00 0.  1.
         -2   -1    0    0    0  501 -0.00000000000E+00 -0.00000000000E+00 -0.19495619689E+02  0.19495619689E+02  0.00000000000E+00 0. -1.
        -11    1    1    2    0    0 -0.28246654784E+01 -0.11150346670E+02 -0.13725092140E+02  0.17907739114E+02  0.00000000000E+00 0. -1.
         11    1    1    2    0    0  0.28246654784E+01  0.11150346670E+02  0.53111212696E+01  0.12669529394E+02  0.00000000000E+00 0.  1.
<mgrwt>
<rscale>  0 0.29396844E+02</rscale>
<asrwt>0</asrwt>
<pdfrwt beam="1">  1        2 0.17048691E-02 0.29396844E+02</pdfrwt>
<pdfrwt beam="2">  1       -2 0.29993261E-02 0.29396844E+02</pdfrwt>
<totfact> 0.15958611E+06</totfact>
</mgrwt>
</event>
<event>
 5    1  0.1239369E+001  0.8935907E+02  0.7546771E-02  0.1304411E+00
          1   -1    0    0  501    0  0.00000000000E+00  0.00000000000E+00  0.11748610106E+03  0.11748610106E+03  0.00000000000E+00 0. -1.
         -1   -1    0    0    0  501 -0.00000000000E+00 -0.00000000000E+00 -0.16991465351E+02  0.16991465351E+02  0.00000000000E+00 0.  1.
         23    2    1    2    0    0  0.00000000000E+00  0.00000000000E+00  0.10049463571E+03  0.13447756641E+03  0.89359073753E+02 0.  0.
        -13    1    3    3    0    0 -0.27932580992E+02 -0.15944821171E+02  0.35757540583E+01  0.32361279643E+02  0.00000000000E+00 0.  1.
         13    1    3    3    0    0  0.27932580992E+02  0.15944821171E+02  0.96918881654E+02  0.10211628677E+03  0.00000000000E+00 0. -1.
<mgrwt>
<rscale>  0 0.89359074E+02</rscale>
<asrwt>0</asrwt>
<pdfrwt beam="1">  1        1 0.18074784E-01 0.89359074E+02</pdfrwt>
<pdfrwt beam="2">  1       -1 0.26140717E-02 0.89359074E+02</pdfrwt>
<totfact> 0.11336105E+05</totfact>
</mgrwt>
</event>
<event>
 5    1  0.1239369E+001  0.9081475E+02  0.7546771E-02  0.1300891E+00
          3   -1    0    0  501    0  0.00000000000E+00  0.00000000000E+00  0.30701430217E+03  0.30701430217E+03  0.00000000000E+00 0.  1.
         -3   -1    0    0    0  501 -0.00000000000E+00 -0.00000000000E+00 -0.67157440892E+01  0.67157440892E+01  0.00000000000E+00 0. -1.
         23    2    1    2    0    0  0.00000000000E+00  0.00000000000E+00  0.30029855808E+03  0.31373004626E+03  0.90814745171E+02 0.  0.
        -13    1    3    3    0    0  0.20919373875E+02  0.39639323603E+02  0.12501512602E+03  0.13280691967E+03  0.00000000000E+00 0. -1.
         13    1    3    3    0    0 -0.20919373875E+02 -0.39639323603E+02  0.17528343206E+03  0.18092312659E+03  0.00000000000E+00 0.  1.
<mgrwt>
<rscale>  0 0.90814745E+02</rscale>
<asrwt>0</asrwt>
<pdfrwt beam="1">  1        3 0.47232959E-01 0.90814745E+02</pdfrwt>
<pdfrwt beam="2">  1       -3 0.10331916E-02 0.90814745E+02</pdfrwt>
<totfact> 0.23761749E+04</totfact>
</mgrwt>
</event>
<event>
 5    1  0.1239369E+001  0.9260060E+02  0.7546771E-02  0.1296673E+00
          1   -1    0    0  501    0  0.00000000000E+00  0.00000000000E+00  0.24044698197E+02  0.24044698197E+02  0.00000000000E+00 0. -1.
         -1   -1    0    0    0  501 -0.00000000000E+00 -0.00000000000E+00 -0.89155525814E+02  0.89155525814E+02  0.00000000000E+00 0.  1.
         23    2    1    2    0    0  0.00000000000E+00  0.00000000000E+00 -0.65110827617E+02  0.11320022401E+03  0.92600598503E+02 0.  0.
        -13    1    3    3    0    0  0.32507022958E+02 -0.13421814975E+02  0.42579128864E+01  0.35425717790E+02  0.00000000000E+00 0. -1.
         13    1    3    3    0    0 -0.32507022958E+02  0.13421814975E+02 -0.69368740504E+02  0.77774506221E+02  0.00000000000E+00 0.  1.
<mgrwt>
<rscale>  0 0.92600599E+02</rscale>
<asrwt>0</asrwt>
<pdfrwt beam="1">  1        1 0.36991843E-02 0.92600599E+02</pdfrwt>
<pdfrwt beam="2">  1       -1 0.13716235E-01 0.92600599E+02</pdfrwt>
<totfact> 0.79836283E+04</totfact>
</mgrwt>
</event>
<event>
 5    1  0.1239369E+001  0.9031421E+02  0.7546771E-02  0.1302093E+00
          3   -1    0    0  501    0  0.00000000000E+00  0.00000000000E+00  0.73363770079E+01  0.73363770079E+01  0.00000000000E+00 0. -1.
         -3   -1    0    0    0  501 -0.00000000000E+00 -0.00000000000E+00 -0.27795248327E+03  0.27795248327E+03  0.00000000000E+00 0.  1.
         23    2    1    2    0    0  0.00000000000E+00  0.00000000000E+00 -0.27061610626E+03  0.28528886027E+03  0.90314211673E+02 0.  0.
        -13    1    3    3    0    0  0.27732959500E+02 -0.25597990292E+02 -0.21363156216E+03  0.21693966558E+03  0.00000000000E+00 0.  1.
         13    1    3    3    0    0 -0.27732959500E+02  0.25597990292E+02 -0.56984544098E+02  0.68349194697E+02  0.00000000000E+00 0. -1.
<mgrwt>
<rscale>  0 0.90314212E+02</rscale>
<asrwt>0</asrwt>
<pdfrwt beam="1">  1        3 0.11286736E-02 0.90314212E+02</pdfrwt>
<pdfrwt beam="2">  1       -3 0.42761914E-01 0.90314212E+02</pdfrwt>
<totfact> 0.25240293E+04</totfact>
</mgrwt>
</event>
<event>
 5    1  0.1239369E+001  0.9138008E+02  0.7546771E-02  0.1299544E+00
          4   -1    0    0  501    0  0.00000000000E+00  0.00000000000E+00  0.51441602804E+01  0.51441602804E+01  0.00000000000E+00 0. -1.
         -4   -1    0    0    0  501 -0.00000000000E+00 -0.00000000000E+00 -0.40581546481E+03  0.40581546481E+03  0.00000000000E+00 0.  1.
         23    2    1    2    0    0  0.00000000000E+00  0.00000000000E+00 -0.40067130453E+03  0.41095962509E+03  0.91380080877E+02 0.  0.
        -11    1    3    3    0    0 -0.40991026197E+02  0.16434259911E+02 -0.14765232363E+03  0.15411540416E+03  0.00000000000E+00 0.  1.
         11    1    3    3    0    0  0.40991026197E+02 -0.16434259911E+02 -0.25301898091E+03  0.25684422093E+03  0.00000000000E+00 0. -1.
<mgrwt>
<rscale>  0 0.91380081E+02</rscale>
<asrwt>0</asrwt>
<pdfrwt beam="1">  1        4 0.79140936E-03 0.91380081E+02</pdfrwt>
<pdfrwt beam="2">  1       -4 0.62433141E-01 0.91380081E+02</pdfrwt>
<totfact> 0.14809627E+04</totfact>
</mgrwt>
</event>
<event>
 5    1  0.1239369E+001  0.9053955E+02  0.7546771E-02  0.1301550E+00
          4   -1    0    0  501    0  0.00000000000E+00  0.00000000000E+00  0.52512952966E+02  0.52512952966E+02  0.00000000000E+00 0. -1.
         -4   -1    0    0    0  501 -0.00000000000E+00 -0.00000000000E+00 -0.39025662027E+02  0.39025662027E+02  0.00000000000E+00 0.  1.
         23    2    1    2    0    0  0.00000000000E+00  0.00000000000E+00  0.13487290939E+02  0.91538614993E+02  0.90539554991E+02 0.  0.
        -13    1    3    3    0    0  0.29172605414E+02  0.13502307651E+02 -0.25482824506E+02  0.41021062436E+02  0.00000000000E+00 0.  1.
         13    1    3    3    0    0 -0.29172605414E+02 -0.13502307651E+02  0.38970115445E+02  0.50517552557E+02  0.00000000000E+00 0. -1.
<mgrwt>
<rscale>  0 0.90539555E+02</rscale>
<asrwt>0</asrwt>
<pdfrwt beam="1">  1        4 0.80789158E-02 0.90539555E+02</pdfrwt>
<pdfrwt beam="2">  1       -4 0.60039480E-02 0.90539555E+02</pdfrwt>
<totfact> 0.27511210E+04</totfact>
</mgrwt>
</event>
<event>
 5    1  0.1239369E+001  0.8714324E+02  0.7546771E-02  0.1309921E+00
          1   -1    0    0  501    0  0.00000000000E+00  0.00000000000E+00  0.27246003897E+02  0.27246003897E+02  0.00000000000E+00 0. -1.
         -1   -1    0    0    0  501 -0.00000000000E+00 -0.00000000000E+00 -0.69679438032E+02  0.69679438032E+02  0.00000000000E+00 0.  1.
         23    2    1    2    0    0  0.00000000000E+00  0.00000000000E+00 -0.42433434135E+02  0.96925441928E+02  0.87143243918E+02 0.  0.
        -11    1    3    3    0    0  0.39262150667E+02  0.66680858600E+01 -0.40878981047E+02  0.57070753767E+02  0.00000000000E+00 0. -1.
         11    1    3    3    0    0 -0.39262150667E+02 -0.66680858600E+01 -0.15544530882E+01  0.39854688162E+02  0.00000000000E+00 0.  1.
<mgrwt>
<rscale>  0 0.87143244E+02</rscale>
<asrwt>0</asrwt>
<pdfrwt beam="1">  1        1 0.41916929E-02 0.87143244E+02</pdfrwt>
<pdfrwt beam="2">  1       -1 0.10719914E-01 0.87143244E+02</pdfrwt>
<totfact> 0.97176568E+04</totfact>
</mgrwt>
</event>
<event>
 5    1  0.1239369E+001  0.9757402E+02  0.7546771E-02  0.1285482E+00
         -3   -1    0    0    0  501 -0.00000000000E+00  0.00000000000E+00  0.24447906418E+03  0.24447906418E+03  0.00000000000E+00 0.  1.
          3   -1    0    0  501    0  0.00000000000E+00 -0.00000000000E+00 -0.97356905967E+01  0.97356905967E+01  0.00000000000E+00 0. -1.
         23    2    1    2    0    0  0.00000000000E+00  0.00000000000E+00  0.23474337358E+03  0.25421475478E+03  0.97574023720E+02 0.  0.
        -13    1    3    3    0    0  0.19335740363E+02 -0.37789176351E+02  0.18002377608E+03  0.18496067868E+03  0.00000000000E+00 0.  1.
         13    1    3    3    0    0 -0.19335740363E+02  0.37789176351E+02  0.54719597502E+02  0.69254076093E+02  0.00000000000E+00 0. -1.
<mgrwt>
<rscale>  0 0.97574024E+02</rscale>
<asrwt>0</asrwt>
<pdfrwt beam="2">  1        3 0.14977987E-02 0.97574024E+02</pdfrwt>
<pdfrwt beam="1">  1       -3 0.37612159E-01 0.97574024E+02</pdfrwt>
<totfact> 0.21572929E+04</totfact>
</mgrwt>
</event>
<event>
 5    1  0.1239369E+001  0.9526937E+02  0.7546771E-02  0.1290571E+00
          1   -1    0    0  501    0  0.00000000000E+00  0.00000000000E+00  0.45747132399E+02  0.45747132399E+02  0.00000000000E+00 0. -1.
         -1   -1    0    0    0  501 -0.00000000000E+00 -0.00000000000E+00 -0.49600119030E+02  0.49600119030E+02  0.00000000000E+00 0.  1.
         23    2    1    2    0    0  0.00000000000E+00  0.00000000000E+00 -0.38529866315E+01  0.95347251429E+02  0.95269369942E+02 0.  0.
        -13    1    3    3    0    0 -0.89234343936E+01 -0.33898630704E+02 -0.34206827210E+02  0.48978075430E+02  0.00000000000E+00 0.  1.
         13    1    3    3    0    0  0.89234343936E+01  0.33898630704E+02  0.30353840579E+02  0.46369176000E+02  0.00000000000E+00 0. -1.
<mgrwt>
<rscale>  0 0.95269370E+02</rscale>
<asrwt>0</asrwt>
<pdfrwt beam="1">  1        1 0.70380204E-02 0.95269370E+02</pdfrwt>
<pdfrwt beam="2">  1       -1 0.76307875E-02 0.95269370E+02</pdfrwt>
<totfact> 0.81748897E+04</totfact>
</mgrwt>
</event>
<event>
 5    1  0.1239369E+001  0.9103021E+02  0.7546771E-02  0.1300376E+00
          1   -1    0    0  501    0  0.00000000000E+00  0.00000000000E+00  0.28051127949E+03  0.28051127949E+03  0.00000000000E+00 0. -1.
         -1   -1    0    0    0  501 -0.00000000000E+00 -0.00000000000E+00 -0.73851739344E+01  0.73851739344E+01  0.00000000000E+00 0.  1.
         23    2    1    2    0    0  0.00000000000E+00  0.00000000000E+00  0.27312610555E+03  0.28789645342E+03  0.91030205747E+02 0.  0.
        -11    1    3    3    0    0  0.34296511696E+02 -0.29332331210E+02  0.15527037901E+03  0.16169578525E+03  0.00000000000E+00 0. -1.
         11    1    3    3    0    0 -0.34296511696E+02  0.29332331210E+02  0.11785572654E+03  0.12620066817E+03  0.00000000000E+00 0.  1.
<mgrwt>
<rscale>  0 0.91030206E+02</rscale>
<asrwt>0</asrwt>
<pdfrwt beam="1">  1        1 0.43155573E-01 0.91030206E+02</pdfrwt>
<pdfrwt beam="2">  1       -1 0.11361808E-02 0.91030206E+02</pdfrwt>
<totfact> 0.12702221E+05</totfact>
</mgrwt>
</event>
<event>
 5    1  0.1239369E+001  0.9231485E+02  0.7546771E-02  0.1297341E+00
          1   -1    0    0  501    0  0.00000000000E+00  0.00000000000E+00  0.36906642700E+02  0.36906642700E+02  0.00000000000E+00 0. -1.
         -1   -1    0    0    0  501 -0.00000000000E+00 -0.00000000000E+00 -0.57726950159E+02  0.57726950159E+02  0.00000000000E+00 0.  1.
         23    2    1    2    0    0  0.00000000000E+00  0.00000000000E+00 -0.20820307459E+02  0.94633592858E+02  0.92314850888E+02 0.  0.
        -11    1    3    3    0    0  0.14568232496E+02 -0.54904413108E+01 -0.54954198932E+02  0.57116918020E+02  0.00000000000E+00 0.  1.
         11    1    3    3    0    0 -0.14568232496E+02  0.54904413108E+01  0.34133891473E+02  0.37516674838E+02  0.00000000000E+00 0. -1.
<mgrwt>
<rscale>  0 0.92314851E+02</rscale>
<asrwt>0</asrwt>
<pdfrwt beam="1">  1        1 0.56779451E-02 0.92314851E+02</pdfrwt>
<pdfrwt beam="2">  1       -1 0.88810692E-02 0.92314851E+02</pdfrwt>
<totfact> 0.86452649E+04</totfact>
</mgrwt>
</event>
<event>
 5    1  0.1239369E+001  0.9174264E+02  0.7546771E-02  0.1298686E+00
         -2   -1    0    0    0  501 -0.00000000000E+00  0.00000000000E+00  0.10702332059E+03  0.10702332059E+03  0.00000000000E+00 0.  1.
          2   -1    0    0  501    0  0.00000000000E+00 -0.00000000000E+00 -0.19660928471E+02  0.19660928471E+02  0.00000000000E+00 0. -1.
         23    2    1    2    0    0  0.00000000000E+00  0.00000000000E+00  0.87362392122E+02  0.12668424906E+03  0.91742636782E+02 0.  0.
        -13    1    3    3    0    0  0.41137348011E+01  0.22648247029E+02  0.98470628103E+02  0.10112532080E+03  0.00000000000E+00 0.  1.
         13    1    3    3    0    0 -0.41137348011E+01 -0.22648247029E+02 -0.11108235981E+02  0.25558928266E+02  0.00000000000E+00 0. -1.
<mgrwt>
<rscale>  0 0.91742637E+02</rscale>
<asrwt>0</asrwt>
<pdfrwt beam="2">  1        2 0.30247583E-02 0.91742637E+02</pdfrwt>
<pdfrwt beam="1">  1       -2 0.16465126E-01 0.91742637E+02</pdfrwt>
<totfact> 0.76984703E+04</totfact>
</mgrwt>
</event>
<event>
 5    1  0.1239369E+001  0.9149397E+02  0.7546771E-02  0.1299274E+00
         -1   -1    0    0    0  501 -0.00000000000E+00  0.00000000000E+00  0.49381199707E+03  0.49381199707E+03  0.00000000000E+00 0.  1.
          1   -1    0    0  501    0  0.00000000000E+00 -0.00000000000E+00 -0.42380234654E+01  0.42380234654E+01  0.00000000000E+00 0. -1.
         23    2    1    2    0    0  0.00000000000E+00  0.00000000000E+00  0.48957397361E+03  0.49805002054E+03  0.91493974251E+02 0.  0.
        -11    1    3    3    0    0  0.41185239649E+02  0.19698598941E+02  0.26068364154E+03  0.26465112834E+03  0.00000000000E+00 0. -1.
         11    1    3    3    0    0 -0.41185239649E+02 -0.19698598941E+02  0.22889033206E+03  0.23339889220E+03  0.00000000000E+00 0.  1.
<mgrwt>
<rscale>  0 0.91493974E+02</rscale>
<asrwt>0</asrwt>
<pdfrwt beam="2">  1        1 0.65200400E-03 0.91493974E+02</pdfrwt>
<pdfrwt beam="1">  1       -1 0.75971031E-01 0.91493974E+02</pdfrwt>
<totfact> 0.46973340E+04</totfact>
</mgrwt>
</event>
<event>
 5    1  0.1239369E+001  0.9257258E+02  0.7546771E-02  0.1296739E+00
          2   -1    0    0  501    0  0.00000000000E+00  0.00000000000E+00  0.75511454380E+02  0.75511454380E+02  0.00000000000E+00 0. -1.
         -2   -1    0    0    0  501 -0.00000000000E+00 -0.00000000000E+00 -0.28372126678E+02  0.28372126678E+02  0.00000000000E+00 0.  1.
         23    2    1    2    0    0  0.00000000000E+00  0.00000000000E+00  0.47139327703E+02  0.10388358106E+03  0.92572577998E+02 0.  0.
        -11    1    3    3    0    0 -0.99008504291E+01 -0.15540627618E+02  0.71218059020E+02  0.73563237263E+02  0.00000000000E+00 0. -1.
         11    1    3    3    0    0  0.99008504291E+01  0.15540627618E+02 -0.24078731318E+02  0.30320343795E+02  0.00000000000E+00 0.  1.
<mgrwt>
<rscale>  0 0.92572578E+02</rscale>
<asrwt>0</asrwt>
<pdfrwt beam="1">  1        2 0.11617147E-01 0.92572578E+02</pdfrwt>
<pdfrwt beam="2">  1       -2 0.43649426E-02 0.92572578E+02</pdfrwt>
<totfact> 0.10829351E+05</totfact>
</mgrwt>
</event>
<event>
 5    1  0.1239369E+001  0.9140516E+02  0.7546771E-02  0.1299484E+00
          2   -1    0    0  501    0  0.00000000000E+00  0.00000000000E+00  0.82127866186E+01  0.82127866186E+01  0.00000000000E+00 0. -1.
         -2   -1    0    0    0  501 -0.00000000000E+00 -0.00000000000E+00 -0.25432608314E+03  0.25432608314E+03  0.00000000000E+00 0.  1.
         23    2    1    2    0    0  0.00000000000E+00  0.00000000000E+00 -0.24611329652E+03  0.26253886976E+03  0.91405160738E+02 0.  0.
        -13    1    3    3    0    0 -0.41667745657E+02 -0.15154249409E+01 -0.69304166598E+02  0.80879942190E+02  0.00000000000E+00 0. -1.
         13    1    3    3    0    0  0.41667745657E+02  0.15154249409E+01 -0.17680912993E+03  0.18165892757E+03  0.00000000000E+00 0.  1.
<mgrwt>
<rscale>  0 0.91405161E+02</rscale>
<asrwt>0</asrwt>
<pdfrwt beam="1">  1        2 0.12635057E-02 0.91405161E+02</pdfrwt>
<pdfrwt beam="2">  1       -2 0.39127087E-01 0.91405161E+02</pdfrwt>
<totfact> 0.55338644E+04</totfact>
</mgrwt>
</event>
<event>
 5    1  0.1239369E+001  0.9500277E+02  0.7546771E-02  0.1291170E+00
         -1   -1    0    0    0  501 -0.00000000000E+00  0.00000000000E+00  0.44217065128E+01  0.44217065128E+01  0.00000000000E+00 0.  1.
          1   -1    0    0  501    0  0.00000000000E+00 -0.00000000000E+00 -0.51029651649E+03  0.51029651649E+03  0.00000000000E+00 0. -1.
         23    2    1    2    0    0  0.00000000000E+00  0.00000000000E+00 -0.50587480997E+03  0.51471822300E+03  0.95002766916E+02 0.  0.
        -13    1    3    3    0    0 -0.36189448084E+02 -0.30759106693E+02 -0.24880187741E+03  0.25329463674E+03  0.00000000000E+00 0.  1.
         13    1    3    3    0    0  0.36189448084E+02  0.30759106693E+02 -0.25707293256E+03  0.26142358626E+03  0.00000000000E+00 0. -1.
<mgrwt>
<rscale>  0 0.95002767E+02</rscale>
<asrwt>0</asrwt>
<pdfrwt beam="2">  1        1 0.78507203E-01 0.95002767E+02</pdfrwt>
<pdfrwt beam="1">  1       -1 0.68026214E-03 0.95002767E+02</pdfrwt>
<totfact> 0.12515648E+05</totfact>
</mgrwt>
</event>
<event>
 5    1  0.1239369E+001  0.9096630E+02  0.7546771E-02  0.1300528E+00
         -2   -1    0    0    0  501 -0.00000000000E+00  0.00000000000E+00  0.19120736615E+03  0.19120736615E+03  0.00000000000E+00 0. -1.
          2   -1    0    0  501    0  0.00000000000E+00 -0.00000000000E+00 -0.10819231385E+02  0.10819231385E+02  0.00000000000E+00 0.  1.
         23    2    1    2    0    0  0.00000000000E+00  0.00000000000E+00  0.18038813477E+03  0.20202659754E+03  0.90966295669E+02 0.  0.
        -11    1    3    3    0    0  0.27609786791E+02  0.21596447764E+02  0.25826035498E+02  0.43539533670E+02  0.00000000000E+00 0.  1.
         11    1    3    3    0    0 -0.27609786791E+02 -0.21596447764E+02  0.15456209927E+03  0.15848706387E+03  0.00000000000E+00 0. -1.
<mgrwt>
<rscale>  0 0.90966296E+02</rscale>
<asrwt>0</asrwt>
<pdfrwt beam="2">  1        2 0.16644973E-02 0.90966296E+02</pdfrwt>
<pdfrwt beam="1">  1       -2 0.29416515E-01 0.90966296E+02</pdfrwt>
<totfact> 0.63903016E+04</totfact>
</mgrwt>
</event>
<event>
 5    1  0.1239369E+001  0.9057245E+02  0.7546771E-02  0.1301471E+00
          2   -1    0    0  501    0  0.00000000000E+00  0.00000000000E+00  0.36084962473E+02  0.36084962473E+02  0.00000000000E+00 0. -1.
         -2   -1    0    0    0  501 -0.00000000000E+00 -0.00000000000E+00 -0.56833708270E+02  0.56833708270E+02  0.00000000000E+00 0.  1.
         23    2    1    2    0    0  0.00000000000E+00  0.00000000000E+00 -0.20748745796E+02  0.92918670743E+02  0.90572451223E+02 0.  0.
        -11    1    3    3    0    0  0.16131894497E+02 -0.27971950958E+02  0.22199893961E+02  0.39185499261E+02  0.00000000000E+00 0. -1.
         11    1    3    3    0    0 -0.16131894497E+02  0.27971950958E+02 -0.42948639757E+02  0.53733171482E+02  0.00000000000E+00 0.  1.
<mgrwt>
<rscale>  0 0.90572451E+02</rscale>
<asrwt>0</asrwt>
<pdfrwt beam="1">  1        2 0.55515327E-02 0.90572451E+02</pdfrwt>
<pdfrwt beam="2">  1       -2 0.87436475E-02 0.90572451E+02</pdfrwt>
<totfact> 0.94693104E+04</totfact>
</mgrwt>
</event>
<event>
 5    1  0.1239369E+001  0.9524708E+02  0.7546771E-02  0.1290621E+00
          2   -1    0    0  501    0  0.00000000000E+00  0.00000000000E+00  0.68243321914E+02  0.68243321914E+02  0.00000000000E+00 0. -1.
         -2   -1    0    0    0  501 -0.00000000000E+00 -0.00000000000E+00 -0.33234046537E+02  0.33234046537E+02  0.00000000000E+00 0.  1.
         23    2    1    2    0    0  0.00000000000E+00  0.00000000000E+00  0.35009275377E+02  0.10147736845E+03  0.95247083658E+02 0.  0.
        -11    1    3    3    0    0 -0.26448676095E+02  0.81098195676E+01 -0.23795706066E+02  0.36490235239E+02  0.00000000000E+00 0.  1.
         11    1    3    3    0    0  0.26448676095E+02 -0.81098195676E+01  0.58804981443E+02  0.64987133212E+02  0.00000000000E+00 0. -1.
<mgrwt>
<rscale>  0 0.95247084E+02</rscale>
<asrwt>0</asrwt>
<pdfrwt beam="1">  1        2 0.10498973E-01 0.95247084E+02</pdfrwt>
<pdfrwt beam="2">  1       -2 0.51129303E-02 0.95247084E+02</pdfrwt>
<totfact> 0.97141591E+04</totfact>
</mgrwt>
</event>
<event>
 5    1  0.1239369E+001  0.8302266E+02  0.7546771E-02  0.1320686E+00
          2   -1    0    0  501    0  0.00000000000E+00  0.00000000000E+00  0.29586593756E+03  0.29586593756E+03  0.00000000000E+00 0. -1.
         -2   -1    0    0    0  501 -0.00000000000E+00 -0.00000000000E+00 -0.58242281049E+01  0.58242281049E+01  0.00000000000E+00 0.  1.
         23    2    1    2    0    0  0.00000000000E+00  0.00000000000E+00  0.29004170945E+03  0.30169016566E+03  0.83022664588E+02 0.  0.
        -13    1    3    3    0    0  0.40902288072E+02  0.32232580761E+01  0.16794687354E+03  0.17288591294E+03  0.00000000000E+00 0. -1.
         13    1    3    3    0    0 -0.40902288072E+02 -0.32232580761E+01  0.12209483592E+03  0.12880425272E+03  0.00000000000E+00 0.  1.
<mgrwt>
<rscale>  0 0.83022665E+02</rscale>
<asrwt>0</asrwt>
<pdfrwt beam="1">  1        2 0.45517825E-01 0.83022665E+02</pdfrwt>
<pdfrwt beam="2">  1       -2 0.89603532E-03 0.83022665E+02</pdfrwt>
<totfact> 0.22918546E+05</totfact>
</mgrwt>
</event>
<event>
 5    1  0.1239369E+001  0.8970412E+02  0.7546771E-02  0.1303570E+00
          2   -1    0    0  501    0  0.00000000000E+00  0.00000000000E+00  0.95653752833E+02  0.95653752833E+02  0.00000000000E+00 0. -1.
         -2   -1    0    0    0  501 -0.00000000000E+00 -0.00000000000E+00 -0.21031136774E+02  0.21031136774E+02  0.00000000000E+00 0.  1.
         23    2    1    2    0    0  0.00000000000E+00  0.00000000000E+00  0.74622616059E+02  0.11668488961E+03  0.89704117158E+02 0.  0.
        -13    1    3    3    0    0  0.19050748263E+02 -0.37637582905E+02  0.17490443256E+02  0.45666555175E+02  0.00000000000E+00 0.  1.
         13    1    3    3    0    0 -0.19050748263E+02  0.37637582905E+02  0.57132172803E+02  0.71018334432E+02  0.00000000000E+00 0. -1.
<mgrwt>
<rscale>  0 0.89704117E+02</rscale>
<asrwt>0</asrwt>
<pdfrwt beam="1">  1        2 0.14715962E-01 0.89704117E+02</pdfrwt>
<pdfrwt beam="2">  1       -2 0.32355596E-02 0.89704117E+02</pdfrwt>
<totfact> 0.12658617E+05</totfact>
</mgrwt>
</event>
<event>
 5    1  0.1239369E+001  0.9154246E+02  0.7546771E-02  0.1299159E+00
         -1   -1    0    0    0  501 -0.00000000000E+00  0.00000000000E+00  0.26364267672E+02  0.26364267672E+02  0.00000000000E+00 0.  1.
          1   -1    0    0  501    0  0.00000000000E+00 -0.00000000000E+00 -0.79463825033E+02  0.79463825033E+02  0.00000000000E+00 0. -1.
         23    2    1    2    0    0  0.00000000000E+00  0.00000000000E+00 -0.53099557361E+02  0.10582809271E+03  0.91542461261E+02 0.  0.
        -13    1    3    3    0    0  0.42910102431E+02  0.15906283006E+02 -0.27529922039E+02  0.53405836171E+02  0.00000000000E+00 0.  1.
         13    1    3    3    0    0 -0.42910102431E+02 -0.15906283006E+02 -0.25569635322E+02  0.52422256534E+02  0.00000000000E+00 0. -1.
<mgrwt>
<rscale>  0 0.91542461E+02</rscale>
<asrwt>0</asrwt>
<pdfrwt beam="2">  1        1 0.12225204E-01 0.91542461E+02</pdfrwt>
<pdfrwt beam="1">  1       -1 0.40560412E-02 0.91542461E+02</pdfrwt>
<totfact> 0.99536328E+04</totfact>
</mgrwt>
</event>
<event>
 5    1  0.1239369E+001  0.9081591E+02  0.7546771E-02  0.1300888E+00
         -2   -1    0    0    0  501 -0.00000000000E+00  0.00000000000E+00  0.60435439291E+01  0.60435439291E+01  0.00000000000E+00 0.  1.
          2   -1    0    0  501    0  0.00000000000E+00 -0.00000000000E+00 -0.34117106088E+03  0.34117106088E+03  0.00000000000E+00 0. -1.
         23    2    1    2    0    0  0.00000000000E+00  0.00000000000E+00 -0.33512751695E+03  0.34721460481E+03  0.90815908160E+02 0.  0.
        -13    1    3    3    0    0 -0.41664078417E+02 -0.13464388789E+02 -0.21355402906E+03  0.21799657916E+03  0.00000000000E+00 0.  1.
         13    1    3    3    0    0  0.41664078417E+02  0.13464388789E+02 -0.12157348789E+03  0.12921802565E+03  0.00000000000E+00 0. -1.
<mgrwt>
<rscale>  0 0.90815908E+02</rscale>
<asrwt>0</asrwt>
<pdfrwt beam="2">  1        2 0.52487866E-01 0.90815908E+02</pdfrwt>
<pdfrwt beam="1">  1       -2 0.92977581E-03 0.90815908E+02</pdfrwt>
<totfact> 0.19042221E+05</totfact>
</mgrwt>
</event>
<event>
 5    1  0.1239369E+001  0.9051456E+02  0.7546771E-02  0.1301610E+00
         -1   -1    0    0    0  501 -0.00000000000E+00  0.00000000000E+00  0.17868791464E+02  0.17868791464E+02  0.00000000000E+00 0.  1.
          1   -1    0    0  501    0  0.00000000000E+00 -0.00000000000E+00 -0.11462563197E+03  0.11462563197E+03  0.00000000000E+00 0. -1.
         23    2    1    2    0    0  0.00000000000E+00  0.00000000000E+00 -0.96756840501E+02  0.13249442343E+03  0.90514562673E+02 0.  0.
        -13    1    3    3    0    0  0.26052974932E+02 -0.33788502552E+02 -0.26285299981E+02  0.50113245780E+02  0.00000000000E+00 0.  1.
         13    1    3    3    0    0 -0.26052974932E+02  0.33788502552E+02 -0.70471540521E+02  0.82381177649E+02  0.00000000000E+00 0. -1.
<mgrwt>
<rscale>  0 0.90514563E+02</rscale>
<asrwt>0</asrwt>
<pdfrwt beam="2">  1        1 0.17634713E-01 0.90514563E+02</pdfrwt>
<pdfrwt beam="1">  1       -1 0.27490448E-02 0.90514563E+02</pdfrwt>
<totfact> 0.10902423E+05</totfact>
</mgrwt>
</event>
<event>
 5    1  0.1239369E+001  0.9091011E+02  0.7546771E-02  0.1300663E+00
         -1   -1    0    0    0  501 -0.00000000000E+00  0.00000000000E+00  0.64560228379E+02  0.64560228379E+02  0.00000000000E+00 0.  1.
          1   -1    0    0  501    0  0.00000000000E+00 -0.00000000000E+00 -0.32003632468E+02  0.32003632468E+02  0.00000000000E+00 0. -1.
         23    2    1    2    0    0  0.00000000000E+00  0.00000000000E+00  0.32556595911E+02  0.96563860847E+02  0.90910105513E+02 0.  0.
        -13    1    3    3    0    0  0.42803797574E+02  0.12515932581E+02  0.25620031375E+02  0.51431504575E+02  0.00000000000E+00 0.  1.
         13    1    3    3    0    0 -0.42803797574E+02 -0.12515932581E+02  0.69365645358E+01  0.45132356272E+02  0.00000000000E+00 0. -1.
<mgrwt>
<rscale>  0 0.90910106E+02</rscale>
<asrwt>0</asrwt>
<pdfrwt beam="2">  1        1 0.49236358E-02 0.90910106E+02</pdfrwt>
<pdfrwt beam="1">  1       -1 0.99323428E-02 0.90910106E+02</pdfrwt>
<totfact> 0.88321992E+04</totfact>
</mgrwt>
</event>
<event>
 5    1  0.1239369E+001  0.9108740E+02  0.7546771E-02  0.1300240E+00
         -1   -1    0    0    0  501 -0.00000000000E+00  0.00000000000E+00  0.12137163467E+02  0.12137163467E+02  0.00000000000E+00 0.  1.
          1   -1    0    0  501    0  0.00000000000E+00 -0.00000000000E+00 -0.17089894226E+03  0.17089894226E+03  0.00000000000E+00 0. -1.
         23    2    1    2    0    0  0.00000000000E+00  0.00000000000E+00 -0.15876177879E+03  0.18303610572E+03  0.91087395364E+02 0.  0.
        -13    1    3    3    0    0  0.40899705685E+02  0.64711262763E+01 -0.41277080029E+02  0.58467587055E+02  0.00000000000E+00 0.  1.
         13    1    3    3    0    0 -0.40899705685E+02 -0.64711262763E+01 -0.11748469876E+03  0.12456851867E+03  0.00000000000E+00 0. -1.
<mgrwt>
<rscale>  0 0.91087395E+02</rscale>
<asrwt>0</asrwt>
<pdfrwt beam="2">  1        1 0.26292145E-01 0.91087395E+02</pdfrwt>
<pdfrwt beam="1">  1       -1 0.18672559E-02 0.91087395E+02</pdfrwt>
<totfact> 0.11519357E+05</totfact>
</mgrwt>
</event>
<event>
 5    1  0.1239369E+001  0.9138050E+02  0.7546771E-02  0.1299543E+00
         -2   -1    0    0    0  501 -0.00000000000E+00  0.00000000000E+00  0.58443337642E+01  0.58443337642E+01  0.00000000000E+00 0.  1.
          2   -1    0    0  501    0  0.00000000000E+00 -0.00000000000E+00 -0.35720049708E+03  0.35720049708E+03  0.00000000000E+00 0. -1.
         23    2    1    2    0    0  0.00000000000E+00  0.00000000000E+00 -0.35135616332E+03  0.36304483085E+03  0.91380499576E+02 0.  0.
        -13    1    3    3    0    0  0.27836770180E+02 -0.34024854382E+02 -0.22514376442E+03  0.22939549069E+03  0.00000000000E+00 0. -1.
         13    1    3    3    0    0 -0.27836770180E+02  0.34024854382E+02 -0.12621239889E+03  0.13364934016E+03  0.00000000000E+00 0.  1.
<mgrwt>
<rscale>  0 0.91380500E+02</rscale>
<asrwt>0</asrwt>
<pdfrwt beam="2">  1        2 0.54953939E-01 0.91380500E+02</pdfrwt>
<pdfrwt beam="1">  1       -2 0.89912801E-03 0.91380500E+02</pdfrwt>
<totfact> 0.19048273E+05</totfact>
</mgrwt>
</event>
<event>
 5    1  0.1239369E+001  0.9142423E+02  0.7546771E-02  0.1299439E+00
         -1   -1    0    0    0  501 -0.00000000000E+00  0.00000000000E+00  0.23332412219E+02  0.23332412219E+02  0.00000000000E+00 0.  1.
          1   -1    0    0  501    0  0.00000000000E+00 -0.00000000000E+00 -0.89557712611E+02  0.89557712611E+02  0.00000000000E+00 0. -1.
         23    2    1    2    0    0  0.00000000000E+00  0.00000000000E+00 -0.66225300392E+02  0.11289012483E+03  0.91424230223E+02 0.  0.
        -11    1    3    3    0    0 -0.24103343965E+02  0.16643520700E+02  0.10221762846E+02  0.31023578247E+02  0.00000000000E+00 0.  1.
         11    1    3    3    0    0  0.24103343965E+02 -0.16643520700E+02 -0.76447063238E+02  0.81866546582E+02  0.00000000000E+00 0. -1.
<mgrwt>
<rscale>  0 0.91424230E+02</rscale>
<asrwt>0</asrwt>
<pdfrwt beam="2">  1        1 0.13778110E-01 0.91424230E+02</pdfrwt>
<pdfrwt beam="1">  1       -1 0.35896018E-02 0.91424230E+02</pdfrwt>
<totfact> 0.10182020E+05</totfact>
</mgrwt>
</event>
<event>
 5    1  0.1239369E+001  0.9231154E+02  0.7546771E-02  0.1297349E+00
         -1   -1    0    0    0  501 -0.00000000000E+00  0.00000000000E+00  0.71590966732E+01  0.71590966732E+01  0.00000000000E+00 0.  1.
          1   -1    0    0  501    0  0.00000000000E+00 -0.00000000000E+00 -0.29757317395E+03  0.29757317395E+03  0.00000000000E+00 0. -1.
         23    2    1    2    0    0  0.00000000000E+00  0.00000000000E+00 -0.29041407727E+03  0.30473227062E+03  0.92311540333E+02 0.  0.
        -13    1    3    3    0    0 -0.24678118953E+02  0.38876442835E+02 -0.15562928111E+03  0.16229867683E+03  0.00000000000E+00 0.  1.
         13    1    3    3    0    0  0.24678118953E+02 -0.38876442835E+02 -0.13478479617E+03  0.14243359379E+03  0.00000000000E+00 0. -1.
<mgrwt>
<rscale>  0 0.92311540E+02</rscale>
<asrwt>0</asrwt>
<pdfrwt beam="2">  1        1 0.45780480E-01 0.92311540E+02</pdfrwt>
<pdfrwt beam="1">  1       -1 0.11013997E-02 0.92311540E+02</pdfrwt>
<totfact> 0.12377074E+05</totfact>
</mgrwt>
</event>
<event>
 5    1  0.1239369E+001  0.8893802E+02  0.7546771E-02  0.1305444E+00
          1   -1    0    0  501    0  0.00000000000E+00  0.00000000000E+00  0.65797184252E+02  0.65797184252E+02  0.00000000000E+00 0. -1.
         -1   -1    0    0    0  501 -0.00000000000E+00 -0.00000000000E+00 -0.30054365979E+02  0.30054365979E+02  0.00000000000E+00 0.  1.
         23    2    1    2    0    0  0.00000000000E+00  0.00000000000E+00  0.35742818272E+02  0.95851550231E+02  0.88938015627E+02 0.  0.
        -11    1    3    3    0    0 -0.19005564787E+02  0.36193907818E+02 -0.98993264315E+00  0.40892425003E+02  0.00000000000E+00 0.  1.
         11    1    3    3    0    0  0.19005564787E+02 -0.36193907818E+02  0.36732750915E+02  0.54959125228E+02  0.00000000000E+00 0. -1.
<mgrwt>
<rscale>  0 0.88938016E+02</rscale>
<asrwt>0</asrwt>
<pdfrwt beam="1">  1        1 0.10122644E-01 0.88938016E+02</pdfrwt>
<pdfrwt beam="2">  1       -1 0.46237486E-02 0.88938016E+02</pdfrwt>
<totfact> 0.10466601E+05</totfact>
</mgrwt>
</event>
<event>
 5    1  0.1239369E+001  0.8566819E+02  0.7546771E-02  0.1313694E+00
         -1   -1    0    0    0  501 -0.00000000000E+00  0.00000000000E+00  0.70156119129E+02  0.70156119129E+02  0.00000000000E+00 0.  1.
          1   -1    0    0  501    0  0.00000000000E+00 -0.00000000000E+00 -0.26152524113E+02  0.26152524113E+02  0.00000000000E+00 0. -1.
         23    2    1    2    0    0  0.00000000000E+00  0.00000000000E+00  0.44003595016E+02  0.96308643242E+02  0.85668187729E+02 0.  0.
        -11    1    3    3    0    0 -0.20195257910E+02  0.36928329847E+02  0.13063861520E+02  0.44070562342E+02  0.00000000000E+00 0. -1.
         11    1    3    3    0    0  0.20195257910E+02 -0.36928329847E+02  0.30939733495E+02  0.52238080900E+02  0.00000000000E+00 0.  1.
<mgrwt>
<rscale>  0 0.85668188E+02</rscale>
<asrwt>0</asrwt>
<pdfrwt beam="2">  1        1 0.40234653E-02 0.85668188E+02</pdfrwt>
<pdfrwt beam="1">  1       -1 0.10793249E-01 0.85668188E+02</pdfrwt>
<totfact> 0.10138248E+05</totfact>
</mgrwt>
</event>
<event>
 5    1  0.1239369E+001  0.9084853E+02  0.7546771E-02  0.1300810E+00
         -2   -1    0    0    0  501 -0.00000000000E+00  0.00000000000E+00  0.25951536360E+02  0.25951536360E+02  0.00000000000E+00 0.  1.
          2   -1    0    0  501    0  0.00000000000E+00 -0.00000000000E+00 -0.79508344549E+02  0.79508344549E+02  0.00000000000E+00 0. -1.
         23    2    1    2    0    0  0.00000000000E+00  0.00000000000E+00 -0.53556808189E+02  0.10545988091E+03  0.90848526559E+02 0.  0.
        -13    1    3    3    0    0  0.25372530458E+02 -0.32380019842E+02 -0.49141606965E+02  0.64086882604E+02  0.00000000000E+00 0. -1.
         13    1    3    3    0    0 -0.25372530458E+02  0.32380019842E+02 -0.44152012237E+01  0.41372998304E+02  0.00000000000E+00 0.  1.
<mgrwt>
<rscale>  0 0.90848527E+02</rscale>
<asrwt>0</asrwt>
<pdfrwt beam="2">  1        2 0.12232053E-01 0.90848527E+02</pdfrwt>
<pdfrwt beam="1">  1       -2 0.39925441E-02 0.90848527E+02</pdfrwt>
<totfact> 0.11580864E+05</totfact>
</mgrwt>
</event>
<event>
 5    1  0.1239369E+001  0.9198600E+02  0.7546771E-02  0.1298112E+00
          3   -1    0    0  501    0  0.00000000000E+00  0.00000000000E+00  0.10937783442E+03  0.10937783442E+03  0.00000000000E+00 0. -1.
         -3   -1    0    0    0  501 -0.00000000000E+00 -0.00000000000E+00 -0.19339896572E+02  0.19339896572E+02  0.00000000000E+00 0.  1.
         23    2    1    2    0    0  0.00000000000E+00  0.00000000000E+00  0.90037937846E+02  0.12871773099E+03  0.91985999042E+02 0.  0.
        -13    1    3    3    0    0  0.15102808024E+02  0.17182101867E+02  0.10085225201E+03  0.10341419714E+03  0.00000000000E+00 0. -1.
         13    1    3    3    0    0 -0.15102808024E+02 -0.17182101867E+02 -0.10814314159E+02  0.25303533854E+02  0.00000000000E+00 0.  1.
<mgrwt>
<rscale>  0 0.91985999E+02</rscale>
<asrwt>0</asrwt>
<pdfrwt beam="1">  1        3 0.16827359E-01 0.91985999E+02</pdfrwt>
<pdfrwt beam="2">  1       -3 0.29753688E-02 0.91985999E+02</pdfrwt>
<totfact> 0.31885043E+04</totfact>
</mgrwt>
</event>
<event>
 5    1  0.1239369E+001  0.8969837E+02  0.7546771E-02  0.1303584E+00
          1   -1    0    0  501    0  0.00000000000E+00  0.00000000000E+00  0.95408141464E+02  0.95408141464E+02  0.00000000000E+00 0. -1.
         -1   -1    0    0    0  501 -0.00000000000E+00 -0.00000000000E+00 -0.21082574485E+02  0.21082574485E+02  0.00000000000E+00 0.  1.
         23    2    1    2    0    0  0.00000000000E+00  0.00000000000E+00  0.74325566979E+02  0.11649071595E+03  0.89698366738E+02 0.  0.
        -11    1    3    3    0    0  0.44141814319E+02  0.34065334217E+01  0.27856936869E+02  0.52307869131E+02  0.00000000000E+00 0.  1.
         11    1    3    3    0    0 -0.44141814319E+02 -0.34065334217E+01  0.46468630110E+02  0.64182846818E+02  0.00000000000E+00 0. -1.
<mgrwt>
<rscale>  0 0.89698367E+02</rscale>
<asrwt>0</asrwt>
<pdfrwt beam="1">  1        1 0.14678175E-01 0.89698367E+02</pdfrwt>
<pdfrwt beam="2">  1       -1 0.32434731E-02 0.89698367E+02</pdfrwt>
<totfact> 0.10836439E+05</totfact>
</mgrwt>
</event>
<event>
 5    1  0.1239369E+001  0.8945103E+02  0.7546771E-02  0.1304187E+00
          3   -1    0    0  501    0  0.00000000000E+00  0.00000000000E+00  0.51612275332E+02  0.51612275332E+02  0.00000000000E+00 0. -1.
         -3   -1    0    0    0  501 -0.00000000000E+00 -0.00000000000E+00 -0.38757677019E+02  0.38757677019E+02  0.00000000000E+00 0.  1.
         23    2    1    2    0    0  0.00000000000E+00  0.00000000000E+00  0.12854598313E+02  0.90369952352E+02  0.89451034596E+02 0.  0.
        -13    1    3    3    0    0 -0.47477902009E+01 -0.41393437107E+02 -0.10000549880E+02  0.42848210525E+02  0.00000000000E+00 0.  1.
         13    1    3    3    0    0  0.47477902009E+01  0.41393437107E+02  0.22855148193E+02  0.47521741827E+02  0.00000000000E+00 0. -1.
<mgrwt>
<rscale>  0 0.89451035E+02</rscale>
<asrwt>0</asrwt>
<pdfrwt beam="1">  1        3 0.79403500E-02 0.89451035E+02</pdfrwt>
<pdfrwt beam="2">  1       -3 0.59627196E-02 0.89451035E+02</pdfrwt>
<totfact> 0.37288230E+04</totfact>
</mgrwt>
</event>
<event>
 5    1  0.1239369E+001  0.9215672E+02  0.7546771E-02  0.1297711E+00
          1   -1    0    0  501    0  0.00000000000E+00  0.00000000000E+00  0.56176244313E+02  0.56176244313E+02  0.00000000000E+00 0. -1.
         -1   -1    0    0    0  501 -0.00000000000E+00 -0.00000000000E+00 -0.37795607212E+02  0.37795607212E+02  0.00000000000E+00 0.  1.
         23    2    1    2    0    0  0.00000000000E+00  0.00000000000E+00  0.18380637102E+02  0.93971851525E+02  0.92156720096E+02 0.  0.
        -11    1    3    3    0    0 -0.43597749690E+01  0.23881400307E+02 -0.30745939055E+02  0.39174503019E+02  0.00000000000E+00 0.  1.
         11    1    3    3    0    0  0.43597749690E+01 -0.23881400307E+02  0.49126576157E+02  0.54797348506E+02  0.00000000000E+00 0. -1.
<mgrwt>
<rscale>  0 0.92156720E+02</rscale>
<asrwt>0</asrwt>
<pdfrwt beam="1">  1        1 0.86424991E-02 0.92156720E+02</pdfrwt>
<pdfrwt beam="2">  1       -1 0.58147088E-02 0.92156720E+02</pdfrwt>
<totfact> 0.92618477E+04</totfact>
</mgrwt>
</event>
<event>
 5    1  0.1239369E+001  0.9083517E+02  0.7546771E-02  0.1300842E+00
         -1   -1    0    0    0  501 -0.00000000000E+00  0.00000000000E+00  0.10527998452E+03  0.10527998452E+03  0.00000000000E+00 0.  1.
          1   -1    0    0  501    0  0.00000000000E+00 -0.00000000000E+00 -0.19593057665E+02  0.19593057665E+02  0.00000000000E+00 0. -1.
         23    2    1    2    0    0  0.00000000000E+00  0.00000000000E+00  0.85686926851E+02  0.12487304218E+03  0.90835165164E+02 0.  0.
        -11    1    3    3    0    0  0.36464767153E+01 -0.20167717532E+02 -0.12874710585E+02  0.24203136068E+02  0.00000000000E+00 0. -1.
         11    1    3    3    0    0 -0.36464767153E+01  0.20167717532E+02  0.98561637436E+02  0.10066990611E+03  0.00000000000E+00 0.  1.
<mgrwt>
<rscale>  0 0.90835165E+02</rscale>
<asrwt>0</asrwt>
<pdfrwt beam="2">  1        1 0.30143166E-02 0.90835165E+02</pdfrwt>
<pdfrwt beam="1">  1       -1 0.16196920E-01 0.90835165E+02</pdfrwt>
<totfact> 0.81369692E+04</totfact>
</mgrwt>
</event>
<event>
 5    1  0.1239369E+001  0.9094975E+02  0.7546771E-02  0.1300568E+00
         -1   -1    0    0    0  501 -0.00000000000E+00  0.00000000000E+00  0.91468349636E+01  0.91468349636E+01  0.00000000000E+00 0.  1.
          1   -1    0    0  501    0  0.00000000000E+00 -0.00000000000E+00 -0.22608523239E+03  0.22608523239E+03  0.00000000000E+00 0. -1.
         23    2    1    2    0    0  0.00000000000E+00  0.00000000000E+00 -0.21693839743E+03  0.23523206736E+03  0.90949751147E+02 0.  0.
        -13    1    3    3    0    0 -0.22966783434E+02  0.39133352261E+02 -0.11625932194E+03  0.12480032988E+03  0.00000000000E+00 0.  1.
         13    1    3    3    0    0  0.22966783434E+02 -0.39133352261E+02 -0.10067907550E+03  0.11043173748E+03  0.00000000000E+00 0. -1.
<mgrwt>
<rscale>  0 0.90949751E+02</rscale>
<asrwt>0</asrwt>
<pdfrwt beam="2">  1        1 0.34782343E-01 0.90949751E+02</pdfrwt>
<pdfrwt beam="1">  1       -1 0.14072054E-02 0.90949751E+02</pdfrwt>
<totfact> 0.12207968E+05</totfact>
</mgrwt>
</event>
<event>
 5    1  0.1239369E+001  0.9114749E+02  0.7546771E-02  0.1300096E+00
         -1   -1    0    0    0  501 -0.00000000000E+00  0.00000000000E+00  0.21819422191E+03  0.21819422191E+03  0.00000000000E+00 0.  1.
          1   -1    0    0  501    0  0.00000000000E+00 -0.00000000000E+00 -0.95188871061E+01  0.95188871061E+01  0.00000000000E+00 0. -1.
         23    2    1    2    0    0  0.00000000000E+00  0.00000000000E+00  0.20867533481E+03  0.22771310902E+03  0.91147488514E+02 0.  0.
        -11    1    3    3    0    0  0.28862635872E+02  0.19326058861E+02  0.17804441102E+03  0.18140110418E+03  0.00000000000E+00 0.  1.
         11    1    3    3    0    0 -0.28862635872E+02 -0.19326058861E+02  0.30630923786E+02  0.46312004843E+02  0.00000000000E+00 0. -1.
<mgrwt>
<rscale>  0 0.91147489E+02</rscale>
<asrwt>0</asrwt>
<pdfrwt beam="2">  1        1 0.14644443E-02 0.91147489E+02</pdfrwt>
<pdfrwt beam="1">  1       -1 0.33568338E-01 0.91147489E+02</pdfrwt>
<totfact> 0.67718537E+04</totfact>
</mgrwt>
</event>
<event>
 5    1  0.1239369E+001  0.9405942E+02  0.7546771E-02  0.1293309E+00
         -1   -1    0    0    0  501 -0.00000000000E+00  0.00000000000E+00  0.69597560209E+02  0.69597560209E+02  0.00000000000E+00 0.  1.
          1   -1    0    0  501    0  0.00000000000E+00 -0.00000000000E+00 -0.31779760954E+02  0.31779760954E+02  0.00000000000E+00 0. -1.
         23    2    1    2    0    0  0.00000000000E+00  0.00000000000E+00  0.37817799254E+02  0.10137732116E+03  0.94059424333E+02 0.  0.
        -13    1    3    3    0    0 -0.39464398142E+02  0.25241408195E+02  0.14435517622E+02  0.49019910010E+02  0.00000000000E+00 0. -1.
         13    1    3    3    0    0  0.39464398142E+02 -0.25241408195E+02  0.23382281632E+02  0.52357411153E+02  0.00000000000E+00 0.  1.
<mgrwt>
<rscale>  0 0.94059424E+02</rscale>
<asrwt>0</asrwt>
<pdfrwt beam="2">  1        1 0.48891940E-02 0.94059424E+02</pdfrwt>
<pdfrwt beam="1">  1       -1 0.10707317E-01 0.94059424E+02</pdfrwt>
<totfact> 0.80006131E+04</totfact>
</mgrwt>
</event>
<event>
 5    1  0.1239369E+001  0.9105375E+02  0.7546771E-02  0.1300320E+00
          3   -1    0    0  501    0  0.00000000000E+00  0.00000000000E+00  0.22160573318E+03  0.22160573318E+03  0.00000000000E+00 0. -1.
         -3   -1    0    0    0  501 -0.00000000000E+00 -0.00000000000E+00 -0.93530799146E+01  0.93530799146E+01  0.00000000000E+00 0.  1.
         23    2    1    2    0    0  0.00000000000E+00  0.00000000000E+00  0.21225265326E+03  0.23095881309E+03  0.91053745270E+02 0.  0.
        -11    1    3    3    0    0  0.43469513694E+02  0.43963776693E+01  0.13858666705E+03  0.14531067078E+03  0.00000000000E+00 0. -1.
         11    1    3    3    0    0 -0.43469513694E+02 -0.43963776693E+01  0.73665986211E+02  0.85648142314E+02  0.00000000000E+00 0.  1.
<mgrwt>
<rscale>  0 0.91053745E+02</rscale>
<asrwt>0</asrwt>
<pdfrwt beam="1">  1        3 0.34093186E-01 0.91053745E+02</pdfrwt>
<pdfrwt beam="2">  1       -3 0.14389355E-02 0.91053745E+02</pdfrwt>
<totfact> 0.27071828E+04</totfact>
</mgrwt>
</event>
<event>
 5    1  0.1239369E+001  0.9152047E+02  0.7546771E-02  0.1299211E+00
         -2   -1    0    0    0  501 -0.00000000000E+00  0.00000000000E+00  0.99830164198E+01  0.99830164198E+01  0.00000000000E+00 0.  1.
          2   -1    0    0  501    0  0.00000000000E+00 -0.00000000000E+00 -0.20975617267E+03  0.20975617267E+03  0.00000000000E+00 0. -1.
         23    2    1    2    0    0  0.00000000000E+00  0.00000000000E+00 -0.19977315625E+03  0.21973918909E+03  0.91520474561E+02 0.  0.
        -13    1    3    3    0    0  0.26880108536E+02  0.15374559916E+02 -0.18995081575E+02  0.36328094522E+02  0.00000000000E+00 0.  1.
         13    1    3    3    0    0 -0.26880108536E+02 -0.15374559916E+02 -0.18077807468E+03  0.18341109457E+03  0.00000000000E+00 0. -1.
<mgrwt>
<rscale>  0 0.91520475E+02</rscale>
<asrwt>0</asrwt>
<pdfrwt beam="2">  1        2 0.32270181E-01 0.91520475E+02</pdfrwt>
<pdfrwt beam="1">  1       -2 0.15358487E-02 0.91520475E+02</pdfrwt>
<totfact> 0.15579054E+05</totfact>
</mgrwt>
</event>
<event>
 5    1  0.1239369E+001  0.9155672E+02  0.7546771E-02  0.1299125E+00
         -4   -1    0    0    0  501 -0.00000000000E+00  0.00000000000E+00  0.78207944996E+01  0.78207944996E+01  0.00000000000E+00 0.  1.
          4   -1    0    0  501    0  0.00000000000E+00 -0.00000000000E+00 -0.26795977958E+03  0.26795977958E+03  0.00000000000E+00 0. -1.
         23    2    1    2    0    0  0.00000000000E+00  0.00000000000E+00 -0.26013898508E+03  0.27578057408E+03  0.91556722751E+02 0.  0.
        -11    1    3    3    0    0  0.38360073765E+02 -0.22001780015E+02 -0.16572026299E+03  0.17151903436E+03  0.00000000000E+00 0. -1.
         11    1    3    3    0    0 -0.38360073765E+02  0.22001780015E+02 -0.94418722090E+02  0.10426153972E+03  0.00000000000E+00 0.  1.
<mgrwt>
<rscale>  0 0.91556723E+02</rscale>
<asrwt>0</asrwt>
<pdfrwt beam="2">  1        4 0.41224576E-01 0.91556723E+02</pdfrwt>
<pdfrwt beam="1">  1       -4 0.12031993E-02 0.91556723E+02</pdfrwt>
<totfact> 0.18380669E+04</totfact>
</mgrwt>
</event>
<event>
 5    1  0.1239369E+001  0.9166536E+02  0.7546771E-02  0.1298868E+00
         -2   -1    0    0    0  501 -0.00000000000E+00  0.00000000000E+00  0.26616338042E+02  0.26616338042E+02  0.00000000000E+00 0.  1.
          2   -1    0    0  501    0  0.00000000000E+00 -0.00000000000E+00 -0.78922740496E+02  0.78922740496E+02  0.00000000000E+00 0. -1.
         23    2    1    2    0    0  0.00000000000E+00  0.00000000000E+00 -0.52306402455E+02  0.10553907854E+03  0.91665355292E+02 0.  0.
        -11    1    3    3    0    0  0.14602323196E+02  0.31413769400E+02  0.83985134090E+01  0.35645305134E+02  0.00000000000E+00 0.  1.
         11    1    3    3    0    0 -0.14602323196E+02 -0.31413769400E+02 -0.60704915864E+02  0.69893773404E+02  0.00000000000E+00 0. -1.
<mgrwt>
<rscale>  0 0.91665355E+02</rscale>
<asrwt>0</asrwt>
<pdfrwt beam="2">  1        2 0.12141960E-01 0.91665355E+02</pdfrwt>
<pdfrwt beam="1">  1       -2 0.40948212E-02 0.91665355E+02</pdfrwt>
<totfact> 0.11272198E+05</totfact>
</mgrwt>
</event>
<event>
 5    1  0.1239369E+001  0.9105383E+02  0.7546771E-02  0.1300320E+00
         -2   -1    0    0    0  501 -0.00000000000E+00  0.00000000000E+00  0.27794967549E+02  0.27794967549E+02  0.00000000000E+00 0.  1.
          2   -1    0    0  501    0  0.00000000000E+00 -0.00000000000E+00 -0.74571047990E+02  0.74571047990E+02  0.00000000000E+00 0. -1.
         23    2    1    2    0    0  0.00000000000E+00  0.00000000000E+00 -0.46776080441E+02  0.10236601554E+03  0.91053827135E+02 0.  0.
        -11    1    3    3    0    0 -0.41255659494E+02 -0.16596481677E+02 -0.12417244325E+02  0.46169910125E+02  0.00000000000E+00 0.  1.
         11    1    3    3    0    0  0.41255659494E+02  0.16596481677E+02 -0.34358836116E+02  0.56196105414E+02  0.00000000000E+00 0. -1.
<mgrwt>
<rscale>  0 0.91053827E+02</rscale>
<asrwt>0</asrwt>
<pdfrwt beam="2">  1        2 0.11472469E-01 0.91053827E+02</pdfrwt>
<pdfrwt beam="1">  1       -2 0.42761489E-02 0.91053827E+02</pdfrwt>
<totfact> 0.11301498E+05</totfact>
</mgrwt>
</event>
<event>
 5    1  0.1239369E+001  0.7575145E+02  0.7546771E-02  0.1341560E+00
          3   -1    0    0  501    0  0.00000000000E+00  0.00000000000E+00  0.56263868817E+02  0.56263868817E+02  0.00000000000E+00 0. -1.
         -3   -1    0    0    0  501 -0.00000000000E+00 -0.00000000000E+00 -0.25497189387E+02  0.25497189387E+02  0.00000000000E+00 0.  1.
         23    2    1    2    0    0  0.00000000000E+00  0.00000000000E+00  0.30766679430E+02  0.81761058204E+02  0.75751449329E+02 0.  0.
        -11    1    3    3    0    0 -0.17795372239E+01 -0.33665303179E+02  0.34017118792E+02  0.47892418625E+02  0.00000000000E+00 0. -1.
         11    1    3    3    0    0  0.17795372239E+01  0.33665303179E+02 -0.32504393626E+01  0.33868639579E+02  0.00000000000E+00 0.  1.
<mgrwt>
<rscale>  0 0.75751449E+02</rscale>
<asrwt>0</asrwt>
<pdfrwt beam="1">  1        3 0.86559798E-02 0.75751449E+02</pdfrwt>
<pdfrwt beam="2">  1       -3 0.39226445E-02 0.75751449E+02</pdfrwt>
<totfact> 0.59460350E+04</totfact>
</mgrwt>
</event>
<event>
 5    1  0.1239369E+001  0.8951012E+02  0.7546771E-02  0.1304042E+00
          1   -1    0    0  501    0  0.00000000000E+00  0.00000000000E+00  0.19304351940E+02  0.19304351940E+02  0.00000000000E+00 0. -1.
         -1   -1    0    0    0  501 -0.00000000000E+00 -0.00000000000E+00 -0.10375977897E+03  0.10375977897E+03  0.00000000000E+00 0.  1.
         23    2    1    2    0    0  0.00000000000E+00  0.00000000000E+00 -0.84455427026E+02  0.12306413091E+03  0.89510117649E+02 0.  0.
        -11    1    3    3    0    0  0.19237443556E+02 -0.40324811189E+02 -0.45824933289E+02  0.64000735487E+02  0.00000000000E+00 0.  1.
         11    1    3    3    0    0 -0.19237443556E+02  0.40324811189E+02 -0.38630493737E+02  0.59063395419E+02  0.00000000000E+00 0. -1.
<mgrwt>
<rscale>  0 0.89510118E+02</rscale>
<asrwt>0</asrwt>
<pdfrwt beam="1">  1        1 0.29699003E-02 0.89510118E+02</pdfrwt>
<pdfrwt beam="2">  1       -1 0.15963043E-01 0.89510118E+02</pdfrwt>
<totfact> 0.84739734E+04</totfact>
</mgrwt>
</event>
<event>
 5    1  0.1239369E+001  0.9010413E+02  0.7546771E-02  0.1302600E+00
         -2   -1    0    0    0  501 -0.00000000000E+00  0.00000000000E+00  0.15988582370E+03  0.15988582370E+03  0.00000000000E+00 0.  1.
          2   -1    0    0  501    0  0.00000000000E+00 -0.00000000000E+00 -0.12694613551E+02  0.12694613551E+02  0.00000000000E+00 0. -1.
         23    2    1    2    0    0  0.00000000000E+00  0.00000000000E+00  0.14719121015E+03  0.17258043725E+03  0.90104134072E+02 0.  0.
        -11    1    3    3    0    0 -0.16261819009E+02  0.42000929462E+02  0.71529241454E+02  0.84527848761E+02  0.00000000000E+00 0. -1.
         11    1    3    3    0    0  0.16261819009E+02 -0.42000929462E+02  0.75661968695E+02  0.88052588491E+02  0.00000000000E+00 0.  1.
<mgrwt>
<rscale>  0 0.90104134E+02</rscale>
<asrwt>0</asrwt>
<pdfrwt beam="2">  1        2 0.19530176E-02 0.90104134E+02</pdfrwt>
<pdfrwt beam="1">  1       -2 0.24597817E-01 0.90104134E+02</pdfrwt>
<totfact> 0.70300923E+04</totfact>
</mgrwt>
</event>
<event>
 5    1  0.1239369E+001  0.1073013E+03  0.7546771E-02  0.1265651E+00
          1   -1    0    0  501    0  0.00000000000E+00  0.00000000000E+00  0.27158385985E+03  0.27158385985E+03  0.00000000000E+00 0. -1.
         -1   -1    0    0    0  501 -0.00000000000E+00 -0.00000000000E+00 -0.10598537904E+02  0.10598537904E+02  0.00000000000E+00 0.  1.
         23    2    1    2    0    0  0.00000000000E+00  0.00000000000E+00  0.26098532194E+03  0.28218239775E+03  0.10730129231E+03 0.  0.
        -13    1    3    3    0    0 -0.37636315983E+02 -0.12832100955E+02  0.22521111183E+03  0.22869455610E+03  0.00000000000E+00 0.  1.
         13    1    3    3    0    0  0.37636315983E+02  0.12832100955E+02  0.35774210108E+02  0.53487841651E+02  0.00000000000E+00 0. -1.
<mgrwt>
<rscale>  0 0.10730129E+03</rscale>
<asrwt>0</asrwt>
<pdfrwt beam="1">  1        1 0.41782127E-01 0.10730129E+03</pdfrwt>
<pdfrwt beam="2">  1       -1 0.16305445E-02 0.10730129E+03</pdfrwt>
<totfact> 0.81077533E+04</totfact>
</mgrwt>
</event>
<event>
 5    1  0.1239369E+001  0.9049701E+02  0.7546771E-02  0.1301653E+00
         -1   -1    0    0    0  501 -0.00000000000E+00  0.00000000000E+00  0.82814927612E+02  0.82814927612E+02  0.00000000000E+00 0.  1.
          1   -1    0    0  501    0  0.00000000000E+00 -0.00000000000E+00 -0.24722925459E+02  0.24722925459E+02  0.00000000000E+00 0. -1.
         23    2    1    2    0    0  0.00000000000E+00  0.00000000000E+00  0.58092002153E+02  0.10753785307E+03  0.90497011712E+02 0.  0.
        -11    1    3    3    0    0 -0.15443780352E+02  0.48801760059E+01  0.79252333466E+02  0.80890412468E+02  0.00000000000E+00 0.  1.
         11    1    3    3    0    0  0.15443780352E+02 -0.48801760059E+01 -0.21160331313E+02  0.26647440603E+02  0.00000000000E+00 0. -1.
<mgrwt>
<rscale>  0 0.90497012E+02</rscale>
<asrwt>0</asrwt>
<pdfrwt beam="2">  1        1 0.38035270E-02 0.90497012E+02</pdfrwt>
<pdfrwt beam="1">  1       -1 0.12740758E-01 0.90497012E+02</pdfrwt>
<totfact> 0.85782168E+04</totfact>
</mgrwt>
</event>
<event>
 5    1  0.1239369E+001  0.8479520E+02  0.7546771E-02  0.1315969E+00
         -1   -1    0    0    0  501 -0.00000000000E+00  0.00000000000E+00  0.31169009793E+02  0.31169009793E+02  0.00000000000E+00 0.  1.
          1   -1    0    0  501    0  0.00000000000E+00 -0.00000000000E+00 -0.57671273824E+02  0.57671273824E+02  0.00000000000E+00 0. -1.
         23    2    1    2    0    0  0.00000000000E+00  0.00000000000E+00 -0.26502264030E+02  0.88840283617E+02  0.84795200303E+02 0.  0.
        -13    1    3    3    0    0 -0.34992969178E+02 -0.19160002665E+02 -0.28286431487E+02  0.48905375986E+02  0.00000000000E+00 0. -1.
         13    1    3    3    0    0  0.34992969178E+02  0.19160002665E+02  0.17841674572E+01  0.39934907631E+02  0.00000000000E+00 0.  1.
<mgrwt>
<rscale>  0 0.84795200E+02</rscale>
<asrwt>0</asrwt>
<pdfrwt beam="2">  1        1 0.88725037E-02 0.84795200E+02</pdfrwt>
<pdfrwt beam="1">  1       -1 0.47952323E-02 0.84795200E+02</pdfrwt>
<totfact> 0.11704581E+05</totfact>
</mgrwt>
</event>
<event>
 5    1  0.1239369E+001  0.8279164E+02  0.7546771E-02  0.1321311E+00
          2   -1    0    0  501    0  0.00000000000E+00  0.00000000000E+00  0.23428197920E+02  0.23428197920E+02  0.00000000000E+00 0.  1.
         -2   -1    0    0    0  501 -0.00000000000E+00 -0.00000000000E+00 -0.73143218971E+02  0.73143218971E+02  0.00000000000E+00 0. -1.
         23    2    1    2    0    0  0.00000000000E+00  0.00000000000E+00 -0.49715021051E+02  0.96571416890E+02  0.82791637513E+02 0.  0.
        -13    1    3    3    0    0 -0.28742173681E+02  0.15540530977E+02  0.47891711711E+01  0.33023579628E+02  0.00000000000E+00 0.  1.
         13    1    3    3    0    0  0.28742173681E+02 -0.15540530977E+02 -0.54504192222E+02  0.63547837262E+02  0.00000000000E+00 0. -1.
<mgrwt>
<rscale>  0 0.82791638E+02</rscale>
<asrwt>0</asrwt>
<pdfrwt beam="1">  1        2 0.36043382E-02 0.82791638E+02</pdfrwt>
<pdfrwt beam="2">  1       -2 0.11252803E-01 0.82791638E+02</pdfrwt>
<totfact> 0.11039068E+05</totfact>
</mgrwt>
</event>
<event>
 5    1  0.1239369E+001  0.9210980E+02  0.7546771E-02  0.1297821E+00
          1   -1    0    0  501    0  0.00000000000E+00  0.00000000000E+00  0.16194046540E+03  0.16194046540E+03  0.00000000000E+00 0. -1.
         -1   -1    0    0    0  501 -0.00000000000E+00 -0.00000000000E+00 -0.13097738649E+02  0.13097738649E+02  0.00000000000E+00 0.  1.
         23    2    1    2    0    0  0.00000000000E+00  0.00000000000E+00  0.14884272675E+03  0.17503820405E+03  0.92109801704E+02 0.  0.
        -11    1    3    3    0    0 -0.35849264827E+02 -0.11210855397E+02  0.23778577588E+02  0.44455301365E+02  0.00000000000E+00 0.  1.
         11    1    3    3    0    0  0.35849264827E+02  0.11210855397E+02  0.12506414916E+03  0.13058290268E+03  0.00000000000E+00 0. -1.
<mgrwt>
<rscale>  0 0.92109802E+02</rscale>
<asrwt>0</asrwt>
<pdfrwt beam="1">  1        1 0.24913916E-01 0.92109802E+02</pdfrwt>
<pdfrwt beam="2">  1       -1 0.20150368E-02 0.92109802E+02</pdfrwt>
<totfact> 0.11065523E+05</totfact>
</mgrwt>
</event>
<event>
 5    1  0.1239369E+001  0.9496926E+02  0.7546771E-02  0.1291245E+00
         -1   -1    0    0    0  501 -0.00000000000E+00  0.00000000000E+00  0.59586484892E+02  0.59586484892E+02  0.00000000000E+00 0.  1.
          1   -1    0    0  501    0  0.00000000000E+00 -0.00000000000E+00 -0.37840629535E+02  0.37840629535E+02  0.00000000000E+00 0. -1.
         23    2    1    2    0    0  0.00000000000E+00  0.00000000000E+00  0.21745855357E+02  0.97427114427E+02  0.94969260291E+02 0.  0.
        -11    1    3    3    0    0 -0.14908493195E+02 -0.43276000658E+02  0.23837829326E+02  0.51607339685E+02  0.00000000000E+00 0.  1.
         11    1    3    3    0    0  0.14908493195E+02  0.43276000658E+02 -0.20919739687E+01  0.45819774742E+02  0.00000000000E+00 0. -1.
<mgrwt>
<rscale>  0 0.94969260E+02</rscale>
<asrwt>0</asrwt>
<pdfrwt beam="2">  1        1 0.58216353E-02 0.94969260E+02</pdfrwt>
<pdfrwt beam="1">  1       -1 0.91671515E-02 0.94969260E+02</pdfrwt>
<totfact> 0.80055542E+04</totfact>
</mgrwt>
</event>
<event>
 5    1  0.1239369E+001  0.1040114E+03  0.7546771E-02  0.1272080E+00
         -1   -1    0    0    0  501 -0.00000000000E+00  0.00000000000E+00  0.10141135826E+03  0.10141135826E+03  0.00000000000E+00 0.  1.
          1   -1    0    0  501    0  0.00000000000E+00 -0.00000000000E+00 -0.26669516834E+02  0.26669516834E+02  0.00000000000E+00 0. -1.
         23    2    1    2    0    0  0.00000000000E+00  0.00000000000E+00  0.74741841424E+02  0.12808087509E+03  0.10401138257E+03 0.  0.
        -13    1    3    3    0    0  0.46048399911E+02 -0.39692368852E+01  0.66728723981E+02  0.81172240205E+02  0.00000000000E+00 0.  1.
         13    1    3    3    0    0 -0.46048399911E+02  0.39692368852E+01  0.80131174429E+01  0.46908634887E+02  0.00000000000E+00 0. -1.
<mgrwt>
<rscale>  0 0.10401138E+03</rscale>
<asrwt>0</asrwt>
<pdfrwt beam="2">  1        1 0.41030027E-02 0.10401138E+03</pdfrwt>
<pdfrwt beam="1">  1       -1 0.15601747E-01 0.10401138E+03</pdfrwt>
<totfact> 0.57762856E+04</totfact>
</mgrwt>
</event>
<event>
 5    1  0.1239369E+001  0.1003292E+03  0.7546771E-02  0.1279605E+00
         -2   -1    0    0    0  501 -0.00000000000E+00  0.00000000000E+00  0.70384655459E+02  0.70384655459E+02  0.00000000000E+00 0.  1.
          2   -1    0    0  501    0  0.00000000000E+00 -0.00000000000E+00 -0.35753337853E+02  0.35753337853E+02  0.00000000000E+00 0. -1.
         23    2    1    2    0    0  0.00000000000E+00  0.00000000000E+00  0.34631317607E+02  0.10613799331E+03  0.10032918551E+03 0.  0.
        -13    1    3    3    0    0  0.22877749558E+02 -0.36501588887E+02 -0.98772241824E+01  0.44196345705E+02  0.00000000000E+00 0. -1.
         13    1    3    3    0    0 -0.22877749558E+02  0.36501588887E+02  0.44508541789E+02  0.61941647607E+02  0.00000000000E+00 0.  1.
<mgrwt>
<rscale>  0 0.10032919E+03</rscale>
<asrwt>0</asrwt>
<pdfrwt beam="2">  1        2 0.55005135E-02 0.10032919E+03</pdfrwt>
<pdfrwt beam="1">  1       -2 0.10828408E-01 0.10032919E+03</pdfrwt>
<totfact> 0.69816386E+04</totfact>
</mgrwt>
</event>
<event>
 5    1  0.1239369E+001  0.9021523E+02  0.7546771E-02  0.1302331E+00
          3   -1    0    0  501    0  0.00000000000E+00  0.00000000000E+00  0.73472569563E+02  0.73472569563E+02  0.00000000000E+00 0. -1.
         -3   -1    0    0    0  501 -0.00000000000E+00 -0.00000000000E+00 -0.27693285864E+02  0.27693285864E+02  0.00000000000E+00 0.  1.
         23    2    1    2    0    0  0.00000000000E+00  0.00000000000E+00  0.45779283699E+02  0.10116585543E+03  0.90215228695E+02 0.  0.
        -13    1    3    3    0    0  0.87737577672E+01 -0.98719207742E+01  0.71255768006E+02  0.72469428860E+02  0.00000000000E+00 0. -1.
         13    1    3    3    0    0 -0.87737577672E+01  0.98719207742E+01 -0.25476484307E+02  0.28696426568E+02  0.00000000000E+00 0.  1.
<mgrwt>
<rscale>  0 0.90215229E+02</rscale>
<asrwt>0</asrwt>
<pdfrwt beam="1">  1        3 0.11303472E-01 0.90215229E+02</pdfrwt>
<pdfrwt beam="2">  1       -3 0.42605055E-02 0.90215229E+02</pdfrwt>
<totfact> 0.35595516E+04</totfact>
</mgrwt>
</event>
<event>
 5    1  0.1239369E+001  0.9322135E+02  0.7546771E-02  0.1295233E+00
          1   -1    0    0  501    0  0.00000000000E+00  0.00000000000E+00  0.43040977544E+01  0.43040977544E+01  0.00000000000E+00 0. -1.
         -1   -1    0    0    0  501 -0.00000000000E+00 -0.00000000000E+00 -0.50476430881E+03  0.50476430881E+03  0.00000000000E+00 0.  1.
         23    2    1    2    0    0  0.00000000000E+00  0.00000000000E+00 -0.50046021105E+03  0.50906840656E+03  0.93221347942E+02 0.  0.
        -13    1    3    3    0    0  0.36384172783E+02 -0.29022295952E+02 -0.26410244032E+03  0.26817196101E+03  0.00000000000E+00 0.  1.
         13    1    3    3    0    0 -0.36384172783E+02  0.29022295952E+02 -0.23635777073E+03  0.24089644555E+03  0.00000000000E+00 0. -1.
<mgrwt>
<rscale>  0 0.93221348E+02</rscale>
<asrwt>0</asrwt>
<pdfrwt beam="1">  1        1 0.66216891E-03 0.93221348E+02</pdfrwt>
<pdfrwt beam="2">  1       -1 0.77656044E-01 0.93221348E+02</pdfrwt>
<totfact> 0.44120985E+04</totfact>
</mgrwt>
</event>
<event>
 5    1  0.1239369E+001  0.9265256E+02  0.7546771E-02  0.1296552E+00
          1   -1    0    0  501    0  0.00000000000E+00  0.00000000000E+00  0.80075516352E+02  0.80075516352E+02  0.00000000000E+00 0. -1.
         -1   -1    0    0    0  501 -0.00000000000E+00 -0.00000000000E+00 -0.26801254602E+02  0.26801254602E+02  0.00000000000E+00 0.  1.
         23    2    1    2    0    0  0.00000000000E+00  0.00000000000E+00  0.53274261750E+02  0.10687677095E+03  0.92652561782E+02 0.  0.
        -13    1    3    3    0    0 -0.13931393500E+02 -0.92240573020E+01  0.76478858772E+02  0.78282710716E+02  0.00000000000E+00 0. -1.
         13    1    3    3    0    0  0.13931393500E+02  0.92240573020E+01 -0.23204597022E+02  0.28594060239E+02  0.00000000000E+00 0.  1.
<mgrwt>
<rscale>  0 0.92652562E+02</rscale>
<asrwt>0</asrwt>
<pdfrwt beam="1">  1        1 0.12319310E-01 0.92652562E+02</pdfrwt>
<pdfrwt beam="2">  1       -1 0.41232700E-02 0.92652562E+02</pdfrwt>
<totfact> 0.96406626E+04</totfact>
</mgrwt>
</event>
<event>
 5    1  0.1239369E+001  0.9108877E+02  0.7546771E-02  0.1300236E+00
         -1   -1    0    0    0  501 -0.00000000000E+00  0.00000000000E+00  0.46358910904E+02  0.46358910904E+02  0.00000000000E+00 0.  1.
          1   -1    0    0  501    0  0.00000000000E+00 -0.00000000000E+00 -0.44744165835E+02  0.44744165835E+02  0.00000000000E+00 0. -1.
         23    2    1    2    0    0  0.00000000000E+00  0.00000000000E+00  0.16147450685E+01  0.91103076739E+02  0.91088765442E+02 0.  0.
        -11    1    3    3    0    0  0.20082857325E+02 -0.17999963106E+02  0.37514241862E+02  0.46202144676E+02  0.00000000000E+00 0.  1.
         11    1    3    3    0    0 -0.20082857325E+02  0.17999963106E+02 -0.35899496793E+02  0.44900932063E+02  0.00000000000E+00 0. -1.
<mgrwt>
<rscale>  0 0.91088765E+02</rscale>
<asrwt>0</asrwt>
<pdfrwt beam="2">  1        1 0.68837178E-02 0.91088765E+02</pdfrwt>
<pdfrwt beam="1">  1       -1 0.71321401E-02 0.91088765E+02</pdfrwt>
<totfact> 0.92463574E+04</totfact>
</mgrwt>
</event>
<event>
 5    1  0.1239369E+001  0.9213092E+02  0.7546771E-02  0.1297772E+00
          2   -1    0    0  501    0  0.00000000000E+00  0.00000000000E+00  0.17842670426E+02  0.17842670426E+02  0.00000000000E+00 0. -1.
         -2   -1    0    0    0  501 -0.00000000000E+00 -0.00000000000E+00 -0.11892987235E+03  0.11892987235E+03  0.00000000000E+00 0.  1.
         23    2    1    2    0    0  0.00000000000E+00  0.00000000000E+00 -0.10108720192E+03  0.13677254278E+03  0.92130918071E+02 0.  0.
        -11    1    3    3    0    0  0.42364653434E+02 -0.12035270150E+02 -0.70594031855E+02  0.83205341906E+02  0.00000000000E+00 0.  1.
         11    1    3    3    0    0 -0.42364653434E+02  0.12035270150E+02 -0.30493170070E+02  0.53567200870E+02  0.00000000000E+00 0. -1.
<mgrwt>
<rscale>  0 0.92130918E+02</rscale>
<asrwt>0</asrwt>
<pdfrwt beam="1">  1        2 0.27450263E-02 0.92130918E+02</pdfrwt>
<pdfrwt beam="2">  1       -2 0.18296903E-01 0.92130918E+02</pdfrwt>
<totfact> 0.73683634E+04</totfact>
</mgrwt>
</event>
<event>
 5    1  0.1239369E+001  0.8601418E+02  0.7546771E-02  0.1312801E+00
         -3   -1    0    0    0  501 -0.00000000000E+00  0.00000000000E+00  0.15586696175E+03  0.15586696175E+03  0.00000000000E+00 0.  1.
          3   -1    0    0  501    0  0.00000000000E+00 -0.00000000000E+00 -0.11866593994E+02  0.11866593994E+02  0.00000000000E+00 0. -1.
         23    2    1    2    0    0  0.00000000000E+00  0.00000000000E+00  0.14400036776E+03  0.16773355575E+03  0.86014183764E+02 0.  0.
        -13    1    3    3    0    0  0.39592132641E+02 -0.16641636348E+02  0.67583838365E+02  0.80075316019E+02  0.00000000000E+00 0.  1.
         13    1    3    3    0    0 -0.39592132641E+02  0.16641636348E+02  0.76416529395E+02  0.87658239728E+02  0.00000000000E+00 0. -1.
<mgrwt>
<rscale>  0 0.86014184E+02</rscale>
<asrwt>0</asrwt>
<pdfrwt beam="2">  1        3 0.18256300E-02 0.86014184E+02</pdfrwt>
<pdfrwt beam="1">  1       -3 0.23979531E-01 0.86014184E+02</pdfrwt>
<totfact> 0.35395224E+04</totfact>
</mgrwt>
</event>
<event>
 5    1  0.1239369E+001  0.9230964E+02  0.7546771E-02  0.1297353E+00
          1   -1    0    0  501    0  0.00000000000E+00  0.00000000000E+00  0.16302177635E+03  0.16302177635E+03  0.00000000000E+00 0. -1.
         -1   -1    0    0    0  501 -0.00000000000E+00 -0.00000000000E+00 -0.13067378701E+02  0.13067378701E+02  0.00000000000E+00 0.  1.
         23    2    1    2    0    0  0.00000000000E+00  0.00000000000E+00  0.14995439765E+03  0.17608915505E+03  0.92309637373E+02 0.  0.
        -13    1    3    3    0    0 -0.22774670252E+02  0.25557245685E+02  0.13403278413E+03  0.13833526532E+03  0.00000000000E+00 0. -1.
         13    1    3    3    0    0  0.22774670252E+02 -0.25557245685E+02  0.15921613520E+02  0.37753889722E+02  0.00000000000E+00 0.  1.
<mgrwt>
<rscale>  0 0.92309637E+02</rscale>
<asrwt>0</asrwt>
<pdfrwt beam="1">  1        1 0.25080272E-01 0.92309637E+02</pdfrwt>
<pdfrwt beam="2">  1       -1 0.20103661E-02 0.92309637E+02</pdfrwt>
<totfact> 0.11014731E+05</totfact>
</mgrwt>
</event>
<event>
 5    1  0.1239369E+001  0.9400794E+02  0.7546771E-02  0.1293426E+00
         -3   -1    0    0    0  501 -0.00000000000E+00  0.00000000000E+00  0.33816875751E+02  0.33816875751E+02  0.00000000000E+00 0.  1.
          3   -1    0    0  501    0  0.00000000000E+00 -0.00000000000E+00 -0.65333448909E+02  0.65333448909E+02  0.00000000000E+00 0. -1.
         23    2    1    2    0    0  0.00000000000E+00  0.00000000000E+00 -0.31516573158E+02  0.99150324660E+02  0.94007938476E+02 0.  0.
        -13    1    3    3    0    0  0.10305596745E+02  0.84328285853E+01  0.31785893521E+02  0.34462457097E+02  0.00000000000E+00 0.  1.
         13    1    3    3    0    0 -0.10305596745E+02 -0.84328285853E+01 -0.63302466679E+02  0.64687867564E+02  0.00000000000E+00 0. -1.
<mgrwt>
<rscale>  0 0.94007938E+02</rscale>
<asrwt>0</asrwt>
<pdfrwt beam="2">  1        3 0.10051300E-01 0.94007938E+02</pdfrwt>
<pdfrwt beam="1">  1       -3 0.52025963E-02 0.94007938E+02</pdfrwt>
<totfact> 0.31951263E+04</totfact>
</mgrwt>
</event>
<event>
 5    1  0.1239369E+001  0.9155482E+02  0.7546771E-02  0.1299130E+00
         -1   -1    0    0    0  501 -0.00000000000E+00  0.00000000000E+00  0.16569429692E+02  0.16569429692E+02  0.00000000000E+00 0.  1.
          1   -1    0    0  501    0  0.00000000000E+00 -0.00000000000E+00 -0.12647212836E+03  0.12647212836E+03  0.00000000000E+00 0. -1.
         23    2    1    2    0    0  0.00000000000E+00  0.00000000000E+00 -0.10990269867E+03  0.14304155805E+03  0.91554815031E+02 0.  0.
        -11    1    3    3    0    0  0.31765496871E+02  0.71253448130E+01 -0.10523297273E+03  0.11015351052E+03  0.00000000000E+00 0. -1.
         11    1    3    3    0    0 -0.31765496871E+02 -0.71253448130E+01 -0.46697259376E+01  0.32888047532E+02  0.00000000000E+00 0.  1.
<mgrwt>
<rscale>  0 0.91554815E+02</rscale>
<asrwt>0</asrwt>
<pdfrwt beam="2">  1        1 0.19457251E-01 0.91554815E+02</pdfrwt>
<pdfrwt beam="1">  1       -1 0.25491430E-02 0.91554815E+02</pdfrwt>
<totfact> 0.10752258E+05</totfact>
</mgrwt>
</event>
<event>
 5    1  0.1239369E+001  0.9159824E+02  0.7546771E-02  0.1299027E+00
         -4   -1    0    0    0  501 -0.00000000000E+00  0.00000000000E+00  0.61313485540E+02  0.61313485540E+02  0.00000000000E+00 0.  1.
          4   -1    0    0  501    0  0.00000000000E+00 -0.00000000000E+00 -0.34210411223E+02  0.34210411223E+02  0.00000000000E+00 0. -1.
         23    2    1    2    0    0  0.00000000000E+00  0.00000000000E+00  0.27103074318E+02  0.95523896763E+02  0.91598243516E+02 0.  0.
        -13    1    3    3    0    0 -0.19304681142E+02  0.28258464552E+02 -0.18188832024E+02  0.38756227154E+02  0.00000000000E+00 0. -1.
         13    1    3    3    0    0  0.19304681142E+02 -0.28258464552E+02  0.45291906341E+02  0.56767669609E+02  0.00000000000E+00 0.  1.
<mgrwt>
<rscale>  0 0.91598244E+02</rscale>
<asrwt>0</asrwt>
<pdfrwt beam="2">  1        4 0.52631402E-02 0.91598244E+02</pdfrwt>
<pdfrwt beam="1">  1       -4 0.94328439E-02 0.91598244E+02</pdfrwt>
<totfact> 0.26405480E+04</totfact>
</mgrwt>
</event>
<event>
 5    1  0.1239369E+001  0.9412707E+02  0.7546771E-02  0.1293154E+00
         -1   -1    0    0    0  501 -0.00000000000E+00  0.00000000000E+00  0.74966683456E+01  0.74966683456E+01  0.00000000000E+00 0.  1.
          1   -1    0    0  501    0  0.00000000000E+00 -0.00000000000E+00 -0.29546141091E+03  0.29546141091E+03  0.00000000000E+00 0. -1.
         23    2    1    2    0    0  0.00000000000E+00  0.00000000000E+00 -0.28796474256E+03  0.30295807926E+03  0.94127067446E+02 0.  0.
        -13    1    3    3    0    0 -0.38270782737E+02 -0.23427321272E+02 -0.98295827279E+02  0.10805351384E+03  0.00000000000E+00 0.  1.
         13    1    3    3    0    0  0.38270782737E+02  0.23427321272E+02 -0.18966891529E+03  0.19490456541E+03  0.00000000000E+00 0. -1.
<mgrwt>
<rscale>  0 0.94127067E+02</rscale>
<asrwt>0</asrwt>
<pdfrwt beam="2">  1        1 0.45455601E-01 0.94127067E+02</pdfrwt>
<pdfrwt beam="1">  1       -1 0.11533336E-02 0.94127067E+02</pdfrwt>
<totfact> 0.11733248E+05</totfact>
</mgrwt>
</event>
<event>
 5    1  0.1239369E+001  0.9158660E+02  0.7546771E-02  0.1299054E+00
         -2   -1    0    0    0  501 -0.00000000000E+00  0.00000000000E+00  0.46484012252E+02  0.46484012252E+02  0.00000000000E+00 0.  1.
          2   -1    0    0  501    0  0.00000000000E+00 -0.00000000000E+00 -0.45112853197E+02  0.45112853197E+02  0.00000000000E+00 0. -1.
         23    2    1    2    0    0  0.00000000000E+00  0.00000000000E+00  0.13711590554E+01  0.91596865449E+02  0.91586602093E+02 0.  0.
        -11    1    3    3    0    0  0.25225201242E+02 -0.27510204402E+02 -0.25848588391E+02  0.45401229562E+02  0.00000000000E+00 0. -1.
         11    1    3    3    0    0 -0.25225201242E+02  0.27510204402E+02  0.27219747447E+02  0.46195635887E+02  0.00000000000E+00 0.  1.
<mgrwt>
<rscale>  0 0.91586602E+02</rscale>
<asrwt>0</asrwt>
<pdfrwt beam="2">  1        2 0.69404390E-02 0.91586602E+02</pdfrwt>
<pdfrwt beam="1">  1       -2 0.71513865E-02 0.91586602E+02</pdfrwt>
<totfact> 0.97145564E+04</totfact>
</mgrwt>
</event>
<event>
 5    1  0.1239369E+001  0.9078561E+02  0.7546771E-02  0.1300960E+00
         -2   -1    0    0    0  501 -0.00000000000E+00  0.00000000000E+00  0.98937044476E+01  0.98937044476E+01  0.00000000000E+00 0.  1.
          2   -1    0    0  501    0  0.00000000000E+00 -0.00000000000E+00 -0.20826442456E+03  0.20826442456E+03  0.00000000000E+00 0. -1.
         23    2    1    2    0    0  0.00000000000E+00  0.00000000000E+00 -0.19837072011E+03  0.21815812900E+03  0.90785608188E+02 0.  0.
        -13    1    3    3    0    0 -0.29639856009E+02  0.52418987360E+01 -0.18083473878E+03  0.18332266995E+03  0.00000000000E+00 0. -1.
         13    1    3    3    0    0  0.29639856009E+02 -0.52418987360E+01 -0.17535981328E+02  0.34835459057E+02  0.00000000000E+00 0.  1.
<mgrwt>
<rscale>  0 0.90785608E+02</rscale>
<asrwt>0</asrwt>
<pdfrwt beam="2">  1        2 0.32040681E-01 0.90785608E+02</pdfrwt>
<pdfrwt beam="1">  1       -2 0.15221084E-02 0.90785608E+02</pdfrwt>
<totfact> 0.15879312E+05</totfact>
</mgrwt>
</event>
<event>
 5    1  0.1239369E+001  0.9040070E+02  0.7546771E-02  0.1301884E+00
         -1   -1    0    0    0  501 -0.00000000000E+00  0.00000000000E+00  0.39930894094E+02  0.39930894094E+02  0.00000000000E+00 0.  1.
          1   -1    0    0  501    0  0.00000000000E+00 -0.00000000000E+00 -0.51165191939E+02  0.51165191939E+02  0.00000000000E+00 0. -1.
         23    2    1    2    0    0  0.00000000000E+00  0.00000000000E+00 -0.11234297845E+02  0.91096086032E+02  0.90400704877E+02 0.  0.
        -13    1    3    3    0    0 -0.19528494123E+02 -0.75847434450E+01  0.34743175204E+02  0.40570662295E+02  0.00000000000E+00 0.  1.
         13    1    3    3    0    0  0.19528494123E+02  0.75847434450E+01 -0.45977473049E+02  0.50525423737E+02  0.00000000000E+00 0. -1.
<mgrwt>
<rscale>  0 0.90400705E+02</rscale>
<asrwt>0</asrwt>
<pdfrwt beam="2">  1        1 0.78715680E-02 0.90400705E+02</pdfrwt>
<pdfrwt beam="1">  1       -1 0.61432145E-02 0.90400705E+02</pdfrwt>
<totfact> 0.96358736E+04</totfact>
</mgrwt>
</event>
<event>
 5    1  0.1239369E+001  0.9395654E+02  0.7546771E-02  0.1293544E+00
          1   -1    0    0  501    0  0.00000000000E+00  0.00000000000E+00  0.19667102249E+02  0.19667102249E+02  0.00000000000E+00 0. -1.
         -1   -1    0    0    0  501 -0.00000000000E+00 -0.00000000000E+00 -0.11221571147E+03  0.11221571147E+03  0.00000000000E+00 0.  1.
         23    2    1    2    0    0  0.00000000000E+00  0.00000000000E+00 -0.92548609222E+02  0.13188281372E+03  0.93956540409E+02 0.  0.
        -13    1    3    3    0    0 -0.45256365334E+02  0.40411388020E+01 -0.63029559603E+02  0.77699387319E+02  0.00000000000E+00 0. -1.
         13    1    3    3    0    0  0.45256365334E+02 -0.40411388020E+01 -0.29519049619E+02  0.54183426400E+02  0.00000000000E+00 0.  1.
<mgrwt>
<rscale>  0 0.93956540E+02</rscale>
<asrwt>0</asrwt>
<pdfrwt beam="1">  1        1 0.30257081E-02 0.93956540E+02</pdfrwt>
<pdfrwt beam="2">  1       -1 0.17263955E-01 0.93956540E+02</pdfrwt>
<totfact> 0.73648857E+04</totfact>
</mgrwt>
</event>
<event>
 5    1  0.1239369E+001  0.9013254E+02  0.7546771E-02  0.1302531E+00
          2   -1    0    0  501    0  0.00000000000E+00  0.00000000000E+00  0.78504589681E+02  0.78504589681E+02  0.00000000000E+00 0. -1.
         -2   -1    0    0    0  501 -0.00000000000E+00 -0.00000000000E+00 -0.25870698904E+02  0.25870698904E+02  0.00000000000E+00 0.  1.
         23    2    1    2    0    0  0.00000000000E+00  0.00000000000E+00  0.52633890777E+02  0.10437528859E+03  0.90132538015E+02 0.  0.
        -11    1    3    3    0    0  0.24249965797E+02 -0.18921218315E+02  0.64459519122E+02  0.71422006056E+02  0.00000000000E+00 0.  1.
         11    1    3    3    0    0 -0.24249965797E+02  0.18921218315E+02 -0.11825628345E+02  0.32953282529E+02  0.00000000000E+00 0. -1.
<mgrwt>
<rscale>  0 0.90132538E+02</rscale>
<asrwt>0</asrwt>
<pdfrwt beam="1">  1        2 0.12077629E-01 0.90132538E+02</pdfrwt>
<pdfrwt beam="2">  1       -2 0.39801075E-02 0.90132538E+02</pdfrwt>
<totfact> 0.11795275E+05</totfact>
</mgrwt>
</event>
<event>
 5    1  0.1239369E+001  0.9576327E+02  0.7546771E-02  0.1289466E+00
          1   -1    0    0  501    0  0.00000000000E+00  0.00000000000E+00  0.17762975917E+03  0.17762975917E+03  0.00000000000E+00 0. -1.
         -1   -1    0    0    0  501 -0.00000000000E+00 -0.00000000000E+00 -0.12906908073E+02  0.12906908073E+02  0.00000000000E+00 0.  1.
         23    2    1    2    0    0  0.00000000000E+00  0.00000000000E+00  0.16472285110E+03  0.19053666725E+03  0.95763270050E+02 0.  0.
        -13    1    3    3    0    0 -0.22666847921E+02  0.25210371065E+02  0.15085433499E+02  0.37106860656E+02  0.00000000000E+00 0.  1.
         13    1    3    3    0    0  0.22666847921E+02 -0.25210371065E+02  0.14963741760E+03  0.15342980659E+03  0.00000000000E+00 0. -1.
<mgrwt>
<rscale>  0 0.95763270E+02</rscale>
<asrwt>0</asrwt>
<pdfrwt beam="1">  1        1 0.27327654E-01 0.95763270E+02</pdfrwt>
<pdfrwt beam="2">  1       -1 0.19856783E-02 0.95763270E+02</pdfrwt>
<totfact> 0.10138329E+05</totfact>
</mgrwt>
</event>
<event>
 5    1  0.1239369E+001  0.9107192E+02  0.7546771E-02  0.1300276E+00
          1   -1    0    0  501    0  0.00000000000E+00  0.00000000000E+00  0.20107158247E+03  0.20107158247E+03  0.00000000000E+00 0. -1.
         -1   -1    0    0    0  501 -0.00000000000E+00 -0.00000000000E+00 -0.10312365489E+02  0.10312365489E+02  0.00000000000E+00 0.  1.
         23    2    1    2    0    0  0.00000000000E+00  0.00000000000E+00  0.19075921698E+03  0.21138394796E+03  0.91071919884E+02 0.  0.
        -11    1    3    3    0    0  0.40448001861E+02 -0.20884659859E+02  0.98040015959E+02  0.10809280550E+03  0.00000000000E+00 0. -1.
         11    1    3    3    0    0 -0.40448001861E+02  0.20884659859E+02  0.92719201024E+02  0.10329114246E+03  0.00000000000E+00 0.  1.
<mgrwt>
<rscale>  0 0.91071920E+02</rscale>
<asrwt>0</asrwt>
<pdfrwt beam="1">  1        1 0.30934087E-01 0.91071920E+02</pdfrwt>
<pdfrwt beam="2">  1       -1 0.15865179E-02 0.91071920E+02</pdfrwt>
<totfact> 0.11889562E+05</totfact>
</mgrwt>
</event>
<event>
 5    1  0.1239369E+001  0.9223249E+02  0.7546771E-02  0.1297534E+00
         -1   -1    0    0    0  501 -0.00000000000E+00  0.00000000000E+00  0.23020405381E+02  0.23020405381E+02  0.00000000000E+00 0.  1.
          1   -1    0    0  501    0  0.00000000000E+00 -0.00000000000E+00 -0.92383609586E+02  0.92383609586E+02  0.00000000000E+00 0. -1.
         23    2    1    2    0    0  0.00000000000E+00  0.00000000000E+00 -0.69363204205E+02  0.11540401497E+03  0.92232491958E+02 0.  0.
        -11    1    3    3    0    0 -0.30212288920E+02 -0.26554428826E+02 -0.64584557749E+01  0.40738578069E+02  0.00000000000E+00 0.  1.
         11    1    3    3    0    0  0.30212288920E+02  0.26554428826E+02 -0.62904748430E+02  0.74665436898E+02  0.00000000000E+00 0. -1.
<mgrwt>
<rscale>  0 0.92232492E+02</rscale>
<asrwt>0</asrwt>
<pdfrwt beam="2">  1        1 0.14212863E-01 0.92232492E+02</pdfrwt>
<pdfrwt beam="1">  1       -1 0.35416009E-02 0.92232492E+02</pdfrwt>
<totfact> 0.99900061E+04</totfact>
</mgrwt>
</event>
<event>
 5    1  0.1239369E+001  0.9021394E+02  0.7546771E-02  0.1302334E+00
         -1   -1    0    0    0  501 -0.00000000000E+00  0.00000000000E+00  0.11129920622E+03  0.11129920622E+03  0.00000000000E+00 0.  1.
          1   -1    0    0  501    0  0.00000000000E+00 -0.00000000000E+00 -0.18280801248E+02  0.18280801248E+02  0.00000000000E+00 0. -1.
         23    2    1    2    0    0  0.00000000000E+00  0.00000000000E+00  0.93018404975E+02  0.12958000747E+03  0.90213938346E+02 0.  0.
        -13    1    3    3    0    0  0.79274599074E+01 -0.41607482702E+02  0.24228828026E+02  0.48796140676E+02  0.00000000000E+00 0. -1.
         13    1    3    3    0    0 -0.79274599074E+01  0.41607482702E+02  0.68789576948E+02  0.80783866793E+02  0.00000000000E+00 0.  1.
<mgrwt>
<rscale>  0 0.90213938E+02</rscale>
<asrwt>0</asrwt>
<pdfrwt beam="2">  1        1 0.28124310E-02 0.90213938E+02</pdfrwt>
<pdfrwt beam="1">  1       -1 0.17122954E-01 0.90213938E+02</pdfrwt>
<totfact> 0.81936807E+04</totfact>
</mgrwt>
</event>
<event>
 5    1  0.1239369E+001  0.9079204E+02  0.7546771E-02  0.1300945E+00
         -2   -1    0    0    0  501 -0.00000000000E+00  0.00000000000E+00  0.50460259951E+02  0.50460259951E+02  0.00000000000E+00 0. -1.
          2   -1    0    0  501    0  0.00000000000E+00 -0.00000000000E+00 -0.40840028588E+02  0.40840028588E+02  0.00000000000E+00 0.  1.
         23    2    1    2    0    0  0.00000000000E+00  0.00000000000E+00  0.96202313630E+01  0.91300288539E+02  0.90792036191E+02 0.  0.
        -13    1    3    3    0    0  0.18684267527E+02 -0.39130651729E+02  0.18319930739E+02  0.47073661638E+02  0.00000000000E+00 0. -1.
         13    1    3    3    0    0 -0.18684267527E+02  0.39130651729E+02 -0.86996993764E+01  0.44226626900E+02  0.00000000000E+00 0.  1.
<mgrwt>
<rscale>  0 0.90792036E+02</rscale>
<asrwt>0</asrwt>
<pdfrwt beam="2">  1        2 0.62830814E-02 0.90792036E+02</pdfrwt>
<pdfrwt beam="1">  1       -2 0.77631169E-02 0.90792036E+02</pdfrwt>
<totfact> 0.97082362E+04</totfact>
</mgrwt>
</event>
<event>
 5    1  0.1239369E+001  0.8906324E+02  0.7546771E-02  0.1305136E+00
         -2   -1    0    0    0  501 -0.00000000000E+00  0.00000000000E+00  0.43031931843E+02  0.43031931843E+02  0.00000000000E+00 0. -1.
          2   -1    0    0  501    0  0.00000000000E+00 -0.00000000000E+00 -0.46083573228E+02  0.46083573228E+02  0.00000000000E+00 0.  1.
         23    2    1    2    0    0  0.00000000000E+00  0.00000000000E+00 -0.30516413849E+01  0.89115505071E+02  0.89063240054E+02 0.  0.
        -11    1    3    3    0    0  0.21297310845E+00  0.43818173847E+02  0.64153009534E+01  0.44285819436E+02  0.00000000000E+00 0.  1.
         11    1    3    3    0    0 -0.21297310845E+00 -0.43818173847E+02 -0.94669423383E+01  0.44829685634E+02  0.00000000000E+00 0. -1.
<mgrwt>
<rscale>  0 0.89063240E+02</rscale>
<asrwt>0</asrwt>
<pdfrwt beam="2">  1        2 0.70897805E-02 0.89063240E+02</pdfrwt>
<pdfrwt beam="1">  1       -2 0.66202972E-02 0.89063240E+02</pdfrwt>
<totfact> 0.10581338E+05</totfact>
</mgrwt>
</event>
<event>
 5    1  0.1239369E+001  0.9069076E+02  0.7546771E-02  0.1301187E+00
         -3   -1    0    0    0  501 -0.00000000000E+00  0.00000000000E+00  0.70644230483E+02  0.70644230483E+02  0.00000000000E+00 0.  1.
          3   -1    0    0  501    0  0.00000000000E+00 -0.00000000000E+00 -0.29106463167E+02  0.29106463167E+02  0.00000000000E+00 0. -1.
         23    2    1    2    0    0  0.00000000000E+00  0.00000000000E+00  0.41537767315E+02  0.99750693650E+02  0.90690764525E+02 0.  0.
        -11    1    3    3    0    0  0.28914861050E+02 -0.15958595635E+02 -0.13406979576E+02  0.35643976567E+02  0.00000000000E+00 0. -1.
         11    1    3    3    0    0 -0.28914861050E+02  0.15958595635E+02  0.54944746891E+02  0.64106717083E+02  0.00000000000E+00 0.  1.
<mgrwt>
<rscale>  0 0.90690765E+02</rscale>
<asrwt>0</asrwt>
<pdfrwt beam="2">  1        3 0.44779174E-02 0.90690765E+02</pdfrwt>
<pdfrwt beam="1">  1       -3 0.10868343E-01 0.90690765E+02</pdfrwt>
<totfact> 0.35198786E+04</totfact>
</mgrwt>
</event>
<event>
 5    1  0.1239369E+001  0.1047329E+03  0.7546771E-02  0.1270647E+00
          2   -1    0    0  501    0  0.00000000000E+00  0.00000000000E+00  0.49558326490E+02  0.49558326490E+02  0.00000000000E+00 0. -1.
         -2   -1    0    0    0  501 -0.00000000000E+00 -0.00000000000E+00 -0.55333648375E+02  0.55333648375E+02  0.00000000000E+00 0.  1.
         23    2    1    2    0    0  0.00000000000E+00  0.00000000000E+00 -0.57753218851E+01  0.10489197487E+03  0.10473286040E+03 0.  0.
        -13    1    3    3    0    0  0.48652851458E+02 -0.18132049807E+02  0.39323708673E+01  0.52070478448E+02  0.00000000000E+00 0.  1.
         13    1    3    3    0    0 -0.48652851458E+02  0.18132049807E+02 -0.97076927524E+01  0.52821496417E+02  0.00000000000E+00 0. -1.
<mgrwt>
<rscale>  0 0.10473286E+03</rscale>
<asrwt>0</asrwt>
<pdfrwt beam="1">  1        2 0.76243580E-02 0.10473286E+03</pdfrwt>
<pdfrwt beam="2">  1       -2 0.85128689E-02 0.10473286E+03</pdfrwt>
<totfact> 0.67500153E+04</totfact>
</mgrwt>
</event>
<event>
 5    1  0.1239369E+001  0.9233842E+02  0.7546771E-02  0.1297286E+00
          3   -1    0    0  501    0  0.00000000000E+00  0.00000000000E+00  0.18700651852E+02  0.18700651852E+02  0.00000000000E+00 0. -1.
         -3   -1    0    0    0  501 -0.00000000000E+00 -0.00000000000E+00 -0.11398510281E+03  0.11398510281E+03  0.00000000000E+00 0.  1.
         23    2    1    2    0    0  0.00000000000E+00  0.00000000000E+00 -0.95284450960E+02  0.13268575466E+03  0.92338415062E+02 0.  0.
        -11    1    3    3    0    0  0.29447325916E+02 -0.16521390938E+02 -0.92888935630E+02  0.98835498302E+02  0.00000000000E+00 0.  1.
         11    1    3    3    0    0 -0.29447325916E+02  0.16521390938E+02 -0.23955153303E+01  0.33850256363E+02  0.00000000000E+00 0. -1.
<mgrwt>
<rscale>  0 0.92338415E+02</rscale>
<asrwt>0</asrwt>
<pdfrwt beam="1">  1        3 0.28770234E-02 0.92338415E+02</pdfrwt>
<pdfrwt beam="2">  1       -3 0.17536169E-01 0.92338415E+02</pdfrwt>
<totfact> 0.31305510E+04</totfact>
</mgrwt>
</event>
<event>
 5    1  0.1239369E+001  0.8918058E+02  0.7546771E-02  0.1304848E+00
         -1   -1    0    0    0  501 -0.00000000000E+00  0.00000000000E+00  0.34491887603E+02  0.34491887603E+02  0.00000000000E+00 0.  1.
          1   -1    0    0  501    0  0.00000000000E+00 -0.00000000000E+00 -0.57645263780E+02  0.57645263780E+02  0.00000000000E+00 0. -1.
         23    2    1    2    0    0  0.00000000000E+00  0.00000000000E+00 -0.23153376177E+02  0.92137151383E+02  0.89180579930E+02 0.  0.
        -13    1    3    3    0    0  0.31065941333E+02  0.29968677758E+02 -0.23131363065E+02  0.48972178986E+02  0.00000000000E+00 0. -1.
         13    1    3    3    0    0 -0.31065941333E+02 -0.29968677758E+02 -0.22013111990E-01  0.43164972397E+02  0.00000000000E+00 0.  1.
<mgrwt>
<rscale>  0 0.89180580E+02</rscale>
<asrwt>0</asrwt>
<pdfrwt beam="2">  1        1 0.88685022E-02 0.89180580E+02</pdfrwt>
<pdfrwt beam="1">  1       -1 0.53064442E-02 0.89180580E+02</pdfrwt>
<totfact> 0.10185068E+05</totfact>
</mgrwt>
</event>
<event>
 5    1  0.1239369E+001  0.9019513E+02  0.7546771E-02  0.1302380E+00
          1   -1    0    0  501    0  0.00000000000E+00  0.00000000000E+00  0.18216291424E+02  0.18216291424E+02  0.00000000000E+00 0. -1.
         -1   -1    0    0    0  501 -0.00000000000E+00 -0.00000000000E+00 -0.11164677961E+03  0.11164677961E+03  0.00000000000E+00 0.  1.
         23    2    1    2    0    0  0.00000000000E+00  0.00000000000E+00 -0.93430488186E+02  0.12986307104E+03  0.90195127895E+02 0.  0.
        -11    1    3    3    0    0 -0.60760801179E+01  0.30255961321E+02  0.63317436559E+00  0.30866532925E+02  0.00000000000E+00 0. -1.
         11    1    3    3    0    0  0.60760801179E+01 -0.30255961321E+02 -0.94063662552E+02  0.98996538110E+02  0.00000000000E+00 0.  1.
<mgrwt>
<rscale>  0 0.90195128E+02</rscale>
<asrwt>0</asrwt>
<pdfrwt beam="1">  1        1 0.28025064E-02 0.90195128E+02</pdfrwt>
<pdfrwt beam="2">  1       -1 0.17176427E-01 0.90195128E+02</pdfrwt>
<totfact> 0.81930797E+04</totfact>
</mgrwt>
</event>
<event>
 5    1  0.1239369E+001  0.9267077E+02  0.7546771E-02  0.1296510E+00
         -1   -1    0    0    0  501 -0.00000000000E+00  0.00000000000E+00  0.14786148051E+02  0.14786148051E+02  0.00000000000E+00 0.  1.
          1   -1    0    0  501    0  0.00000000000E+00 -0.00000000000E+00 -0.14520129103E+03  0.14520129103E+03  0.00000000000E+00 0. -1.
         23    2    1    2    0    0  0.00000000000E+00  0.00000000000E+00 -0.13041514298E+03  0.15998743909E+03  0.92670767482E+02 0.  0.
        -13    1    3    3    0    0  0.29447243977E+02  0.34822284371E+02 -0.51051444566E+02  0.68454230395E+02  0.00000000000E+00 0.  1.
         13    1    3    3    0    0 -0.29447243977E+02 -0.34822284371E+02 -0.79363698417E+02  0.91533208691E+02  0.00000000000E+00 0. -1.
<mgrwt>
<rscale>  0 0.92670767E+02</rscale>
<asrwt>0</asrwt>
<pdfrwt beam="2">  1        1 0.22338659E-01 0.92670767E+02</pdfrwt>
<pdfrwt beam="1">  1       -1 0.22747921E-02 0.92670767E+02</pdfrwt>
<totfact> 0.10667326E+05</totfact>
</mgrwt>
</event>
<event>
 5    1  0.1239369E+001  0.9170214E+02  0.7546771E-02  0.1298781E+00
         -2   -1    0    0    0  501 -0.00000000000E+00  0.00000000000E+00  0.46430438986E+02  0.46430438986E+02  0.00000000000E+00 0. -1.
          2   -1    0    0  501    0  0.00000000000E+00 -0.00000000000E+00 -0.45278933972E+02  0.45278933972E+02  0.00000000000E+00 0.  1.
         23    2    1    2    0    0  0.00000000000E+00  0.00000000000E+00  0.11515050138E+01  0.91709372958E+02  0.91702143511E+02 0.  0.
        -13    1    3    3    0    0 -0.36089929235E+02  0.21895957707E+02 -0.17325514096E+02  0.45629917760E+02  0.00000000000E+00 0.  1.
         13    1    3    3    0    0  0.36089929235E+02 -0.21895957707E+02  0.18477019110E+02  0.46079455197E+02  0.00000000000E+00 0. -1.
<mgrwt>
<rscale>  0 0.91702144E+02</rscale>
<asrwt>0</asrwt>
<pdfrwt beam="2">  1        2 0.69659898E-02 0.91702144E+02</pdfrwt>
<pdfrwt beam="1">  1       -2 0.71431445E-02 0.91702144E+02</pdfrwt>
<totfact> 0.96886495E+04</totfact>
</mgrwt>
</event>
<event>
 5    1  0.1239369E+001  0.9486522E+02  0.7546771E-02  0.1291480E+00
          3   -1    0    0  501    0  0.00000000000E+00  0.00000000000E+00  0.14732736046E+02  0.14732736046E+02  0.00000000000E+00 0. -1.
         -3   -1    0    0    0  501 -0.00000000000E+00 -0.00000000000E+00 -0.15271112155E+03  0.15271112155E+03  0.00000000000E+00 0.  1.
         23    2    1    2    0    0  0.00000000000E+00  0.00000000000E+00 -0.13797838551E+03  0.16744385760E+03  0.94865223241E+02 0.  0.
        -11    1    3    3    0    0 -0.40824286257E+02 -0.18965097223E+02 -0.95380126391E+02  0.10546879051E+03  0.00000000000E+00 0.  1.
         11    1    3    3    0    0  0.40824286257E+02  0.18965097223E+02 -0.42598259115E+02  0.61975067089E+02  0.00000000000E+00 0. -1.
<mgrwt>
<rscale>  0 0.94865223E+02</rscale>
<asrwt>0</asrwt>
<pdfrwt beam="1">  1        3 0.22665747E-02 0.94865223E+02</pdfrwt>
<pdfrwt beam="2">  1       -3 0.23494019E-01 0.94865223E+02</pdfrwt>
<totfact> 0.27183609E+04</totfact>
</mgrwt>
</event>
<event>
 5    1  0.1239369E+001  0.8879288E+02  0.7546771E-02  0.1305802E+00
         -2   -1    0    0    0  501 -0.00000000000E+00  0.00000000000E+00  0.27007389939E+02  0.27007389939E+02  0.00000000000E+00 0. -1.
          2   -1    0    0  501    0  0.00000000000E+00 -0.00000000000E+00 -0.72981652301E+02  0.72981652301E+02  0.00000000000E+00 0.  1.
         23    2    1    2    0    0  0.00000000000E+00  0.00000000000E+00 -0.45974262361E+02  0.99989042240E+02  0.88792881293E+02 0.  0.
        -11    1    3    3    0    0 -0.41248179067E+02 -0.14873801394E+02 -0.15152752533E+02  0.46392328606E+02  0.00000000000E+00 0. -1.
         11    1    3    3    0    0  0.41248179067E+02  0.14873801394E+02 -0.30821509828E+02  0.53596713633E+02  0.00000000000E+00 0.  1.
<mgrwt>
<rscale>  0 0.88792881E+02</rscale>
<asrwt>0</asrwt>
<pdfrwt beam="2">  1        2 0.11227947E-01 0.88792881E+02</pdfrwt>
<pdfrwt beam="1">  1       -2 0.41549830E-02 0.88792881E+02</pdfrwt>
<totfact> 0.12047607E+05</totfact>
</mgrwt>
</event>
<event>
 5    1  0.1239369E+001  0.9188074E+02  0.7546771E-02  0.1298360E+00
         -1   -1    0    0    0  501 -0.00000000000E+00  0.00000000000E+00  0.22274166997E+02  0.22274166997E+02  0.00000000000E+00 0.  1.
          1   -1    0    0  501    0  0.00000000000E+00 -0.00000000000E+00 -0.94751812042E+02  0.94751812042E+02  0.00000000000E+00 0. -1.
         23    2    1    2    0    0  0.00000000000E+00  0.00000000000E+00 -0.72477645045E+02  0.11702597904E+03  0.91880741937E+02 0.  0.
        -13    1    3    3    0    0 -0.30667613903E+02  0.20335702375E+02 -0.12076322824E+01  0.36817138799E+02  0.00000000000E+00 0.  1.
         13    1    3    3    0    0  0.30667613903E+02 -0.20335702375E+02 -0.71270012763E+02  0.80208840241E+02  0.00000000000E+00 0. -1.
<mgrwt>
<rscale>  0 0.91880742E+02</rscale>
<asrwt>0</asrwt>
<pdfrwt beam="2">  1        1 0.14577202E-01 0.91880742E+02</pdfrwt>
<pdfrwt beam="1">  1       -1 0.34267948E-02 0.91880742E+02</pdfrwt>
<totfact> 0.10137146E+05</totfact>
</mgrwt>
</event>
<event>
 5    1  0.1239369E+001  0.9396940E+02  0.7546771E-02  0.1293514E+00
          3   -1    0    0  501    0  0.00000000000E+00  0.00000000000E+00  0.29705421956E+02  0.29705421956E+02  0.00000000000E+00 0. -1.
         -3   -1    0    0    0  501 -0.00000000000E+00 -0.00000000000E+00 -0.74315127163E+02  0.74315127163E+02  0.00000000000E+00 0.  1.
         23    2    1    2    0    0  0.00000000000E+00  0.00000000000E+00 -0.44609705207E+02  0.10402054912E+03  0.93969403745E+02 0.  0.
        -13    1    3    3    0    0  0.28612268409E+02 -0.64922951944E+01 -0.62928248854E+02  0.69431810463E+02  0.00000000000E+00 0.  1.
         13    1    3    3    0    0 -0.28612268409E+02  0.64922951944E+01  0.18318543647E+02  0.34588738655E+02  0.00000000000E+00 0. -1.
<mgrwt>
<rscale>  0 0.93969404E+02</rscale>
<asrwt>0</asrwt>
<pdfrwt beam="1">  1        3 0.45700649E-02 0.93969404E+02</pdfrwt>
<pdfrwt beam="2">  1       -3 0.11433097E-01 0.93969404E+02</pdfrwt>
<totfact> 0.31659318E+04</totfact>
</mgrwt>
</event>
<event>
 5    1  0.1239369E+001  0.9297487E+02  0.7546771E-02  0.1295803E+00
         -1   -1    0    0    0  501 -0.00000000000E+00  0.00000000000E+00  0.27108570219E+03  0.27108570219E+03  0.00000000000E+00 0.  1.
          1   -1    0    0  501    0  0.00000000000E+00 -0.00000000000E+00 -0.79719501081E+01  0.79719501081E+01  0.00000000000E+00 0. -1.
         23    2    1    2    0    0  0.00000000000E+00  0.00000000000E+00  0.26311375208E+03  0.27905765229E+03  0.92974871720E+02 0.  0.
        -13    1    3    3    0    0 -0.33377605770E+02 -0.20711054664E+02  0.20617545066E+03  0.20988408422E+03  0.00000000000E+00 0.  1.
         13    1    3    3    0    0  0.33377605770E+02  0.20711054664E+02  0.56938301414E+02  0.69173568075E+02  0.00000000000E+00 0. -1.
<mgrwt>
<rscale>  0 0.92974872E+02</rscale>
<asrwt>0</asrwt>
<pdfrwt beam="2">  1        1 0.12264541E-02 0.92974872E+02</pdfrwt>
<pdfrwt beam="1">  1       -1 0.41705486E-01 0.92974872E+02</pdfrwt>
<totfact> 0.59815669E+04</totfact>
</mgrwt>
</event>
<event>
 5    1  0.1239369E+001  0.9096214E+02  0.7546771E-02  0.1300538E+00
         -2   -1    0    0    0  501 -0.00000000000E+00  0.00000000000E+00  0.15027741921E+03  0.15027741921E+03  0.00000000000E+00 0. -1.
          2   -1    0    0  501    0  0.00000000000E+00 -0.00000000000E+00 -0.13764727898E+02  0.13764727898E+02  0.00000000000E+00 0.  1.
         23    2    1    2    0    0  0.00000000000E+00  0.00000000000E+00  0.13651269131E+03  0.16404214711E+03  0.90962141238E+02 0.  0.
        -11    1    3    3    0    0  0.20851395057E+02  0.35418009770E+02  0.10337944930E+03  0.11124983879E+03  0.00000000000E+00 0. -1.
         11    1    3    3    0    0 -0.20851395057E+02 -0.35418009770E+02  0.33133242012E+02  0.52792308324E+02  0.00000000000E+00 0.  1.
<mgrwt>
<rscale>  0 0.90962141E+02</rscale>
<asrwt>0</asrwt>
<pdfrwt beam="2">  1        2 0.21176505E-02 0.90962141E+02</pdfrwt>
<pdfrwt beam="1">  1       -2 0.23119602E-01 0.90962141E+02</pdfrwt>
<totfact> 0.70227653E+04</totfact>
</mgrwt>
</event>
<event>
 5    1  0.1239369E+001  0.9101884E+02  0.7546771E-02  0.1300403E+00
         -1   -1    0    0    0  501 -0.00000000000E+00  0.00000000000E+00  0.47893074194E+02  0.47893074194E+02  0.00000000000E+00 0.  1.
          1   -1    0    0  501    0  0.00000000000E+00 -0.00000000000E+00 -0.43244400729E+02  0.43244400729E+02  0.00000000000E+00 0. -1.
         23    2    1    2    0    0  0.00000000000E+00  0.00000000000E+00  0.46486734652E+01  0.91137474923E+02  0.91018839645E+02 0.  0.
        -11    1    3    3    0    0  0.12892745596E+02 -0.99677979375E+01  0.44871218834E+02  0.47738937613E+02  0.00000000000E+00 0.  1.
         11    1    3    3    0    0 -0.12892745596E+02  0.99677979375E+01 -0.40222545369E+02  0.43398537311E+02  0.00000000000E+00 0. -1.
<mgrwt>
<rscale>  0 0.91018840E+02</rscale>
<asrwt>0</asrwt>
<pdfrwt beam="2">  1        1 0.66529848E-02 0.91018840E+02</pdfrwt>
<pdfrwt beam="1">  1       -1 0.73681652E-02 0.91018840E+02</pdfrwt>
<totfact> 0.92189373E+04</totfact>
</mgrwt>
</event>
<event>
 5    1  0.1239369E+001  0.9646927E+02  0.7546771E-02  0.1287901E+00
          1   -1    0    0  501    0  0.00000000000E+00  0.00000000000E+00  0.10434398588E+03  0.10434398588E+03  0.00000000000E+00 0. -1.
         -1   -1    0    0    0  501 -0.00000000000E+00 -0.00000000000E+00 -0.22297212229E+02  0.22297212229E+02  0.00000000000E+00 0.  1.
         23    2    1    2    0    0  0.00000000000E+00  0.00000000000E+00  0.82046773654E+02  0.12664119811E+03  0.96469269677E+02 0.  0.
        -13    1    3    3    0    0 -0.25560876546E+02 -0.36913296816E+02  0.17886347084E+02  0.48330852503E+02  0.00000000000E+00 0.  1.
         13    1    3    3    0    0  0.25560876546E+02  0.36913296816E+02  0.64160426570E+02  0.78310345608E+02  0.00000000000E+00 0. -1.
<mgrwt>
<rscale>  0 0.96469270E+02</rscale>
<asrwt>0</asrwt>
<pdfrwt beam="1">  1        1 0.16052921E-01 0.96469270E+02</pdfrwt>
<pdfrwt beam="2">  1       -1 0.34303404E-02 0.96469270E+02</pdfrwt>
<totfact> 0.90154383E+04</totfact>
</mgrwt>
</event>
<event>
 5    1  0.1239369E+001  0.9224803E+02  0.7546771E-02  0.1297497E+00
         -2   -1    0    0    0  501 -0.00000000000E+00  0.00000000000E+00  0.34875104817E+02  0.34875104817E+02  0.00000000000E+00 0.  1.
          2   -1    0    0  501    0  0.00000000000E+00 -0.00000000000E+00 -0.61001239928E+02  0.61001239928E+02  0.00000000000E+00 0. -1.
         23    2    1    2    0    0  0.00000000000E+00  0.00000000000E+00 -0.26126135110E+02  0.95876344745E+02  0.92248027328E+02 0.  0.
        -11    1    3    3    0    0 -0.79328402710E+01  0.42459098179E+02 -0.29877126175E+02  0.52519973738E+02  0.00000000000E+00 0. -1.
         11    1    3    3    0    0  0.79328402710E+01 -0.42459098179E+02  0.37509910650E+01  0.43356371007E+02  0.00000000000E+00 0.  1.
<mgrwt>
<rscale>  0 0.92248027E+02</rscale>
<asrwt>0</asrwt>
<pdfrwt beam="2">  1        2 0.93848061E-02 0.92248027E+02</pdfrwt>
<pdfrwt beam="1">  1       -2 0.53654007E-02 0.92248027E+02</pdfrwt>
<totfact> 0.10308555E+05</totfact>
</mgrwt>
</event>
<event>
 5    1  0.1239369E+001  0.9060070E+02  0.7546771E-02  0.1301404E+00
          1   -1    0    0  501    0  0.00000000000E+00  0.00000000000E+00  0.39080120436E+02  0.39080120436E+02  0.00000000000E+00 0. -1.
         -1   -1    0    0    0  501 -0.00000000000E+00 -0.00000000000E+00 -0.52510627589E+02  0.52510627589E+02  0.00000000000E+00 0.  1.
         23    2    1    2    0    0  0.00000000000E+00  0.00000000000E+00 -0.13430507153E+02  0.91590748025E+02  0.90600698681E+02 0.  0.
        -11    1    3    3    0    0  0.26471324230E+02 -0.26114789202E+02  0.19440404258E+02  0.41960011193E+02  0.00000000000E+00 0. -1.
         11    1    3    3    0    0 -0.26471324230E+02  0.26114789202E+02 -0.32870911411E+02  0.49630736833E+02  0.00000000000E+00 0.  1.
<mgrwt>
<rscale>  0 0.90600699E+02</rscale>
<asrwt>0</asrwt>
<pdfrwt beam="1">  1        1 0.60123262E-02 0.90600699E+02</pdfrwt>
<pdfrwt beam="2">  1       -1 0.80785581E-02 0.90600699E+02</pdfrwt>
<totfact> 0.91975666E+04</totfact>
</mgrwt>
</event>
<event>
 5    1  0.1239369E+001  0.9479457E+02  0.7546771E-02  0.1291639E+00
         -2   -1    0    0    0  501 -0.00000000000E+00  0.00000000000E+00  0.89949293744E+02  0.89949293744E+02  0.00000000000E+00 0.  1.
          2   -1    0    0  501    0  0.00000000000E+00 -0.00000000000E+00 -0.24975212436E+02  0.24975212436E+02  0.00000000000E+00 0. -1.
         23    2    1    2    0    0  0.00000000000E+00  0.00000000000E+00  0.64974081307E+02  0.11492450618E+03  0.94794571991E+02 0.  0.
        -13    1    3    3    0    0 -0.17077364767E+01 -0.45883766043E+02  0.18231376470E+02  0.49402625822E+02  0.00000000000E+00 0. -1.
         13    1    3    3    0    0  0.17077364767E+01  0.45883766043E+02  0.46742704837E+02  0.65521880358E+02  0.00000000000E+00 0.  1.
<mgrwt>
<rscale>  0 0.94794572E+02</rscale>
<asrwt>0</asrwt>
<pdfrwt beam="2">  1        2 0.38423404E-02 0.94794572E+02</pdfrwt>
<pdfrwt beam="1">  1       -2 0.13838353E-01 0.94794572E+02</pdfrwt>
<totfact> 0.74760521E+04</totfact>
</mgrwt>
</event>
<event>
 5    1  0.1239369E+001  0.9426944E+02  0.7546771E-02  0.1292830E+00
         -2   -1    0    0    0  501 -0.00000000000E+00  0.00000000000E+00  0.15950878971E+02  0.15950878971E+02  0.00000000000E+00 0.  1.
          2   -1    0    0  501    0  0.00000000000E+00 -0.00000000000E+00 -0.13928271952E+03  0.13928271952E+03  0.00000000000E+00 0. -1.
         23    2    1    2    0    0  0.00000000000E+00  0.00000000000E+00 -0.12333184055E+03  0.15523359849E+03  0.94269439413E+02 0.  0.
        -13    1    3    3    0    0 -0.35805539828E+02  0.17119997756E+02 -0.10353718953E+03  0.11088318458E+03  0.00000000000E+00 0. -1.
         13    1    3    3    0    0  0.35805539828E+02 -0.17119997756E+02 -0.19794651016E+02  0.44350413914E+02  0.00000000000E+00 0.  1.
<mgrwt>
<rscale>  0 0.94269439E+02</rscale>
<asrwt>0</asrwt>
<pdfrwt beam="2">  1        2 0.21428111E-01 0.94269439E+02</pdfrwt>
<pdfrwt beam="1">  1       -2 0.24539814E-02 0.94269439E+02</pdfrwt>
<totfact> 0.12449628E+05</totfact>
</mgrwt>
</event>
<event>
 5    1  0.1239369E+001  0.8954243E+02  0.7546771E-02  0.1303964E+00
         -2   -1    0    0    0  501 -0.00000000000E+00  0.00000000000E+00  0.66031220940E+01  0.66031220940E+01  0.00000000000E+00 0.  1.
          2   -1    0    0  501    0  0.00000000000E+00 -0.00000000000E+00 -0.30356271569E+03  0.30356271569E+03  0.00000000000E+00 0. -1.
         23    2    1    2    0    0  0.00000000000E+00  0.00000000000E+00 -0.29695959359E+03  0.31016583778E+03  0.89542429605E+02 0.  0.
        -11    1    3    3    0    0 -0.35815851453E+02  0.26726097313E+02 -0.15790400705E+03  0.16410586502E+03  0.00000000000E+00 0. -1.
         11    1    3    3    0    0  0.35815851453E+02 -0.26726097313E+02 -0.13905558654E+03  0.14605997276E+03  0.00000000000E+00 0.  1.
<mgrwt>
<rscale>  0 0.89542430E+02</rscale>
<asrwt>0</asrwt>
<pdfrwt beam="2">  1        2 0.46701952E-01 0.89542430E+02</pdfrwt>
<pdfrwt beam="1">  1       -2 0.10158650E-02 0.89542430E+02</pdfrwt>
<totfact> 0.18935813E+05</totfact>
</mgrwt>
</event>
<event>
 5    1  0.1239369E+001  0.8482525E+02  0.7546771E-02  0.1315890E+00
          1   -1    0    0  501    0  0.00000000000E+00  0.00000000000E+00  0.18883723041E+03  0.18883723041E+03  0.00000000000E+00 0. -1.
         -1   -1    0    0    0  501 -0.00000000000E+00 -0.00000000000E+00 -0.95258273459E+01  0.95258273459E+01  0.00000000000E+00 0.  1.
         23    2    1    2    0    0  0.00000000000E+00  0.00000000000E+00  0.17931140307E+03  0.19836305776E+03  0.84825252216E+02 0.  0.
        -11    1    3    3    0    0 -0.39605193968E+02 -0.44867283696E-02  0.12514066484E+03  0.13125836128E+03  0.00000000000E+00 0. -1.
         11    1    3    3    0    0  0.39605193968E+02  0.44867283696E-02  0.54170738222E+02  0.67104696474E+02  0.00000000000E+00 0.  1.
<mgrwt>
<rscale>  0 0.84825252E+02</rscale>
<asrwt>0</asrwt>
<pdfrwt beam="1">  1        1 0.29051879E-01 0.84825252E+02</pdfrwt>
<pdfrwt beam="2">  1       -1 0.14655120E-02 0.84825252E+02</pdfrwt>
<totfact> 0.14202196E+05</totfact>
</mgrwt>
</event>
<event>
 5    1  0.1239369E+001  0.9308010E+02  0.7546771E-02  0.1295560E+00
          2   -1    0    0  501    0  0.00000000000E+00  0.00000000000E+00  0.39067785532E+02  0.39067785532E+02  0.00000000000E+00 0. -1.
         -2   -1    0    0    0  501 -0.00000000000E+00 -0.00000000000E+00 -0.55441492397E+02  0.55441492397E+02  0.00000000000E+00 0.  1.
         23    2    1    2    0    0  0.00000000000E+00  0.00000000000E+00 -0.16373706864E+02  0.94509277929E+02  0.93080101731E+02 0.  0.
        -11    1    3    3    0    0  0.19287268233E+02 -0.22858713842E+02  0.28018134217E+02  0.40982134637E+02  0.00000000000E+00 0. -1.
         11    1    3    3    0    0 -0.19287268233E+02  0.22858713842E+02 -0.44391841082E+02  0.53527143292E+02  0.00000000000E+00 0.  1.
<mgrwt>
<rscale>  0 0.93080102E+02</rscale>
<asrwt>0</asrwt>
<pdfrwt beam="1">  1        2 0.60104285E-02 0.93080102E+02</pdfrwt>
<pdfrwt beam="2">  1       -2 0.85294604E-02 0.93080102E+02</pdfrwt>
<totfact> 0.89273947E+04</totfact>
</mgrwt>
</event>
<event>
 5    1  0.1239369E+001  0.9195056E+02  0.7546771E-02  0.1298196E+00
         -1   -1    0    0    0  501 -0.00000000000E+00  0.00000000000E+00  0.10803703412E+03  0.10803703412E+03  0.00000000000E+00 0.  1.
          1   -1    0    0  501    0  0.00000000000E+00 -0.00000000000E+00 -0.19564831185E+02  0.19564831185E+02  0.00000000000E+00 0. -1.
         23    2    1    2    0    0  0.00000000000E+00  0.00000000000E+00  0.88472202932E+02  0.12760186530E+03  0.91950559198E+02 0.  0.
        -13    1    3    3    0    0  0.24483161737E+02 -0.22935889486E+02  0.61112530853E+00  0.33553743596E+02  0.00000000000E+00 0.  1.
         13    1    3    3    0    0 -0.24483161737E+02  0.22935889486E+02  0.87861077623E+02  0.94048121705E+02  0.00000000000E+00 0. -1.
<mgrwt>
<rscale>  0 0.91950559E+02</rscale>
<asrwt>0</asrwt>
<pdfrwt beam="2">  1        1 0.30099741E-02 0.91950559E+02</pdfrwt>
<pdfrwt beam="1">  1       -1 0.16621082E-01 0.91950559E+02</pdfrwt>
<totfact> 0.78456086E+04</totfact>
</mgrwt>
</event>
<event>
 5    1  0.1239369E+001  0.6435075E+02  0.7546771E-02  0.1380430E+00
          2   -1    0    0  501    0  0.00000000000E+00  0.00000000000E+00  0.94965570256E+02  0.94965570256E+02  0.00000000000E+00 0.  1.
         -2   -1    0    0    0  501 -0.00000000000E+00 -0.00000000000E+00 -0.10901369796E+02  0.10901369796E+02  0.00000000000E+00 0. -1.
         23    2    1    2    0    0  0.00000000000E+00  0.00000000000E+00  0.84064200460E+02  0.10586694005E+03  0.64350751333E+02 0.  0.
        -11    1    3    3    0    0 -0.16346235124E+02  0.44092877798E+01 -0.29806541299E+01  0.17190855723E+02  0.00000000000E+00 0. -1.
         11    1    3    3    0    0  0.16346235124E+02 -0.44092877798E+01  0.87044854589E+02  0.88676084329E+02  0.00000000000E+00 0.  1.
<mgrwt>
<rscale>  0 0.64350751E+02</rscale>
<asrwt>0</asrwt>
<pdfrwt beam="1">  1        2 0.14610087E-01 0.64350751E+02</pdfrwt>
<pdfrwt beam="2">  1       -2 0.16771339E-02 0.64350751E+02</pdfrwt>
<totfact> 0.30823153E+05</totfact>
</mgrwt>
</event>
<event>
 5    1  0.1239369E+001  0.8587395E+02  0.7546771E-02  0.1313163E+00
         -1   -1    0    0    0  501 -0.00000000000E+00  0.00000000000E+00  0.14280251734E+02  0.14280251734E+02  0.00000000000E+00 0.  1.
          1   -1    0    0  501    0  0.00000000000E+00 -0.00000000000E+00 -0.12910023933E+03  0.12910023933E+03  0.00000000000E+00 0. -1.
         23    2    1    2    0    0  0.00000000000E+00  0.00000000000E+00 -0.11481998759E+03  0.14338049106E+03  0.85873952199E+02 0.  0.
        -11    1    3    3    0    0  0.13127662053E+01 -0.24469061501E+02  0.14589326412E+01  0.24547643681E+02  0.00000000000E+00 0.  1.
         11    1    3    3    0    0 -0.13127662053E+01  0.24469061501E+02 -0.11627892023E+03  0.11883284738E+03  0.00000000000E+00 0. -1.
<mgrwt>
<rscale>  0 0.85873952E+02</rscale>
<asrwt>0</asrwt>
<pdfrwt beam="2">  1        1 0.19861576E-01 0.85873952E+02</pdfrwt>
<pdfrwt beam="1">  1       -1 0.21969617E-02 0.85873952E+02</pdfrwt>
<totfact> 0.12826224E+05</totfact>
</mgrwt>
</event>
<event>
 5    1  0.1239369E+001  0.9283141E+02  0.7546771E-02  0.1296136E+00
          1   -1    0    0  501    0  0.00000000000E+00  0.00000000000E+00  0.14217430846E+03  0.14217430846E+03  0.00000000000E+00 0. -1.
         -1   -1    0    0    0  501 -0.00000000000E+00 -0.00000000000E+00 -0.15153355086E+02  0.15153355086E+02  0.00000000000E+00 0.  1.
         23    2    1    2    0    0  0.00000000000E+00  0.00000000000E+00  0.12702095337E+03  0.15732766355E+03  0.92831412362E+02 0.  0.
        -13    1    3    3    0    0 -0.31505711873E+02  0.28786279063E+02  0.94444419803E+02  0.10363883526E+03  0.00000000000E+00 0. -1.
         13    1    3    3    0    0  0.31505711873E+02 -0.28786279063E+02  0.32576533572E+02  0.53688828284E+02  0.00000000000E+00 0.  1.
<mgrwt>
<rscale>  0 0.92831412E+02</rscale>
<asrwt>0</asrwt>
<pdfrwt beam="1">  1        1 0.21872970E-01 0.92831412E+02</pdfrwt>
<pdfrwt beam="2">  1       -1 0.23312855E-02 0.92831412E+02</pdfrwt>
<totfact> 0.10576515E+05</totfact>
</mgrwt>
</event>
<event>
 5    1  0.1239369E+001  0.8761932E+02  0.7546771E-02  0.1308721E+00
         -4   -1    0    0    0  501 -0.00000000000E+00  0.00000000000E+00  0.24826492672E+02  0.24826492672E+02  0.00000000000E+00 0.  1.
          4   -1    0    0  501    0  0.00000000000E+00 -0.00000000000E+00 -0.77307998483E+02  0.77307998483E+02  0.00000000000E+00 0. -1.
         23    2    1    2    0    0  0.00000000000E+00  0.00000000000E+00 -0.52481505810E+02  0.10213449115E+03  0.87619323390E+02 0.  0.
        -13    1    3    3    0    0 -0.14839507291E+02  0.14989385620E+02  0.18518134482E+02  0.28068023846E+02  0.00000000000E+00 0.  1.
         13    1    3    3    0    0  0.14839507291E+02 -0.14989385620E+02 -0.70999640293E+02  0.74066467309E+02  0.00000000000E+00 0. -1.
<mgrwt>
<rscale>  0 0.87619323E+02</rscale>
<asrwt>0</asrwt>
<pdfrwt beam="2">  1        4 0.11893538E-01 0.87619323E+02</pdfrwt>
<pdfrwt beam="1">  1       -4 0.38194604E-02 0.87619323E+02</pdfrwt>
<totfact> 0.29309606E+04</totfact>
</mgrwt>
</event>
<event>
 5    1  0.1239369E+001  0.9029607E+02  0.7546771E-02  0.1302136E+00
         -1   -1    0    0    0  501 -0.00000000000E+00  0.00000000000E+00  0.65914725156E+01  0.65914725156E+01  0.00000000000E+00 0.  1.
          1   -1    0    0  501    0  0.00000000000E+00 -0.00000000000E+00 -0.30923972884E+03  0.30923972884E+03  0.00000000000E+00 0. -1.
         23    2    1    2    0    0  0.00000000000E+00  0.00000000000E+00 -0.30264825632E+03  0.31583120136E+03  0.90296072415E+02 0.  0.
        -13    1    3    3    0    0  0.42939406147E+02  0.28531862959E+01 -0.10356867289E+03  0.11215348089E+03  0.00000000000E+00 0.  1.
         13    1    3    3    0    0 -0.42939406147E+02 -0.28531862959E+01 -0.19907958343E+03  0.20367772046E+03  0.00000000000E+00 0. -1.
<mgrwt>
<rscale>  0 0.90296072E+02</rscale>
<asrwt>0</asrwt>
<pdfrwt beam="2">  1        1 0.47575330E-01 0.90296072E+02</pdfrwt>
<pdfrwt beam="1">  1       -1 0.10140730E-02 0.90296072E+02</pdfrwt>
<totfact> 0.13223337E+05</totfact>
</mgrwt>
</event>
<event>
 5    1  0.1239369E+001  0.9174624E+02  0.7546771E-02  0.1298677E+00
          3   -1    0    0  501    0  0.00000000000E+00  0.00000000000E+00  0.47623933133E+02  0.47623933133E+02  0.00000000000E+00 0.  1.
         -3   -1    0    0    0  501 -0.00000000000E+00 -0.00000000000E+00 -0.44186673195E+02  0.44186673195E+02  0.00000000000E+00 0. -1.
         23    2    1    2    0    0  0.00000000000E+00  0.00000000000E+00  0.34372599376E+01  0.91810606328E+02  0.91746240677E+02 0.  0.
        -11    1    3    3    0    0  0.22631984446E+02 -0.32412278732E+02  0.25006841752E+02  0.46777181050E+02  0.00000000000E+00 0.  1.
         11    1    3    3    0    0 -0.22631984446E+02  0.32412278732E+02 -0.21569581815E+02  0.45033425278E+02  0.00000000000E+00 0. -1.
<mgrwt>
<rscale>  0 0.91746241E+02</rscale>
<asrwt>0</asrwt>
<pdfrwt beam="1">  1        3 0.73267589E-02 0.91746241E+02</pdfrwt>
<pdfrwt beam="2">  1       -3 0.67979497E-02 0.91746241E+02</pdfrwt>
<totfact> 0.34695056E+04</totfact>
</mgrwt>
</event>
<event>
 5    1  0.1239369E+001  0.1000753E+03  0.7546771E-02  0.1280138E+00
         -2   -1    0    0    0  501 -0.00000000000E+00  0.00000000000E+00  0.14887662907E+02  0.14887662907E+02  0.00000000000E+00 0.  1.
          2   -1    0    0  501    0  0.00000000000E+00 -0.00000000000E+00 -0.16817740248E+03  0.16817740248E+03  0.00000000000E+00 0. -1.
         23    2    1    2    0    0  0.00000000000E+00  0.00000000000E+00 -0.15328973958E+03  0.18306506539E+03  0.10007534115E+03 0.  0.
        -11    1    3    3    0    0  0.92465695841E+01  0.28081149594E+02 -0.27975582894E+01  0.29696402879E+02  0.00000000000E+00 0.  1.
         11    1    3    3    0    0 -0.92465695841E+01 -0.28081149594E+02 -0.15049218129E+03  0.15336866251E+03  0.00000000000E+00 0. -1.
<mgrwt>
<rscale>  0 0.10007534E+03</rscale>
<asrwt>0</asrwt>
<pdfrwt beam="2">  1        2 0.25873446E-01 0.10007534E+03</pdfrwt>
<pdfrwt beam="1">  1       -2 0.22904097E-02 0.10007534E+03</pdfrwt>
<totfact> 0.11286116E+05</totfact>
</mgrwt>
</event>
<event>
 5    1  0.1239369E+001  0.9801243E+02  0.7546771E-02  0.1284532E+00
          1   -1    0    0  501    0  0.00000000000E+00  0.00000000000E+00  0.36370993908E+03  0.36370993908E+03  0.00000000000E+00 0. -1.
         -1   -1    0    0    0  501 -0.00000000000E+00 -0.00000000000E+00 -0.66030884891E+01  0.66030884891E+01  0.00000000000E+00 0.  1.
         23    2    1    2    0    0  0.00000000000E+00  0.00000000000E+00  0.35710685059E+03  0.37031302757E+03  0.98012425990E+02 0.  0.
        -13    1    3    3    0    0 -0.32301466792E+01  0.47402060595E+02  0.22392670471E+03  0.22891168227E+03  0.00000000000E+00 0.  1.
         13    1    3    3    0    0  0.32301466792E+01 -0.47402060595E+02  0.13318014588E+03  0.14140134530E+03  0.00000000000E+00 0. -1.
<mgrwt>
<rscale>  0 0.98012426E+02</rscale>
<asrwt>0</asrwt>
<pdfrwt beam="1">  1        1 0.55955360E-01 0.98012426E+02</pdfrwt>
<pdfrwt beam="2">  1       -1 0.10158600E-02 0.98012426E+02</pdfrwt>
<totfact> 0.10943951E+05</totfact>
</mgrwt>
</event>
<event>
 5    1  0.1239369E+001  0.9100885E+02  0.7546771E-02  0.1300427E+00
         -1   -1    0    0    0  501 -0.00000000000E+00  0.00000000000E+00  0.12581740583E+02  0.12581740583E+02  0.00000000000E+00 0.  1.
          1   -1    0    0  501    0  0.00000000000E+00 -0.00000000000E+00 -0.16457602086E+03  0.16457602086E+03  0.00000000000E+00 0. -1.
         23    2    1    2    0    0  0.00000000000E+00  0.00000000000E+00 -0.15199428027E+03  0.17715776144E+03  0.91008852331E+02 0.  0.
        -13    1    3    3    0    0  0.10010988364E+02 -0.34649837660E+02 -0.13000682088E+03  0.13491702863E+03  0.00000000000E+00 0. -1.
         13    1    3    3    0    0 -0.10010988364E+02  0.34649837660E+02 -0.21987459389E+02  0.42240732810E+02  0.00000000000E+00 0.  1.
<mgrwt>
<rscale>  0 0.91008852E+02</rscale>
<asrwt>0</asrwt>
<pdfrwt beam="2">  1        1 0.25319385E-01 0.91008852E+02</pdfrwt>
<pdfrwt beam="1">  1       -1 0.19356526E-02 0.91008852E+02</pdfrwt>
<totfact> 0.11464701E+05</totfact>
</mgrwt>
</event>
<event>
 5    1  0.1239369E+001  0.9262643E+02  0.7546771E-02  0.1296613E+00
          1   -1    0    0  501    0  0.00000000000E+00  0.00000000000E+00  0.43718344847E+02  0.43718344847E+02  0.00000000000E+00 0. -1.
         -1   -1    0    0    0  501 -0.00000000000E+00 -0.00000000000E+00 -0.49062101336E+02  0.49062101336E+02  0.00000000000E+00 0.  1.
         23    2    1    2    0    0  0.00000000000E+00  0.00000000000E+00 -0.53437564891E+01  0.92780446182E+02  0.92626429600E+02 0.  0.
        -11    1    3    3    0    0  0.18356237696E+02  0.13373285265E+02  0.37757564600E+02  0.44061660269E+02  0.00000000000E+00 0. -1.
         11    1    3    3    0    0 -0.18356237696E+02 -0.13373285265E+02 -0.43101321089E+02  0.48718785913E+02  0.00000000000E+00 0.  1.
<mgrwt>
<rscale>  0 0.92626430E+02</rscale>
<asrwt>0</asrwt>
<pdfrwt beam="1">  1        1 0.67258993E-02 0.92626430E+02</pdfrwt>
<pdfrwt beam="2">  1       -1 0.75480155E-02 0.92626430E+02</pdfrwt>
<totfact> 0.87894769E+04</totfact>
</mgrwt>
</event>
<event>
 5    1  0.1239369E+001  0.9282050E+02  0.7546771E-02  0.1296162E+00
          2   -1    0    0  501    0  0.00000000000E+00  0.00000000000E+00  0.45122465982E+02  0.45122465982E+02  0.00000000000E+00 0. -1.
         -2   -1    0    0    0  501 -0.00000000000E+00 -0.00000000000E+00 -0.47734785965E+02  0.47734785965E+02  0.00000000000E+00 0.  1.
         23    2    1    2    0    0  0.00000000000E+00  0.00000000000E+00 -0.26123199834E+01  0.92857251947E+02  0.92820498940E+02 0.  0.
        -13    1    3    3    0    0 -0.31702140004E+02  0.33852556738E+02  0.39450647553E+00  0.46380781730E+02  0.00000000000E+00 0. -1.
         13    1    3    3    0    0  0.31702140004E+02 -0.33852556738E+02 -0.30068264589E+01  0.46476470217E+02  0.00000000000E+00 0.  1.
<mgrwt>
<rscale>  0 0.92820499E+02</rscale>
<asrwt>0</asrwt>
<pdfrwt beam="1">  1        2 0.69419178E-02 0.92820499E+02</pdfrwt>
<pdfrwt beam="2">  1       -2 0.73438133E-02 0.92820499E+02</pdfrwt>
<totfact> 0.93476555E+04</totfact>
</mgrwt>
</event>
<event>
 5    1  0.1239369E+001  0.9126706E+02  0.7546771E-02  0.1299812E+00
          2   -1    0    0  501    0  0.00000000000E+00  0.00000000000E+00  0.20404961149E+02  0.20404961149E+02  0.00000000000E+00 0. -1.
         -2   -1    0    0    0  501 -0.00000000000E+00 -0.00000000000E+00 -0.10205454214E+03  0.10205454214E+03  0.00000000000E+00 0.  1.
         23    2    1    2    0    0  0.00000000000E+00  0.00000000000E+00 -0.81649580996E+02  0.12245950329E+03  0.91267057968E+02 0.  0.
        -11    1    3    3    0    0 -0.45096475449E+02  0.72837671787E+00 -0.50139846251E+02  0.67440542796E+02  0.00000000000E+00 0. -1.
         11    1    3    3    0    0  0.45096475449E+02 -0.72837671787E+00 -0.31509734745E+02  0.55018960498E+02  0.00000000000E+00 0.  1.
<mgrwt>
<rscale>  0 0.91267058E+02</rscale>
<asrwt>0</asrwt>
<pdfrwt beam="1">  1        2 0.31392248E-02 0.91267058E+02</pdfrwt>
<pdfrwt beam="2">  1       -2 0.15700699E-01 0.91267058E+02</pdfrwt>
<totfact> 0.79126116E+04</totfact>
</mgrwt>
</event>
<event>
 5    1  0.1239369E+001  0.9023534E+02  0.7546771E-02  0.1302283E+00
          2   -1    0    0  501    0  0.00000000000E+00  0.00000000000E+00  0.89734608029E+02  0.89734608029E+02  0.00000000000E+00 0. -1.
         -2   -1    0    0    0  501 -0.00000000000E+00 -0.00000000000E+00 -0.22684714910E+02  0.22684714910E+02  0.00000000000E+00 0.  1.
         23    2    1    2    0    0  0.00000000000E+00  0.00000000000E+00  0.67049893119E+02  0.11241932294E+03  0.90235336774E+02 0.  0.
        -11    1    3    3    0    0  0.68471114866E+01 -0.43290275845E+02  0.20183741341E+02  0.48252609598E+02  0.00000000000E+00 0.  1.
         11    1    3    3    0    0 -0.68471114866E+01  0.43290275845E+02  0.46866151779E+02  0.64166713341E+02  0.00000000000E+00 0. -1.
<mgrwt>
<rscale>  0 0.90235337E+02</rscale>
<asrwt>0</asrwt>
<pdfrwt beam="1">  1        2 0.13805324E-01 0.90235337E+02</pdfrwt>
<pdfrwt beam="2">  1       -2 0.34899562E-02 0.90235337E+02</pdfrwt>
<totfact> 0.12220747E+05</totfact>
</mgrwt>
</event>
<event>
 5    1  0.1239369E+001  0.8926767E+02  0.7546771E-02  0.1304635E+00
          2   -1    0    0  501    0  0.00000000000E+00  0.00000000000E+00  0.85964043541E+02  0.85964043541E+02  0.00000000000E+00 0. -1.
         -2   -1    0    0    0  501 -0.00000000000E+00 -0.00000000000E+00 -0.23174566223E+02  0.23174566223E+02  0.00000000000E+00 0.  1.
         23    2    1    2    0    0  0.00000000000E+00  0.00000000000E+00  0.62789477318E+02  0.10913860976E+03  0.89267674325E+02 0.  0.
        -11    1    3    3    0    0 -0.38046305563E+02 -0.17829873854E+02  0.12984418483E+02  0.43977504385E+02  0.00000000000E+00 0.  1.
         11    1    3    3    0    0  0.38046305563E+02  0.17829873854E+02  0.49805058835E+02  0.65161105378E+02  0.00000000000E+00 0. -1.
<mgrwt>
<rscale>  0 0.89267674E+02</rscale>
<asrwt>0</asrwt>
<pdfrwt beam="1">  1        2 0.13225237E-01 0.89267674E+02</pdfrwt>
<pdfrwt beam="2">  1       -2 0.35653179E-02 0.89267674E+02</pdfrwt>
<totfact> 0.12432915E+05</totfact>
</mgrwt>
</event>
<event>
 5    1  0.1239369E+001  0.8809077E+02  0.7546771E-02  0.1307542E+00
         -4   -1    0    0    0  501 -0.00000000000E+00  0.00000000000E+00  0.30340206992E+02  0.30340206992E+02  0.00000000000E+00 0.  1.
          4   -1    0    0  501    0  0.00000000000E+00 -0.00000000000E+00 -0.63941422940E+02  0.63941422940E+02  0.00000000000E+00 0. -1.
         23    2    1    2    0    0  0.00000000000E+00  0.00000000000E+00 -0.33601215948E+02  0.94281629933E+02  0.88090771535E+02 0.  0.
        -13    1    3    3    0    0  0.25391885598E+02 -0.25103781145E+02  0.10800293726E+02  0.37304075200E+02  0.00000000000E+00 0.  1.
         13    1    3    3    0    0 -0.25391885598E+02  0.25103781145E+02 -0.44401509674E+02  0.56977554733E+02  0.00000000000E+00 0. -1.
<mgrwt>
<rscale>  0 0.88090772E+02</rscale>
<asrwt>0</asrwt>
<pdfrwt beam="2">  1        4 0.98371420E-02 0.88090772E+02</pdfrwt>
<pdfrwt beam="1">  1       -4 0.46677242E-02 0.88090772E+02</pdfrwt>
<totfact> 0.29431636E+04</totfact>
</mgrwt>
</event>
<event>
 5    1  0.1239369E+001  0.9100011E+02  0.7546771E-02  0.1300448E+00
         -3   -1    0    0    0  501 -0.00000000000E+00  0.00000000000E+00  0.24551998959E+02  0.24551998959E+02  0.00000000000E+00 0.  1.
          3   -1    0    0  501    0  0.00000000000E+00 -0.00000000000E+00 -0.84321237590E+02  0.84321237590E+02  0.00000000000E+00 0. -1.
         23    2    1    2    0    0  0.00000000000E+00  0.00000000000E+00 -0.59769238631E+02  0.10887323655E+03  0.91000108517E+02 0.  0.
        -11    1    3    3    0    0  0.44398610190E+01  0.15519352710E+02  0.21011138864E+02  0.26495860634E+02  0.00000000000E+00 0.  1.
         11    1    3    3    0    0 -0.44398610190E+01 -0.15519352710E+02 -0.80780377494E+02  0.82377375914E+02  0.00000000000E+00 0. -1.
<mgrwt>
<rscale>  0 0.91000109E+02</rscale>
<asrwt>0</asrwt>
<pdfrwt beam="2">  1        3 0.12972498E-01 0.91000109E+02</pdfrwt>
<pdfrwt beam="1">  1       -3 0.37772306E-02 0.91000109E+02</pdfrwt>
<totfact> 0.34205443E+04</totfact>
</mgrwt>
</event>
<event>
 5    1  0.1239369E+001  0.9090948E+02  0.7546771E-02  0.1300664E+00
          1   -1    0    0  501    0  0.00000000000E+00  0.00000000000E+00  0.40446463046E+02  0.40446463046E+02  0.00000000000E+00 0. -1.
         -1   -1    0    0    0  501 -0.00000000000E+00 -0.00000000000E+00 -0.51083163356E+02  0.51083163356E+02  0.00000000000E+00 0.  1.
         23    2    1    2    0    0  0.00000000000E+00  0.00000000000E+00 -0.10636700311E+02  0.91529626402E+02  0.90909477591E+02 0.  0.
        -13    1    3    3    0    0  0.25106620824E+02  0.14988195984E+02  0.29720558522E+02  0.41692925382E+02  0.00000000000E+00 0. -1.
         13    1    3    3    0    0 -0.25106620824E+02 -0.14988195984E+02 -0.40357258833E+02  0.49836701020E+02  0.00000000000E+00 0.  1.
<mgrwt>
<rscale>  0 0.90909478E+02</rscale>
<asrwt>0</asrwt>
<pdfrwt beam="1">  1        1 0.62225328E-02 0.90909478E+02</pdfrwt>
<pdfrwt beam="2">  1       -1 0.78589481E-02 0.90909478E+02</pdfrwt>
<totfact> 0.91572630E+04</totfact>
</mgrwt>
</event>
<event>
 5    1  0.1239369E+001  0.9606896E+02  0.7546771E-02  0.1288787E+00
          1   -1    0    0  501    0  0.00000000000E+00  0.00000000000E+00  0.34116616927E+02  0.34116616927E+02  0.00000000000E+00 0. -1.
         -1   -1    0    0    0  501 -0.00000000000E+00 -0.00000000000E+00 -0.67630127324E+02  0.67630127324E+02  0.00000000000E+00 0.  1.
         23    2    1    2    0    0  0.00000000000E+00  0.00000000000E+00 -0.33513510397E+02  0.10174674425E+03  0.96068957456E+02 0.  0.
        -11    1    3    3    0    0 -0.22269051593E+02  0.39914031906E+02 -0.11096137042E+01  0.45719490859E+02  0.00000000000E+00 0. -1.
         11    1    3    3    0    0  0.22269051593E+02 -0.39914031906E+02 -0.32403896692E+02  0.56027253392E+02  0.00000000000E+00 0.  1.
<mgrwt>
<rscale>  0 0.96068957E+02</rscale>
<asrwt>0</asrwt>
<pdfrwt beam="1">  1        1 0.52487103E-02 0.96068957E+02</pdfrwt>
<pdfrwt beam="2">  1       -1 0.10404635E-01 0.96068957E+02</pdfrwt>
<totfact> 0.76165329E+04</totfact>
</mgrwt>
</event>
<event>
 5    1  0.1239369E+001  0.9100775E+02  0.7546771E-02  0.1300429E+00
          2   -1    0    0  501    0  0.00000000000E+00  0.00000000000E+00  0.95118109233E+02  0.95118109233E+02  0.00000000000E+00 0.  1.
         -2   -1    0    0    0  501 -0.00000000000E+00 -0.00000000000E+00 -0.21768751244E+02  0.21768751244E+02  0.00000000000E+00 0. -1.
         23    2    1    2    0    0  0.00000000000E+00  0.00000000000E+00  0.73349357988E+02  0.11688686048E+03  0.91007746016E+02 0.  0.
        -13    1    3    3    0    0  0.22284988881E+02  0.26382026877E+02 -0.13816830007E+01  0.34562134186E+02  0.00000000000E+00 0. -1.
         13    1    3    3    0    0 -0.22284988881E+02 -0.26382026877E+02  0.74731040989E+02  0.82324726291E+02  0.00000000000E+00 0.  1.
<mgrwt>
<rscale>  0 0.91007746E+02</rscale>
<asrwt>0</asrwt>
<pdfrwt beam="1">  1        2 0.14633555E-01 0.91007746E+02</pdfrwt>
<pdfrwt beam="2">  1       -2 0.33490387E-02 0.91007746E+02</pdfrwt>
<totfact> 0.12145419E+05</totfact>
</mgrwt>
</event>
<event>
 5    1  0.1239369E+001  0.9450022E+02  0.7546771E-02  0.1292306E+00
          1   -1    0    0  501    0  0.00000000000E+00  0.00000000000E+00  0.80473711473E+01  0.80473711473E+01  0.00000000000E+00 0. -1.
         -1   -1    0    0    0  501 -0.00000000000E+00 -0.00000000000E+00 -0.27742882200E+03  0.27742882200E+03  0.00000000000E+00 0.  1.
         23    2    1    2    0    0  0.00000000000E+00  0.00000000000E+00 -0.26938145086E+03  0.28547619315E+03  0.94500215822E+02 0.  0.
        -11    1    3    3    0    0 -0.24783589242E+02  0.32918695487E+02 -0.64836194591E+02  0.76821864969E+02  0.00000000000E+00 0. -1.
         11    1    3    3    0    0  0.24783589242E+02 -0.32918695487E+02 -0.20454525626E+03  0.20865432818E+03  0.00000000000E+00 0.  1.
<mgrwt>
<rscale>  0 0.94500216E+02</rscale>
<asrwt>0</asrwt>
<pdfrwt beam="1">  1        1 0.12380570E-02 0.94500216E+02</pdfrwt>
<pdfrwt beam="2">  1       -1 0.42681361E-01 0.94500216E+02</pdfrwt>
<totfact> 0.56835493E+04</totfact>
</mgrwt>
</event>
<event>
 5    1  0.1239369E+001  0.8741216E+02  0.7546771E-02  0.1309242E+00
          2   -1    0    0  501    0  0.00000000000E+00  0.00000000000E+00  0.10307643749E+03  0.10307643749E+03  0.00000000000E+00 0.  1.
         -2   -1    0    0    0  501 -0.00000000000E+00 -0.00000000000E+00 -0.18532085166E+02  0.18532085166E+02  0.00000000000E+00 0. -1.
         23    2    1    2    0    0  0.00000000000E+00  0.00000000000E+00  0.84544352321E+02  0.12160852265E+03  0.87412157464E+02 0.  0.
        -11    1    3    3    0    0  0.33448878502E+02  0.98089610063E+01  0.78953096461E+02  0.86305472769E+02  0.00000000000E+00 0.  1.
         11    1    3    3    0    0 -0.33448878502E+02 -0.98089610063E+01  0.55912558600E+01  0.35303049884E+02  0.00000000000E+00 0. -1.
<mgrwt>
<rscale>  0 0.87412157E+02</rscale>
<asrwt>0</asrwt>
<pdfrwt beam="1">  1        2 0.15857913E-01 0.87412157E+02</pdfrwt>
<pdfrwt beam="2">  1       -2 0.28510901E-02 0.87412157E+02</pdfrwt>
<totfact> 0.13897757E+05</totfact>
</mgrwt>
</event>
<event>
 5    1  0.1239369E+001  0.8934573E+02  0.7546771E-02  0.1304444E+00
         -3   -1    0    0    0  501 -0.00000000000E+00  0.00000000000E+00  0.67354543045E+02  0.67354543045E+02  0.00000000000E+00 0.  1.
          3   -1    0    0  501    0  0.00000000000E+00 -0.00000000000E+00 -0.29629254748E+02  0.29629254748E+02  0.00000000000E+00 0. -1.
         23    2    1    2    0    0  0.00000000000E+00  0.00000000000E+00  0.37725288297E+02  0.96983797793E+02  0.89345731052E+02 0.  0.
        -13    1    3    3    0    0  0.10646839806E+02 -0.43207801472E+02  0.14603485584E+02  0.46835148095E+02  0.00000000000E+00 0.  1.
         13    1    3    3    0    0 -0.10646839806E+02  0.43207801472E+02  0.23121802713E+02  0.50148649698E+02  0.00000000000E+00 0. -1.
<mgrwt>
<rscale>  0 0.89345731E+02</rscale>
<asrwt>0</asrwt>
<pdfrwt beam="2">  1        3 0.45583469E-02 0.89345731E+02</pdfrwt>
<pdfrwt beam="1">  1       -3 0.10362237E-01 0.89345731E+02</pdfrwt>
<totfact> 0.36873937E+04</totfact>
</mgrwt>
</event>
<event>
 5    1  0.1239369E+001  0.9122527E+02  0.7546771E-02  0.1299911E+00
          2   -1    0    0  501    0  0.00000000000E+00  0.00000000000E+00  0.66299945615E+02  0.66299945615E+02  0.00000000000E+00 0. -1.
         -2   -1    0    0    0  501 -0.00000000000E+00 -0.00000000000E+00 -0.31380301807E+02  0.31380301807E+02  0.00000000000E+00 0.  1.
         23    2    1    2    0    0  0.00000000000E+00  0.00000000000E+00  0.34919643809E+02  0.97680247422E+02  0.91225266306E+02 0.  0.
        -11    1    3    3    0    0 -0.21212816240E+02 -0.11550433330E+02 -0.23970601246E+02  0.34029190514E+02  0.00000000000E+00 0.  1.
         11    1    3    3    0    0  0.21212816240E+02  0.11550433330E+02  0.58890245054E+02  0.63651056908E+02  0.00000000000E+00 0. -1.
<mgrwt>
<rscale>  0 0.91225266E+02</rscale>
<asrwt>0</asrwt>
<pdfrwt beam="1">  1        2 0.10199992E-01 0.91225266E+02</pdfrwt>
<pdfrwt beam="2">  1       -2 0.48277388E-02 0.91225266E+02</pdfrwt>
<totfact> 0.10881531E+05</totfact>
</mgrwt>
</event>
<event>
 5    1  0.1239369E+001  0.9042139E+02  0.7546771E-02  0.1301834E+00
          1   -1    0    0  501    0  0.00000000000E+00  0.00000000000E+00  0.11102543471E+02  0.11102543471E+02  0.00000000000E+00 0. -1.
         -1   -1    0    0    0  501 -0.00000000000E+00 -0.00000000000E+00 -0.18410258355E+03  0.18410258355E+03  0.00000000000E+00 0.  1.
         23    2    1    2    0    0  0.00000000000E+00  0.00000000000E+00 -0.17300004008E+03  0.19520512702E+03  0.90421389878E+02 0.  0.
        -11    1    3    3    0    0 -0.36299863098E+02 -0.26040686157E+02 -0.71510541062E+02  0.84318176447E+02  0.00000000000E+00 0. -1.
         11    1    3    3    0    0  0.36299863098E+02  0.26040686157E+02 -0.10148949901E+03  0.11088695057E+03  0.00000000000E+00 0.  1.
<mgrwt>
<rscale>  0 0.90421390E+02</rscale>
<asrwt>0</asrwt>
<pdfrwt beam="1">  1        1 0.17080838E-02 0.90421390E+02</pdfrwt>
<pdfrwt beam="2">  1       -1 0.28323471E-01 0.90421390E+02</pdfrwt>
<totfact> 0.72593812E+04</totfact>
</mgrwt>
</event>
<event>
 5    1  0.1239369E+001  0.9110535E+02  0.7546771E-02  0.1300197E+00
          2   -1    0    0  501    0  0.00000000000E+00  0.00000000000E+00  0.12845134632E+03  0.12845134632E+03  0.00000000000E+00 0.  1.
         -2   -1    0    0    0  501 -0.00000000000E+00 -0.00000000000E+00 -0.16154336779E+02  0.16154336779E+02  0.00000000000E+00 0. -1.
         23    2    1    2    0    0  0.00000000000E+00  0.00000000000E+00  0.11229700954E+03  0.14460568310E+03  0.91105352383E+02 0.  0.
        -11    1    3    3    0    0  0.15823409635E+01 -0.42114242442E+02  0.83591307510E+02  0.93614207846E+02  0.00000000000E+00 0.  1.
         11    1    3    3    0    0 -0.15823409635E+01  0.42114242442E+02  0.28705702030E+02  0.50991475253E+02  0.00000000000E+00 0. -1.
<mgrwt>
<rscale>  0 0.91105352E+02</rscale>
<asrwt>0</asrwt>
<pdfrwt beam="1">  1        2 0.19761745E-01 0.91105352E+02</pdfrwt>
<pdfrwt beam="2">  1       -2 0.24852827E-02 0.91105352E+02</pdfrwt>
<totfact> 0.13304298E+05</totfact>
</mgrwt>
</event>
<event>
 5    1  0.1239369E+001  0.8808776E+02  0.7546771E-02  0.1307550E+00
         -2   -1    0    0    0  501 -0.00000000000E+00  0.00000000000E+00  0.48956089029E+01  0.48956089029E+01  0.00000000000E+00 0.  1.
          2   -1    0    0  501    0  0.00000000000E+00 -0.00000000000E+00 -0.39624553600E+03  0.39624553600E+03  0.00000000000E+00 0. -1.
         23    2    1    2    0    0  0.00000000000E+00  0.00000000000E+00 -0.39134992710E+03  0.40114114491E+03  0.88087755649E+02 0.  0.
        -11    1    3    3    0    0  0.12672202123E+02  0.41085467621E+02 -0.23917890453E+03  0.24301265137E+03  0.00000000000E+00 0.  1.
         11    1    3    3    0    0 -0.12672202123E+02 -0.41085467621E+02 -0.15217102257E+03  0.15812849353E+03  0.00000000000E+00 0. -1.
<mgrwt>
<rscale>  0 0.88087756E+02</rscale>
<asrwt>0</asrwt>
<pdfrwt beam="2">  1        2 0.60960838E-01 0.88087756E+02</pdfrwt>
<pdfrwt beam="1">  1       -2 0.75317077E-03 0.88087756E+02</pdfrwt>
<totfact> 0.21797372E+05</totfact>
</mgrwt>
</event>
<event>
 5    1  0.1239369E+001  0.9508351E+02  0.7546771E-02  0.1290988E+00
          3   -1    0    0  501    0  0.00000000000E+00  0.00000000000E+00  0.24348733120E+03  0.24348733120E+03  0.00000000000E+00 0. -1.
         -3   -1    0    0    0  501 -0.00000000000E+00 -0.00000000000E+00 -0.92826948975E+01  0.92826948975E+01  0.00000000000E+00 0.  1.
         23    2    1    2    0    0  0.00000000000E+00  0.00000000000E+00  0.23420463630E+03  0.25277002610E+03  0.95083512912E+02 0.  0.
        -13    1    3    3    0    0  0.36865481405E+02  0.14868044921E+02  0.47774823533E+02  0.62149466954E+02  0.00000000000E+00 0.  1.
         13    1    3    3    0    0 -0.36865481405E+02 -0.14868044921E+02  0.18642981277E+03  0.19062055914E+03  0.00000000000E+00 0. -1.
<mgrwt>
<rscale>  0 0.95083513E+02</rscale>
<asrwt>0</asrwt>
<pdfrwt beam="1">  1        3 0.37459585E-01 0.95083513E+02</pdfrwt>
<pdfrwt beam="2">  1       -3 0.14281071E-02 0.95083513E+02</pdfrwt>
<totfact> 0.23199091E+04</totfact>
</mgrwt>
</event>
<event>
 5    1  0.1239369E+001  0.9205167E+02  0.7546771E-02  0.1297958E+00
         -4   -1    0    0    0  501 -0.00000000000E+00  0.00000000000E+00  0.31511338367E+03  0.31511338367E+03  0.00000000000E+00 0.  1.
          4   -1    0    0  501    0  0.00000000000E+00 -0.00000000000E+00 -0.67225883536E+01  0.67225883536E+01  0.00000000000E+00 0. -1.
         23    2    1    2    0    0  0.00000000000E+00  0.00000000000E+00  0.30839079531E+03  0.32183597202E+03  0.92051671644E+02 0.  0.
        -13    1    3    3    0    0  0.42414678845E+02 -0.47347224040E+01  0.21444417179E+03  0.21864977793E+03  0.00000000000E+00 0.  1.
         13    1    3    3    0    0 -0.42414678845E+02  0.47347224040E+01  0.93946623527E+02  0.10318619409E+03  0.00000000000E+00 0. -1.
<mgrwt>
<rscale>  0 0.92051672E+02</rscale>
<asrwt>0</asrwt>
<pdfrwt beam="2">  1        4 0.10342446E-02 0.92051672E+02</pdfrwt>
<pdfrwt beam="1">  1       -4 0.48478971E-01 0.92051672E+02</pdfrwt>
<totfact> 0.16743278E+04</totfact>
</mgrwt>
</event>
<event>
 5    1  0.1239369E+001  0.9135078E+02  0.7546771E-02  0.1299613E+00
         -2   -1    0    0    0  501 -0.00000000000E+00  0.00000000000E+00  0.27301719937E+03  0.27301719937E+03  0.00000000000E+00 0.  1.
          2   -1    0    0  501    0  0.00000000000E+00 -0.00000000000E+00 -0.76414276628E+01  0.76414276628E+01  0.00000000000E+00 0. -1.
         23    2    1    2    0    0  0.00000000000E+00  0.00000000000E+00  0.26537577171E+03  0.28065862704E+03  0.91350778425E+02 0.  0.
        -11    1    3    3    0    0 -0.13909265261E+02 -0.42983547134E+02  0.15334067176E+03  0.15985748215E+03  0.00000000000E+00 0.  1.
         11    1    3    3    0    0  0.13909265261E+02  0.42983547134E+02  0.11203509995E+03  0.12080114489E+03  0.00000000000E+00 0. -1.
<mgrwt>
<rscale>  0 0.91350778E+02</rscale>
<asrwt>0</asrwt>
<pdfrwt beam="2">  1        2 0.11756045E-02 0.91350778E+02</pdfrwt>
<pdfrwt beam="1">  1       -2 0.42002639E-01 0.91350778E+02</pdfrwt>
<totfact> 0.53428698E+04</totfact>
</mgrwt>
</event>
<event>
 5    1  0.1239369E+001  0.8511713E+02  0.7546771E-02  0.1315127E+00
         -4   -1    0    0    0  501 -0.00000000000E+00  0.00000000000E+00  0.14953091022E+03  0.14953091022E+03  0.00000000000E+00 0.  1.
          4   -1    0    0  501    0  0.00000000000E+00 -0.00000000000E+00 -0.12112755366E+02  0.12112755366E+02  0.00000000000E+00 0. -1.
         23    2    1    2    0    0  0.00000000000E+00  0.00000000000E+00  0.13741815486E+03  0.16164366559E+03  0.85117127187E+02 0.  0.
        -11    1    3    3    0    0  0.26487876865E+02  0.13222237359E+02  0.12677217373E+03  0.13018302199E+03  0.00000000000E+00 0.  1.
         11    1    3    3    0    0 -0.26487876865E+02 -0.13222237359E+02  0.10645981126E+02  0.31460643600E+02  0.00000000000E+00 0. -1.
<mgrwt>
<rscale>  0 0.85117127E+02</rscale>
<asrwt>0</asrwt>
<pdfrwt beam="2">  1        4 0.18635009E-02 0.85117127E+02</pdfrwt>
<pdfrwt beam="1">  1       -4 0.23004754E-01 0.85117127E+02</pdfrwt>
<totfact> 0.27758955E+04</totfact>
</mgrwt>
</event>
<event>
 5    1  0.1239369E+001  0.8877598E+02  0.7546771E-02  0.1305843E+00
          1   -1    0    0  501    0  0.00000000000E+00  0.00000000000E+00  0.11231219701E+03  0.11231219701E+03  0.00000000000E+00 0. -1.
         -1   -1    0    0    0  501 -0.00000000000E+00 -0.00000000000E+00 -0.17543006317E+02  0.17543006317E+02  0.00000000000E+00 0.  1.
         23    2    1    2    0    0  0.00000000000E+00  0.00000000000E+00  0.94769190693E+02  0.12985520333E+03  0.88775978319E+02 0.  0.
        -13    1    3    3    0    0  0.27918774733E+02  0.32078680222E+02  0.65990248770E+02  0.78506131226E+02  0.00000000000E+00 0. -1.
         13    1    3    3    0    0 -0.27918774733E+02 -0.32078680222E+02  0.28778941923E+02  0.51349072101E+02  0.00000000000E+00 0.  1.
<mgrwt>
<rscale>  0 0.88775978E+02</rscale>
<asrwt>0</asrwt>
<pdfrwt beam="1">  1        1 0.17278799E-01 0.88775978E+02</pdfrwt>
<pdfrwt beam="2">  1       -1 0.26989241E-02 0.88775978E+02</pdfrwt>
<totfact> 0.11450535E+05</totfact>
</mgrwt>
</event>
<event>
 5    1  0.1239369E+001  0.9076277E+02  0.7546771E-02  0.1301015E+00
          3   -1    0    0  501    0  0.00000000000E+00  0.00000000000E+00  0.28003915792E+02  0.28003915792E+02  0.00000000000E+00 0. -1.
         -3   -1    0    0    0  501 -0.00000000000E+00 -0.00000000000E+00 -0.73542217237E+02  0.73542217237E+02  0.00000000000E+00 0.  1.
         23    2    1    2    0    0  0.00000000000E+00  0.00000000000E+00 -0.45538301445E+02  0.10154613303E+03  0.90762768990E+02 0.  0.
        -13    1    3    3    0    0 -0.98905660642E+01  0.95537422891E+01  0.25616851206E+02  0.29074393451E+02  0.00000000000E+00 0. -1.
         13    1    3    3    0    0  0.98905660642E+01 -0.95537422891E+01 -0.71155152651E+02  0.72471739579E+02  0.00000000000E+00 0.  1.
<mgrwt>
<rscale>  0 0.90762769E+02</rscale>
<asrwt>0</asrwt>
<pdfrwt beam="1">  1        3 0.43082948E-02 0.90762769E+02</pdfrwt>
<pdfrwt beam="2">  1       -3 0.11314187E-01 0.90762769E+02</pdfrwt>
<totfact> 0.34988730E+04</totfact>
</mgrwt>
</event>
<event>
 5    1  0.1239369E+001  0.9013114E+02  0.7546771E-02  0.1302534E+00
         -1   -1    0    0    0  501 -0.00000000000E+00  0.00000000000E+00  0.59751437302E+02  0.59751437302E+02  0.00000000000E+00 0.  1.
          1   -1    0    0  501    0  0.00000000000E+00 -0.00000000000E+00 -0.33989231419E+02  0.33989231419E+02  0.00000000000E+00 0. -1.
         23    2    1    2    0    0  0.00000000000E+00  0.00000000000E+00  0.25762205883E+02  0.93740668721E+02  0.90131136242E+02 0.  0.
        -11    1    3    3    0    0 -0.11989398421E+02  0.43358776085E+02  0.15667244967E+02  0.47636033661E+02  0.00000000000E+00 0.  1.
         11    1    3    3    0    0  0.11989398421E+02 -0.43358776085E+02  0.10094960916E+02  0.46104635060E+02  0.00000000000E+00 0. -1.
<mgrwt>
<rscale>  0 0.90131136E+02</rscale>
<asrwt>0</asrwt>
<pdfrwt beam="2">  1        1 0.52291125E-02 0.90131136E+02</pdfrwt>
<pdfrwt beam="1">  1       -1 0.91925288E-02 0.90131136E+02</pdfrwt>
<totfact> 0.91368775E+04</totfact>
</mgrwt>
</event>
<event>
 5    1  0.1239369E+001  0.9178593E+02  0.7546771E-02  0.1298584E+00
         -2   -1    0    0    0  501 -0.00000000000E+00  0.00000000000E+00  0.93890556774E+01  0.93890556774E+01  0.00000000000E+00 0.  1.
          2   -1    0    0  501    0  0.00000000000E+00 -0.00000000000E+00 -0.22432120347E+03  0.22432120347E+03  0.00000000000E+00 0. -1.
         23    2    1    2    0    0  0.00000000000E+00  0.00000000000E+00 -0.21493214779E+03  0.23371025914E+03  0.91785930707E+02 0.  0.
        -11    1    3    3    0    0 -0.14530765322E+02  0.30010763030E+02 -0.18775891211E+03  0.19069661276E+03  0.00000000000E+00 0. -1.
         11    1    3    3    0    0  0.14530765322E+02 -0.30010763030E+02 -0.27173235675E+02  0.43013646388E+02  0.00000000000E+00 0.  1.
<mgrwt>
<rscale>  0 0.91785931E+02</rscale>
<asrwt>0</asrwt>
<pdfrwt beam="2">  1        2 0.34510951E-01 0.91785931E+02</pdfrwt>
<pdfrwt beam="1">  1       -2 0.14444702E-02 0.91785931E+02</pdfrwt>
<totfact> 0.15842538E+05</totfact>
</mgrwt>
</event>
<event>
 5    1  0.1239369E+001  0.9077911E+02  0.7546771E-02  0.1300976E+00
          1   -1    0    0  501    0  0.00000000000E+00  0.00000000000E+00  0.11690636583E+02  0.11690636583E+02  0.00000000000E+00 0. -1.
         -1   -1    0    0    0  501 -0.00000000000E+00 -0.00000000000E+00 -0.17622752107E+03  0.17622752107E+03  0.00000000000E+00 0.  1.
         23    2    1    2    0    0  0.00000000000E+00  0.00000000000E+00 -0.16453688449E+03  0.18791815765E+03  0.90779114442E+02 0.  0.
        -11    1    3    3    0    0  0.29780598506E+02 -0.14760791240E+02 -0.14625460728E+03  0.14998391632E+03  0.00000000000E+00 0.  1.
         11    1    3    3    0    0 -0.29780598506E+02  0.14760791240E+02 -0.18282277212E+02  0.37934241333E+02  0.00000000000E+00 0. -1.
<mgrwt>
<rscale>  0 0.90779114E+02</rscale>
<asrwt>0</asrwt>
<pdfrwt beam="1">  1        1 0.17985595E-02 0.90779114E+02</pdfrwt>
<pdfrwt beam="2">  1       -1 0.27111925E-01 0.90779114E+02</pdfrwt>
<totfact> 0.72690701E+04</totfact>
</mgrwt>
</event>
<event>
 5    1  0.1239369E+001  0.9187258E+02  0.7546771E-02  0.1298379E+00
         -2   -1    0    0    0  501 -0.00000000000E+00  0.00000000000E+00  0.11004572923E+02  0.11004572923E+02  0.00000000000E+00 0.  1.
          2   -1    0    0  501    0  0.00000000000E+00 -0.00000000000E+00 -0.19175144421E+03  0.19175144421E+03  0.00000000000E+00 0. -1.
         23    2    1    2    0    0  0.00000000000E+00  0.00000000000E+00 -0.18074687129E+03  0.20275601713E+03  0.91872580260E+02 0.  0.
        -13    1    3    3    0    0 -0.31470911293E+02  0.15792416931E+02 -0.25266338442E+02  0.43338280404E+02  0.00000000000E+00 0.  1.
         13    1    3    3    0    0  0.31470911293E+02 -0.15792416931E+02 -0.15548053284E+03  0.15941773673E+03  0.00000000000E+00 0. -1.
<mgrwt>
<rscale>  0 0.91872580E+02</rscale>
<asrwt>0</asrwt>
<pdfrwt beam="2">  1        2 0.29500221E-01 0.91872580E+02</pdfrwt>
<pdfrwt beam="1">  1       -2 0.16930113E-02 0.91872580E+02</pdfrwt>
<totfact> 0.14925587E+05</totfact>
</mgrwt>
</event>
<event>
 5    1  0.1239369E+001  0.9236341E+02  0.7546771E-02  0.1297227E+00
          1   -1    0    0  501    0  0.00000000000E+00  0.00000000000E+00  0.89896023027E+02  0.89896023027E+02  0.00000000000E+00 0. -1.
         -1   -1    0    0    0  501 -0.00000000000E+00 -0.00000000000E+00 -0.23724631533E+02  0.23724631533E+02  0.00000000000E+00 0.  1.
         23    2    1    2    0    0  0.00000000000E+00  0.00000000000E+00  0.66171391494E+02  0.11362065456E+03  0.92363413158E+02 0.  0.
        -11    1    3    3    0    0  0.13834618564E+02 -0.33316346850E+02  0.68555242038E+02  0.77467392167E+02  0.00000000000E+00 0. -1.
         11    1    3    3    0    0 -0.13834618564E+02  0.33316346850E+02 -0.23838505438E+01  0.36153262393E+02  0.00000000000E+00 0.  1.
<mgrwt>
<rscale>  0 0.92363413E+02</rscale>
<asrwt>0</asrwt>
<pdfrwt beam="1">  1        1 0.13830157E-01 0.92363413E+02</pdfrwt>
<pdfrwt beam="2">  1       -1 0.36499433E-02 0.92363413E+02</pdfrwt>
<totfact> 0.99068927E+04</totfact>
</mgrwt>
</event>
<event>
 5    1  0.1239369E+001  0.8880721E+02  0.7546771E-02  0.1305766E+00
          1   -1    0    0  501    0  0.00000000000E+00  0.00000000000E+00  0.28142918324E+03  0.28142918324E+03  0.00000000000E+00 0. -1.
         -1   -1    0    0    0  501 -0.00000000000E+00 -0.00000000000E+00 -0.70059545480E+01  0.70059545480E+01  0.00000000000E+00 0.  1.
         23    2    1    2    0    0  0.00000000000E+00  0.00000000000E+00  0.27442322869E+03  0.28843513779E+03  0.88807208407E+02 0.  0.
        -13    1    3    3    0    0  0.42517950480E+02 -0.38564907533E+01  0.97562007523E+02  0.10649410287E+03  0.00000000000E+00 0.  1.
         13    1    3    3    0    0 -0.42517950480E+02  0.38564907533E+01  0.17686122117E+03  0.18194103492E+03  0.00000000000E+00 0. -1.
<mgrwt>
<rscale>  0 0.88807208E+02</rscale>
<asrwt>0</asrwt>
<pdfrwt beam="1">  1        1 0.43296789E-01 0.88807208E+02</pdfrwt>
<pdfrwt beam="2">  1       -1 0.10778394E-02 0.88807208E+02</pdfrwt>
<totfact> 0.13574678E+05</totfact>
</mgrwt>
</event>
<event>
 5    1  0.1239369E+001  0.9211000E+02  0.7546771E-02  0.1297821E+00
         -1   -1    0    0    0  501 -0.00000000000E+00  0.00000000000E+00  0.12147169630E+02  0.12147169630E+02  0.00000000000E+00 0.  1.
          1   -1    0    0  501    0  0.00000000000E+00 -0.00000000000E+00 -0.17461376398E+03  0.17461376398E+03  0.00000000000E+00 0. -1.
         23    2    1    2    0    0  0.00000000000E+00  0.00000000000E+00 -0.16246659435E+03  0.18676093361E+03  0.92109999692E+02 0.  0.
        -11    1    3    3    0    0  0.24877113961E+02  0.15871485643E+02 -0.95390491649E+01  0.31012389694E+02  0.00000000000E+00 0.  1.
         11    1    3    3    0    0 -0.24877113961E+02 -0.15871485643E+02 -0.15292754519E+03  0.15574854392E+03  0.00000000000E+00 0. -1.
<mgrwt>
<rscale>  0 0.92110000E+02</rscale>
<asrwt>0</asrwt>
<pdfrwt beam="2">  1        1 0.26863656E-01 0.92110000E+02</pdfrwt>
<pdfrwt beam="1">  1       -1 0.18687953E-02 0.92110000E+02</pdfrwt>
<totfact> 0.11223733E+05</totfact>
</mgrwt>
</event>
<event>
 5    1  0.1239369E+001  0.8973840E+02  0.7546771E-02  0.1303486E+00
          4   -1    0    0  501    0  0.00000000000E+00  0.00000000000E+00  0.15159741097E+02  0.15159741097E+02  0.00000000000E+00 0. -1.
         -4   -1    0    0    0  501 -0.00000000000E+00 -0.00000000000E+00 -0.13280207918E+03  0.13280207918E+03  0.00000000000E+00 0.  1.
         23    2    1    2    0    0  0.00000000000E+00  0.00000000000E+00 -0.11764233808E+03  0.14796182028E+03  0.89738400644E+02 0.  0.
        -13    1    3    3    0    0  0.68087171806E+01 -0.43560378954E+02 -0.45087450136E+02  0.63061425642E+02  0.00000000000E+00 0.  1.
         13    1    3    3    0    0 -0.68087171806E+01  0.43560378954E+02 -0.72554887946E+02  0.84900394635E+02  0.00000000000E+00 0. -1.
<mgrwt>
<rscale>  0 0.89738401E+02</rscale>
<asrwt>0</asrwt>
<pdfrwt beam="1">  1        4 0.23322678E-02 0.89738401E+02</pdfrwt>
<pdfrwt beam="2">  1       -4 0.20431090E-01 0.89738401E+02</pdfrwt>
<totfact> 0.24812644E+04</totfact>
</mgrwt>
</event>
<event>
 5    1  0.1239369E+001  0.9111455E+02  0.7546771E-02  0.1300175E+00
          1   -1    0    0  501    0  0.00000000000E+00  0.00000000000E+00  0.11032652545E+03  0.11032652545E+03  0.00000000000E+00 0. -1.
         -1   -1    0    0    0  501 -0.00000000000E+00 -0.00000000000E+00 -0.18812025942E+02  0.18812025942E+02  0.00000000000E+00 0.  1.
         23    2    1    2    0    0  0.00000000000E+00  0.00000000000E+00  0.91514499512E+02  0.12913855140E+03  0.91114553371E+02 0.  0.
        -13    1    3    3    0    0  0.24081310500E+02 -0.19693767837E+02  0.92928944836E+02  0.97997667296E+02  0.00000000000E+00 0. -1.
         13    1    3    3    0    0 -0.24081310500E+02  0.19693767837E+02 -0.14144453245E+01  0.31140884101E+02  0.00000000000E+00 0.  1.
<mgrwt>
<rscale>  0 0.91114553E+02</rscale>
<asrwt>0</asrwt>
<pdfrwt beam="1">  1        1 0.16973311E-01 0.91114553E+02</pdfrwt>
<pdfrwt beam="2">  1       -1 0.28941579E-02 0.91114553E+02</pdfrwt>
<totfact> 0.10639090E+05</totfact>
</mgrwt>
</event>
<event>
 5    1  0.1239369E+001  0.9019356E+02  0.7546771E-02  0.1302384E+00
         -4   -1    0    0    0  501 -0.00000000000E+00  0.00000000000E+00  0.65966474241E+02  0.65966474241E+02  0.00000000000E+00 0.  1.
          4   -1    0    0  501    0  0.00000000000E+00 -0.00000000000E+00 -0.30829591603E+02  0.30829591603E+02  0.00000000000E+00 0. -1.
         23    2    1    2    0    0  0.00000000000E+00  0.00000000000E+00  0.35136882638E+02  0.96796065843E+02  0.90193557648E+02 0.  0.
        -11    1    3    3    0    0 -0.38543709705E+02 -0.95311509535E+01 -0.53805366999E+01  0.40067575064E+02  0.00000000000E+00 0. -1.
         11    1    3    3    0    0  0.38543709705E+02  0.95311509535E+01  0.40517419338E+02  0.56728490780E+02  0.00000000000E+00 0.  1.
<mgrwt>
<rscale>  0 0.90193558E+02</rscale>
<asrwt>0</asrwt>
<pdfrwt beam="2">  1        4 0.47430141E-02 0.90193558E+02</pdfrwt>
<pdfrwt beam="1">  1       -4 0.10148688E-01 0.90193558E+02</pdfrwt>
<totfact> 0.27451779E+04</totfact>
</mgrwt>
</event>
<event>
 5    1  0.1239369E+001  0.9847076E+02  0.7546771E-02  0.1283545E+00
          1   -1    0    0  501    0  0.00000000000E+00  0.00000000000E+00  0.69104215060E+02  0.69104215060E+02  0.00000000000E+00 0. -1.
         -1   -1    0    0    0  501 -0.00000000000E+00 -0.00000000000E+00 -0.35079229370E+02  0.35079229370E+02  0.00000000000E+00 0.  1.
         23    2    1    2    0    0  0.00000000000E+00  0.00000000000E+00  0.34024985690E+02  0.10418344443E+03  0.98470759325E+02 0.  0.
        -13    1    3    3    0    0 -0.13340830181E+02  0.45199628701E+02  0.19329746305E+01  0.47166943674E+02  0.00000000000E+00 0.  1.
         13    1    3    3    0    0  0.13340830181E+02 -0.45199628701E+02  0.32092011060E+02  0.57016500756E+02  0.00000000000E+00 0. -1.
<mgrwt>
<rscale>  0 0.98470759E+02</rscale>
<asrwt>0</asrwt>
<pdfrwt beam="1">  1        1 0.10631418E-01 0.98470759E+02</pdfrwt>
<pdfrwt beam="2">  1       -1 0.53968045E-02 0.98470759E+02</pdfrwt>
<totfact> 0.79525368E+04</totfact>
</mgrwt>
</event>
<event>
 5    1  0.1239369E+001  0.9129062E+02  0.7546771E-02  0.1299756E+00
          3   -1    0    0  501    0  0.00000000000E+00  0.00000000000E+00  0.74149073904E+02  0.74149073904E+02  0.00000000000E+00 0. -1.
         -3   -1    0    0    0  501 -0.00000000000E+00 -0.00000000000E+00 -0.28098724396E+02  0.28098724396E+02  0.00000000000E+00 0.  1.
         23    2    1    2    0    0  0.00000000000E+00  0.00000000000E+00  0.46050349508E+02  0.10224779830E+03  0.91290621464E+02 0.  0.
        -13    1    3    3    0    0 -0.13371454768E+02 -0.44605236662E+01  0.71650296885E+02  0.73023675050E+02  0.00000000000E+00 0. -1.
         13    1    3    3    0    0  0.13371454768E+02  0.44605236662E+01 -0.25599947377E+02  0.29224123250E+02  0.00000000000E+00 0.  1.
<mgrwt>
<rscale>  0 0.91290621E+02</rscale>
<asrwt>0</asrwt>
<pdfrwt beam="1">  1        3 0.11407550E-01 0.91290621E+02</pdfrwt>
<pdfrwt beam="2">  1       -3 0.43228807E-02 0.91290621E+02</pdfrwt>
<totfact> 0.34388200E+04</totfact>
</mgrwt>
</event>
<event>
 5    1  0.1239369E+001  0.9249797E+02  0.7546771E-02  0.1296913E+00
         -1   -1    0    0    0  501 -0.00000000000E+00  0.00000000000E+00  0.24658207108E+03  0.24658207108E+03  0.00000000000E+00 0.  1.
          1   -1    0    0  501    0  0.00000000000E+00 -0.00000000000E+00 -0.86744684138E+01  0.86744684138E+01  0.00000000000E+00 0. -1.
         23    2    1    2    0    0  0.00000000000E+00  0.00000000000E+00  0.23790760266E+03  0.25525653949E+03  0.92497965101E+02 0.  0.
        -13    1    3    3    0    0  0.14106566728E+02 -0.34450575353E+02  0.19468589553E+03  0.19821310574E+03  0.00000000000E+00 0.  1.
         13    1    3    3    0    0 -0.14106566728E+02  0.34450575353E+02  0.43221707130E+02  0.57043433752E+02  0.00000000000E+00 0. -1.
<mgrwt>
<rscale>  0 0.92497965E+02</rscale>
<asrwt>0</asrwt>
<pdfrwt beam="2">  1        1 0.13345338E-02 0.92497965E+02</pdfrwt>
<pdfrwt beam="1">  1       -1 0.37935698E-01 0.92497965E+02</pdfrwt>
<totfact> 0.62664826E+04</totfact>
</mgrwt>
</event>
<event>
 5    1  0.1239369E+001  0.8691477E+02  0.7546771E-02  0.1310500E+00
          1   -1    0    0  501    0  0.00000000000E+00  0.00000000000E+00  0.20364940457E+02  0.20364940457E+02  0.00000000000E+00 0. -1.
         -1   -1    0    0    0  501 -0.00000000000E+00 -0.00000000000E+00 -0.92735074773E+02  0.92735074773E+02  0.00000000000E+00 0.  1.
         23    2    1    2    0    0  0.00000000000E+00  0.00000000000E+00 -0.72370134316E+02  0.11310001523E+03  0.86914769194E+02 0.  0.
        -13    1    3    3    0    0  0.39043848823E+01  0.19904660136E+02  0.13826988008E+02  0.24548427930E+02  0.00000000000E+00 0. -1.
         13    1    3    3    0    0 -0.39043848823E+01 -0.19904660136E+02 -0.86197122324E+02  0.88551587300E+02  0.00000000000E+00 0.  1.
<mgrwt>
<rscale>  0 0.86914769E+02</rscale>
<asrwt>0</asrwt>
<pdfrwt beam="1">  1        1 0.31330677E-02 0.86914769E+02</pdfrwt>
<pdfrwt beam="2">  1       -1 0.14266935E-01 0.86914769E+02</pdfrwt>
<totfact> 0.93284384E+04</totfact>
</mgrwt>
</event>
<event>
 5    1  0.1239369E+001  0.8681218E+02  0.7546771E-02  0.1310760E+00
         -4   -1    0    0    0  501 -0.00000000000E+00  0.00000000000E+00  0.10963740436E+03  0.10963740436E+03  0.00000000000E+00 0. -1.
          4   -1    0    0  501    0  0.00000000000E+00 -0.00000000000E+00 -0.17184724837E+02  0.17184724837E+02  0.00000000000E+00 0.  1.
         23    2    1    2    0    0  0.00000000000E+00  0.00000000000E+00  0.92452679520E+02  0.12682212919E+03  0.86812179461E+02 0.  0.
        -13    1    3    3    0    0  0.29762280352E+02  0.26180100849E+02  0.20384971447E+02  0.44572840084E+02  0.00000000000E+00 0.  1.
         13    1    3    3    0    0 -0.29762280352E+02 -0.26180100849E+02  0.72067708073E+02  0.82249289110E+02  0.00000000000E+00 0. -1.
<mgrwt>
<rscale>  0 0.86812179E+02</rscale>
<asrwt>0</asrwt>
<pdfrwt beam="2">  1        4 0.26438039E-02 0.86812179E+02</pdfrwt>
<pdfrwt beam="1">  1       -4 0.16867293E-01 0.86812179E+02</pdfrwt>
<totfact> 0.28395768E+04</totfact>
</mgrwt>
</event>
<event>
 5    1  0.1239369E+001  0.9132245E+02  0.7546771E-02  0.1299680E+00
         -2   -1    0    0    0  501 -0.00000000000E+00  0.00000000000E+00  0.28509539258E+03  0.28509539258E+03  0.00000000000E+00 0.  1.
          2   -1    0    0  501    0  0.00000000000E+00 -0.00000000000E+00 -0.73131572969E+01  0.73131572969E+01  0.00000000000E+00 0. -1.
         23    2    1    2    0    0  0.00000000000E+00  0.00000000000E+00  0.27778223528E+03  0.29240854987E+03  0.91322449606E+02 0.  0.
        -13    1    3    3    0    0  0.11014263374E+02 -0.43143839407E+02  0.17126750609E+03  0.17696119213E+03  0.00000000000E+00 0.  1.
         13    1    3    3    0    0 -0.11014263374E+02  0.43143839407E+02  0.10651472919E+03  0.11544735774E+03  0.00000000000E+00 0. -1.
<mgrwt>
<rscale>  0 0.91322450E+02</rscale>
<asrwt>0</asrwt>
<pdfrwt beam="2">  1        2 0.11251013E-02 0.91322450E+02</pdfrwt>
<pdfrwt beam="1">  1       -2 0.43860821E-01 0.91322450E+02</pdfrwt>
<totfact> 0.52244051E+04</totfact>
</mgrwt>
</event>
<event>
 5    1  0.1239369E+001  0.9150969E+02  0.7546771E-02  0.1299236E+00
          1   -1    0    0  501    0  0.00000000000E+00  0.00000000000E+00  0.12059965005E+03  0.12059965005E+03  0.00000000000E+00 0. -1.
         -1   -1    0    0    0  501 -0.00000000000E+00 -0.00000000000E+00 -0.17359136744E+02  0.17359136744E+02  0.00000000000E+00 0.  1.
         23    2    1    2    0    0  0.00000000000E+00  0.00000000000E+00  0.10324051330E+03  0.13795878679E+03  0.91509689463E+02 0.  0.
        -11    1    3    3    0    0 -0.59324836289E+01 -0.38225727603E+02  0.14781266811E+02  0.41411187635E+02  0.00000000000E+00 0. -1.
         11    1    3    3    0    0  0.59324836289E+01  0.38225727603E+02  0.88459246491E+02  0.96547599155E+02  0.00000000000E+00 0.  1.
<mgrwt>
<rscale>  0 0.91509689E+02</rscale>
<asrwt>0</asrwt>
<pdfrwt beam="1">  1        1 0.18553792E-01 0.91509689E+02</pdfrwt>
<pdfrwt beam="2">  1       -1 0.26706365E-02 0.91509689E+02</pdfrwt>
<totfact> 0.10677065E+05</totfact>
</mgrwt>
</event>
<event>
 5    1  0.1239369E+001  0.9234597E+02  0.7546771E-02  0.1297268E+00
         -1   -1    0    0    0  501 -0.00000000000E+00  0.00000000000E+00  0.45765210800E+02  0.45765210800E+02  0.00000000000E+00 0.  1.
          1   -1    0    0  501    0  0.00000000000E+00 -0.00000000000E+00 -0.46584395285E+02  0.46584395285E+02  0.00000000000E+00 0. -1.
         23    2    1    2    0    0  0.00000000000E+00  0.00000000000E+00 -0.81918448498E+00  0.92349606086E+02  0.92345972738E+02 0.  0.
        -13    1    3    3    0    0  0.31345873913E+02 -0.52001943583E+01 -0.33912236257E+02  0.46471987269E+02  0.00000000000E+00 0. -1.
         13    1    3    3    0    0 -0.31345873913E+02  0.52001943583E+01  0.33093051772E+02  0.45877618817E+02  0.00000000000E+00 0.  1.
<mgrwt>
<rscale>  0 0.92345973E+02</rscale>
<asrwt>0</asrwt>
<pdfrwt beam="2">  1        1 0.71668300E-02 0.92345973E+02</pdfrwt>
<pdfrwt beam="1">  1       -1 0.70408017E-02 0.92345973E+02</pdfrwt>
<totfact> 0.89510620E+04</totfact>
</mgrwt>
</event>
<event>
 5    1  0.1239369E+001  0.9986743E+02  0.7546771E-02  0.1280575E+00
         -1   -1    0    0    0  501 -0.00000000000E+00  0.00000000000E+00  0.41705166732E+03  0.41705166732E+03  0.00000000000E+00 0.  1.
          1   -1    0    0  501    0  0.00000000000E+00 -0.00000000000E+00 -0.59785773652E+01  0.59785773652E+01  0.00000000000E+00 0. -1.
         23    2    1    2    0    0  0.00000000000E+00  0.00000000000E+00  0.41107308995E+03  0.42303024468E+03  0.99867425286E+02 0.  0.
        -13    1    3    3    0    0  0.47372202865E+02  0.14521801353E+02  0.17929868512E+03  0.18601888830E+03  0.00000000000E+00 0. -1.
         13    1    3    3    0    0 -0.47372202865E+02 -0.14521801353E+02  0.23177440483E+03  0.23701135638E+03  0.00000000000E+00 0.  1.
<mgrwt>
<rscale>  0 0.99867425E+02</rscale>
<asrwt>0</asrwt>
<pdfrwt beam="2">  1        1 0.91978146E-03 0.99867425E+02</pdfrwt>
<pdfrwt beam="1">  1       -1 0.64161772E-01 0.99867425E+02</pdfrwt>
<totfact> 0.41050641E+04</totfact>
</mgrwt>
</event>
<event>
 5    1  0.1239369E+001  0.9021940E+02  0.7546771E-02  0.1302321E+00
         -4   -1    0    0    0  501 -0.00000000000E+00  0.00000000000E+00  0.41600555950E+03  0.41600555950E+03  0.00000000000E+00 0. -1.
          4   -1    0    0  501    0  0.00000000000E+00 -0.00000000000E+00 -0.48914856853E+01  0.48914856853E+01  0.00000000000E+00 0.  1.
         23    2    1    2    0    0  0.00000000000E+00  0.00000000000E+00  0.41111407382E+03  0.42089704519E+03  0.90219404549E+02 0.  0.
        -11    1    3    3    0    0 -0.42052764540E+02 -0.12411483938E+02  0.15609530541E+03  0.16213643733E+03  0.00000000000E+00 0.  1.
         11    1    3    3    0    0  0.42052764540E+02  0.12411483938E+02  0.25501876840E+03  0.25876060786E+03  0.00000000000E+00 0. -1.
<mgrwt>
<rscale>  0 0.90219405E+02</rscale>
<asrwt>0</asrwt>
<pdfrwt beam="2">  1        4 0.75253659E-03 0.90219405E+02</pdfrwt>
<pdfrwt beam="1">  1       -4 0.64000828E-01 0.90219405E+02</pdfrwt>
<totfact> 0.15088238E+04</totfact>
</mgrwt>
</event>
<event>
 5    1  0.1239369E+001  0.9109867E+02  0.7546771E-02  0.1300213E+00
         -4   -1    0    0    0  501 -0.00000000000E+00  0.00000000000E+00  0.26003693042E+02  0.26003693042E+02  0.00000000000E+00 0. -1.
          4   -1    0    0  501    0  0.00000000000E+00 -0.00000000000E+00 -0.79786434061E+02  0.79786434061E+02  0.00000000000E+00 0.  1.
         23    2    1    2    0    0  0.00000000000E+00  0.00000000000E+00 -0.53782741019E+02  0.10579012710E+03  0.91098670467E+02 0.  0.
        -11    1    3    3    0    0  0.25632652214E+02  0.13159368247E+01  0.16806599238E+02  0.30679412107E+02  0.00000000000E+00 0. -1.
         11    1    3    3    0    0 -0.25632652214E+02 -0.13159368247E+01 -0.70589340257E+02  0.75110714996E+02  0.00000000000E+00 0.  1.
<mgrwt>
<rscale>  0 0.91098670E+02</rscale>
<asrwt>0</asrwt>
<pdfrwt beam="2">  1        4 0.12274836E-01 0.91098670E+02</pdfrwt>
<pdfrwt beam="1">  1       -4 0.40005682E-02 0.91098670E+02</pdfrwt>
<totfact> 0.26165283E+04</totfact>
</mgrwt>
</event>
<event>
 5    1  0.1239369E+001  0.9065179E+02  0.7546771E-02  0.1301281E+00
          4   -1    0    0  501    0  0.00000000000E+00  0.00000000000E+00  0.50622163771E+02  0.50622163771E+02  0.00000000000E+00 0. -1.
         -4   -1    0    0    0  501 -0.00000000000E+00 -0.00000000000E+00 -0.40583744110E+02  0.40583744110E+02  0.00000000000E+00 0.  1.
         23    2    1    2    0    0  0.00000000000E+00  0.00000000000E+00  0.10038419661E+02  0.91205907881E+02  0.90651794043E+02 0.  0.
        -13    1    3    3    0    0 -0.44219158335E+02  0.69173881646E+01 -0.21836508996E+01  0.44810183599E+02  0.00000000000E+00 0.  1.
         13    1    3    3    0    0  0.44219158335E+02 -0.69173881646E+01  0.12222070561E+02  0.46395724282E+02  0.00000000000E+00 0. -1.
<mgrwt>
<rscale>  0 0.90651794E+02</rscale>
<asrwt>0</asrwt>
<pdfrwt beam="1">  1        4 0.77880252E-02 0.90651794E+02</pdfrwt>
<pdfrwt beam="2">  1       -4 0.62436529E-02 0.90651794E+02</pdfrwt>
<totfact> 0.27440904E+04</totfact>
</mgrwt>
</event>
<event>
 5    1  0.1239369E+001  0.9013208E+02  0.7546771E-02  0.1302532E+00
         -2   -1    0    0    0  501 -0.00000000000E+00  0.00000000000E+00  0.30977145559E+03  0.30977145559E+03  0.00000000000E+00 0.  1.
          2   -1    0    0  501    0  0.00000000000E+00 -0.00000000000E+00 -0.65562779086E+01  0.65562779086E+01  0.00000000000E+00 0. -1.
         23    2    1    2    0    0  0.00000000000E+00  0.00000000000E+00  0.30321517768E+03  0.31632773350E+03  0.90132075334E+02 0.  0.
        -13    1    3    3    0    0  0.23496017321E+02 -0.38432216179E+02  0.15638075189E+03  0.16273917055E+03  0.00000000000E+00 0.  1.
         13    1    3    3    0    0 -0.23496017321E+02  0.38432216179E+02  0.14683442579E+03  0.15358856295E+03  0.00000000000E+00 0. -1.
<mgrwt>
<rscale>  0 0.90132075E+02</rscale>
<asrwt>0</asrwt>
<pdfrwt beam="2">  1        2 0.10086584E-02 0.90132075E+02</pdfrwt>
<pdfrwt beam="1">  1       -2 0.47657136E-01 0.90132075E+02</pdfrwt>
<totfact> 0.51588892E+04</totfact>
</mgrwt>
</event>
<event>
 5    1  0.1239369E+001  0.9134024E+02  0.7546771E-02  0.1299638E+00
          3   -1    0    0  501    0  0.00000000000E+00  0.00000000000E+00  0.71992773537E+02  0.71992773537E+02  0.00000000000E+00 0. -1.
         -3   -1    0    0    0  501 -0.00000000000E+00 -0.00000000000E+00 -0.28971793061E+02  0.28971793061E+02  0.00000000000E+00 0.  1.
         23    2    1    2    0    0  0.00000000000E+00  0.00000000000E+00  0.43020980476E+02  0.10096456660E+03  0.91340237284E+02 0.  0.
        -13    1    3    3    0    0 -0.33037521583E+02  0.20539648071E+02 -0.49354169077E+01  0.39213687857E+02  0.00000000000E+00 0.  1.
         13    1    3    3    0    0  0.33037521583E+02 -0.20539648071E+02  0.47956397384E+02  0.61750878741E+02  0.00000000000E+00 0. -1.
<mgrwt>
<rscale>  0 0.91340237E+02</rscale>
<asrwt>0</asrwt>
<pdfrwt beam="1">  1        3 0.11075811E-01 0.91340237E+02</pdfrwt>
<pdfrwt beam="2">  1       -3 0.44571990E-02 0.91340237E+02</pdfrwt>
<totfact> 0.34431194E+04</totfact>
</mgrwt>
</event>
<event>
 5    1  0.1239369E+001  0.8740364E+02  0.7546771E-02  0.1309264E+00
         -1   -1    0    0    0  501 -0.00000000000E+00  0.00000000000E+00  0.73964601901E+02  0.73964601901E+02  0.00000000000E+00 0.  1.
          1   -1    0    0  501    0  0.00000000000E+00 -0.00000000000E+00 -0.25821121639E+02  0.25821121639E+02  0.00000000000E+00 0. -1.
         23    2    1    2    0    0  0.00000000000E+00  0.00000000000E+00  0.48143480262E+02  0.99785723540E+02  0.87403637972E+02 0.  0.
        -13    1    3    3    0    0  0.28638641067E+02  0.27733495670E+02  0.44511394137E+02  0.59754353417E+02  0.00000000000E+00 0.  1.
         13    1    3    3    0    0 -0.28638641067E+02 -0.27733495670E+02  0.36320861249E+01  0.40031370123E+02  0.00000000000E+00 0. -1.
<mgrwt>
<rscale>  0 0.87403638E+02</rscale>
<asrwt>0</asrwt>
<pdfrwt beam="2">  1        1 0.39724803E-02 0.87403638E+02</pdfrwt>
<pdfrwt beam="1">  1       -1 0.11379169E-01 0.87403638E+02</pdfrwt>
<totfact> 0.95526592E+04</totfact>
</mgrwt>
</event>
<event>
 5    1  0.1239369E+001  0.8075585E+02  0.7546771E-02  0.1326920E+00
          2   -1    0    0  501    0  0.00000000000E+00  0.00000000000E+00  0.18370536043E+03  0.18370536043E+03  0.00000000000E+00 0.  1.
         -2   -1    0    0    0  501 -0.00000000000E+00 -0.00000000000E+00 -0.88749552108E+01  0.88749552108E+01  0.00000000000E+00 0. -1.
         23    2    1    2    0    0  0.00000000000E+00  0.00000000000E+00  0.17483040522E+03  0.19258031564E+03  0.80755850458E+02 0.  0.
        -13    1    3    3    0    0 -0.31437562022E+02  0.74058964205E+01  0.14520276013E+03  0.14875150136E+03  0.00000000000E+00 0.  1.
         13    1    3    3    0    0  0.31437562022E+02 -0.74058964205E+01  0.29627645090E+02  0.43828814281E+02  0.00000000000E+00 0. -1.
<mgrwt>
<rscale>  0 0.80755850E+02</rscale>
<asrwt>0</asrwt>
<pdfrwt beam="1">  1        2 0.28262360E-01 0.80755850E+02</pdfrwt>
<pdfrwt beam="2">  1       -2 0.13653779E-02 0.80755850E+02</pdfrwt>
<totfact> 0.20763255E+05</totfact>
</mgrwt>
</event>
<event>
 5    1  0.1239369E+001  0.8647183E+02  0.7546771E-02  0.1311628E+00
         -1   -1    0    0    0  501 -0.00000000000E+00  0.00000000000E+00  0.13501322797E+02  0.13501322797E+02  0.00000000000E+00 0.  1.
          1   -1    0    0  501    0  0.00000000000E+00 -0.00000000000E+00 -0.13845637778E+03  0.13845637778E+03  0.00000000000E+00 0. -1.
         23    2    1    2    0    0  0.00000000000E+00  0.00000000000E+00 -0.12495505499E+03  0.15195770058E+03  0.86471827776E+02 0.  0.
        -13    1    3    3    0    0  0.49195752212E+01 -0.38030766995E+02 -0.27383988317E+02  0.47121378107E+02  0.00000000000E+00 0.  1.
         13    1    3    3    0    0 -0.49195752212E+01  0.38030766995E+02 -0.97571066670E+02  0.10483632247E+03  0.00000000000E+00 0. -1.
<mgrwt>
<rscale>  0 0.86471828E+02</rscale>
<asrwt>0</asrwt>
<pdfrwt beam="2">  1        1 0.21300981E-01 0.86471828E+02</pdfrwt>
<pdfrwt beam="1">  1       -1 0.20771266E-02 0.86471828E+02</pdfrwt>
<totfact> 0.12745113E+05</totfact>
</mgrwt>
</event>
<event>
 5    1  0.1239369E+001  0.8963803E+02  0.7546771E-02  0.1303731E+00
         -1   -1    0    0    0  501 -0.00000000000E+00  0.00000000000E+00  0.26856542383E+02  0.26856542383E+02  0.00000000000E+00 0.  1.
          1   -1    0    0  501    0  0.00000000000E+00 -0.00000000000E+00 -0.74795336923E+02  0.74795336923E+02  0.00000000000E+00 0. -1.
         23    2    1    2    0    0  0.00000000000E+00  0.00000000000E+00 -0.47938794540E+02  0.10165187931E+03  0.89638030682E+02 0.  0.
        -13    1    3    3    0    0 -0.90033903035E+01  0.14044301631E+02 -0.71143262819E+02  0.73073027101E+02  0.00000000000E+00 0. -1.
         13    1    3    3    0    0  0.90033903035E+01 -0.14044301631E+02  0.23204468279E+02  0.28578852205E+02  0.00000000000E+00 0.  1.
<mgrwt>
<rscale>  0 0.89638031E+02</rscale>
<asrwt>0</asrwt>
<pdfrwt beam="2">  1        1 0.11506975E-01 0.89638031E+02</pdfrwt>
<pdfrwt beam="1">  1       -1 0.41317758E-02 0.89638031E+02</pdfrwt>
<totfact> 0.10445616E+05</totfact>
</mgrwt>
</event>
<event>
 5    1  0.1239369E+001  0.8733659E+02  0.7546771E-02  0.1309433E+00
         -1   -1    0    0    0  501 -0.00000000000E+00  0.00000000000E+00  0.14278427825E+03  0.14278427825E+03  0.00000000000E+00 0.  1.
          1   -1    0    0  501    0  0.00000000000E+00 -0.00000000000E+00 -0.13355250919E+02  0.13355250919E+02  0.00000000000E+00 0. -1.
         23    2    1    2    0    0  0.00000000000E+00  0.00000000000E+00  0.12942902734E+03  0.15613952917E+03  0.87336587140E+02 0.  0.
        -13    1    3    3    0    0 -0.12036557157E+02 -0.39562034759E+02  0.39628902576E+02  0.57275502807E+02  0.00000000000E+00 0. -1.
         13    1    3    3    0    0  0.12036557157E+02  0.39562034759E+02  0.89800124761E+02  0.98864026367E+02  0.00000000000E+00 0.  1.
<mgrwt>
<rscale>  0 0.87336587E+02</rscale>
<asrwt>0</asrwt>
<pdfrwt beam="2">  1        1 0.20546541E-02 0.87336587E+02</pdfrwt>
<pdfrwt beam="1">  1       -1 0.21966811E-01 0.87336587E+02</pdfrwt>
<totfact> 0.84556831E+04</totfact>
</mgrwt>
</event>
<event>
 5    1  0.1239369E+001  0.9069253E+02  0.7546771E-02  0.1301183E+00
          2   -1    0    0  501    0  0.00000000000E+00  0.00000000000E+00  0.21746848571E+03  0.21746848571E+03  0.00000000000E+00 0. -1.
         -2   -1    0    0    0  501 -0.00000000000E+00 -0.00000000000E+00 -0.94555487457E+01  0.94555487457E+01  0.00000000000E+00 0.  1.
         23    2    1    2    0    0  0.00000000000E+00  0.00000000000E+00  0.20801293696E+03  0.22692403446E+03  0.90692532599E+02 0.  0.
        -11    1    3    3    0    0  0.25267703646E+01 -0.39415664869E+02  0.48264391889E+02  0.62365300688E+02  0.00000000000E+00 0.  1.
         11    1    3    3    0    0 -0.25267703646E+01  0.39415664869E+02  0.15974854507E+03  0.16455873377E+03  0.00000000000E+00 0. -1.
<mgrwt>
<rscale>  0 0.90692533E+02</rscale>
<asrwt>0</asrwt>
<pdfrwt beam="1">  1        2 0.33456686E-01 0.90692533E+02</pdfrwt>
<pdfrwt beam="2">  1       -2 0.14547000E-02 0.90692533E+02</pdfrwt>
<totfact> 0.16176028E+05</totfact>
</mgrwt>
</event>
<event>
 5    1  0.1239369E+001  0.8993211E+02  0.7546771E-02  0.1303016E+00
          4   -1    0    0  501    0  0.00000000000E+00  0.00000000000E+00  0.16581829540E+03  0.16581829540E+03  0.00000000000E+00 0. -1.
         -4   -1    0    0    0  501 -0.00000000000E+00 -0.00000000000E+00 -0.12193744715E+02  0.12193744715E+02  0.00000000000E+00 0.  1.
         23    2    1    2    0    0  0.00000000000E+00  0.00000000000E+00  0.15362455069E+03  0.17801204012E+03  0.89932106908E+02 0.  0.
        -11    1    3    3    0    0  0.27811821136E+02  0.24740636171E+02  0.12674467750E+03  0.13209772802E+03  0.00000000000E+00 0. -1.
         11    1    3    3    0    0 -0.27811821136E+02 -0.24740636171E+02  0.26879873190E+02  0.45914312101E+02  0.00000000000E+00 0.  1.
<mgrwt>
<rscale>  0 0.89932107E+02</rscale>
<asrwt>0</asrwt>
<pdfrwt beam="1">  1        4 0.25510505E-01 0.89932107E+02</pdfrwt>
<pdfrwt beam="2">  1       -4 0.18759609E-02 0.89932107E+02</pdfrwt>
<totfact> 0.23177685E+04</totfact>
</mgrwt>
</event>
<event>
 5    1  0.1239369E+001  0.9210494E+02  0.7546771E-02  0.1297833E+00
          1   -1    0    0  501    0  0.00000000000E+00  0.00000000000E+00  0.49120298254E+02  0.49120298254E+02  0.00000000000E+00 0. -1.
         -1   -1    0    0    0  501 -0.00000000000E+00 -0.00000000000E+00 -0.43176245766E+02  0.43176245766E+02  0.00000000000E+00 0.  1.
         23    2    1    2    0    0  0.00000000000E+00  0.00000000000E+00  0.59440524882E+01  0.92296544020E+02  0.92104941659E+02 0.  0.
        -11    1    3    3    0    0 -0.16037514735E+02  0.12582752145E+02 -0.38409187719E+02  0.43483252312E+02  0.00000000000E+00 0.  1.
         11    1    3    3    0    0  0.16037514735E+02 -0.12582752145E+02  0.44353240207E+02  0.48813291707E+02  0.00000000000E+00 0. -1.
<mgrwt>
<rscale>  0 0.92104942E+02</rscale>
<asrwt>0</asrwt>
<pdfrwt beam="1">  1        1 0.75569690E-02 0.92104942E+02</pdfrwt>
<pdfrwt beam="2">  1       -1 0.66424993E-02 0.92104942E+02</pdfrwt>
<totfact> 0.90897585E+04</totfact>
</mgrwt>
</event>
<event>
 5    1  0.1239369E+001  0.9298549E+02  0.7546771E-02  0.1295779E+00
         -1   -1    0    0    0  501 -0.00000000000E+00  0.00000000000E+00  0.89297771564E+01  0.89297771564E+01  0.00000000000E+00 0.  1.
          1   -1    0    0  501    0  0.00000000000E+00 -0.00000000000E+00 -0.24206374176E+03  0.24206374176E+03  0.00000000000E+00 0. -1.
         23    2    1    2    0    0  0.00000000000E+00  0.00000000000E+00 -0.23313396461E+03  0.25099351892E+03  0.92985488579E+02 0.  0.
        -11    1    3    3    0    0  0.36089686167E+02 -0.12688662310E+02 -0.18788652268E+03  0.19174152655E+03  0.00000000000E+00 0. -1.
         11    1    3    3    0    0 -0.36089686167E+02  0.12688662310E+02 -0.45247441926E+02  0.59251992369E+02  0.00000000000E+00 0.  1.
<mgrwt>
<rscale>  0 0.92985489E+02</rscale>
<asrwt>0</asrwt>
<pdfrwt beam="2">  1        1 0.37240576E-01 0.92985489E+02</pdfrwt>
<pdfrwt beam="1">  1       -1 0.13738119E-02 0.92985489E+02</pdfrwt>
<totfact> 0.11659859E+05</totfact>
</mgrwt>
</event>
<event>
 5    1  0.1239369E+001  0.9052758E+02  0.7546771E-02  0.1301579E+00
          1   -1    0    0  501    0  0.00000000000E+00  0.00000000000E+00  0.19247710071E+03  0.19247710071E+03  0.00000000000E+00 0. -1.
         -1   -1    0    0    0  501 -0.00000000000E+00 -0.00000000000E+00 -0.10644437575E+02  0.10644437575E+02  0.00000000000E+00 0.  1.
         23    2    1    2    0    0  0.00000000000E+00  0.00000000000E+00  0.18183266314E+03  0.20312153829E+03  0.90527575539E+02 0.  0.
        -13    1    3    3    0    0 -0.42452586120E+02 -0.13261462787E+02  0.10978548496E+03  0.11845227381E+03  0.00000000000E+00 0. -1.
         13    1    3    3    0    0  0.42452586120E+02  0.13261462787E+02  0.72047178180E+02  0.84669264478E+02  0.00000000000E+00 0.  1.
<mgrwt>
<rscale>  0 0.90527576E+02</rscale>
<asrwt>0</asrwt>
<pdfrwt beam="1">  1        1 0.29611859E-01 0.90527576E+02</pdfrwt>
<pdfrwt beam="2">  1       -1 0.16376059E-02 0.90527576E+02</pdfrwt>
<totfact> 0.11980460E+05</totfact>
</mgrwt>
</event>
<event>
 5    1  0.1239369E+001  0.8867553E+02  0.7546771E-02  0.1306091E+00
         -2   -1    0    0    0  501 -0.00000000000E+00  0.00000000000E+00  0.13711298007E+02  0.13711298007E+02  0.00000000000E+00 0.  1.
          2   -1    0    0  501    0  0.00000000000E+00 -0.00000000000E+00 -0.14337355341E+03  0.14337355341E+03  0.00000000000E+00 0. -1.
         23    2    1    2    0    0  0.00000000000E+00  0.00000000000E+00 -0.12966225540E+03  0.15708485141E+03  0.88675532523E+02 0.  0.
        -11    1    3    3    0    0  0.24194397408E+02 -0.21828266605E+02 -0.11569600216E+02  0.34578862591E+02  0.00000000000E+00 0.  1.
         11    1    3    3    0    0 -0.24194397408E+02  0.21828266605E+02 -0.11809265519E+03  0.12250598882E+03  0.00000000000E+00 0. -1.
<mgrwt>
<rscale>  0 0.88675533E+02</rscale>
<asrwt>0</asrwt>
<pdfrwt beam="2">  1        2 0.22057469E-01 0.88675533E+02</pdfrwt>
<pdfrwt beam="1">  1       -2 0.21094306E-02 0.88675533E+02</pdfrwt>
<totfact> 0.14847388E+05</totfact>
</mgrwt>
</event>
<event>
 5    1  0.1239369E+001  0.9102321E+02  0.7546771E-02  0.1300393E+00
          2   -1    0    0  501    0  0.00000000000E+00  0.00000000000E+00  0.13986880472E+02  0.13986880472E+02  0.00000000000E+00 0. -1.
         -2   -1    0    0    0  501 -0.00000000000E+00 -0.00000000000E+00 -0.14808922853E+03  0.14808922853E+03  0.00000000000E+00 0.  1.
         23    2    1    2    0    0  0.00000000000E+00  0.00000000000E+00 -0.13410234806E+03  0.16207610900E+03  0.91023213273E+02 0.  0.
        -13    1    3    3    0    0 -0.39854245446E+02 -0.41338955298E+01 -0.10548316260E+03  0.11283681830E+03  0.00000000000E+00 0.  1.
         13    1    3    3    0    0  0.39854245446E+02  0.41338955298E+01 -0.28619185456E+02  0.49239290698E+02  0.00000000000E+00 0. -1.
<mgrwt>
<rscale>  0 0.91023213E+02</rscale>
<asrwt>0</asrwt>
<pdfrwt beam="1">  1        2 0.21518278E-02 0.91023213E+02</pdfrwt>
<pdfrwt beam="2">  1       -2 0.22782958E-01 0.91023213E+02</pdfrwt>
<totfact> 0.70482622E+04</totfact>
</mgrwt>
</event>
<event>
 5    1  0.1239369E+001  0.8612462E+02  0.7546771E-02  0.1312517E+00
         -3   -1    0    0    0  501 -0.00000000000E+00  0.00000000000E+00  0.29731290959E+02  0.29731290959E+02  0.00000000000E+00 0.  1.
          3   -1    0    0  501    0  0.00000000000E+00 -0.00000000000E+00 -0.62370742315E+02  0.62370742315E+02  0.00000000000E+00 0. -1.
         23    2    1    2    0    0  0.00000000000E+00  0.00000000000E+00 -0.32639451355E+02  0.92102033274E+02  0.86124623357E+02 0.  0.
        -13    1    3    3    0    0 -0.54320639403E+01  0.26801070888E+02  0.19253968494E+02  0.33444282354E+02  0.00000000000E+00 0.  1.
         13    1    3    3    0    0  0.54320639403E+01 -0.26801070888E+02 -0.51893419849E+02  0.58657750921E+02  0.00000000000E+00 0. -1.
<mgrwt>
<rscale>  0 0.86124623E+02</rscale>
<asrwt>0</asrwt>
<pdfrwt beam="2">  1        3 0.95954987E-02 0.86124623E+02</pdfrwt>
<pdfrwt beam="1">  1       -3 0.45740448E-02 0.86124623E+02</pdfrwt>
<totfact> 0.41161370E+04</totfact>
</mgrwt>
</event>
<event>
 5    1  0.1239369E+001  0.7959759E+02  0.7546771E-02  0.1330197E+00
          1   -1    0    0  501    0  0.00000000000E+00  0.00000000000E+00  0.77533427673E+02  0.77533427673E+02  0.00000000000E+00 0. -1.
         -1   -1    0    0    0  501 -0.00000000000E+00 -0.00000000000E+00 -0.20429177089E+02  0.20429177089E+02  0.00000000000E+00 0.  1.
         23    2    1    2    0    0  0.00000000000E+00  0.00000000000E+00  0.57104250584E+02  0.97962604762E+02  0.79597591025E+02 0.  0.
        -13    1    3    3    0    0 -0.32123816523E+02  0.99061358307E+01  0.54771816848E+02  0.64265255278E+02  0.00000000000E+00 0. -1.
         13    1    3    3    0    0  0.32123816523E+02 -0.99061358307E+01  0.23324337359E+01  0.33697349484E+02  0.00000000000E+00 0.  1.
<mgrwt>
<rscale>  0 0.79597591E+02</rscale>
<asrwt>0</asrwt>
<pdfrwt beam="1">  1        1 0.11928220E-01 0.79597591E+02</pdfrwt>
<pdfrwt beam="2">  1       -1 0.31429504E-02 0.79597591E+02</pdfrwt>
<totfact> 0.14506482E+05</totfact>
</mgrwt>
</event>
<event>
 5    1  0.1239369E+001  0.9267230E+02  0.7546771E-02  0.1296506E+00
          1   -1    0    0  501    0  0.00000000000E+00  0.00000000000E+00  0.33197589561E+03  0.33197589561E+03  0.00000000000E+00 0. -1.
         -1   -1    0    0    0  501 -0.00000000000E+00 -0.00000000000E+00 -0.64674540385E+01  0.64674540385E+01  0.00000000000E+00 0.  1.
         23    2    1    2    0    0  0.00000000000E+00  0.00000000000E+00  0.32550844157E+03  0.33844334965E+03  0.92672301077E+02 0.  0.
        -11    1    3    3    0    0 -0.13567519307E+02 -0.42010566458E+02  0.11135585566E+03  0.11978769496E+03  0.00000000000E+00 0.  1.
         11    1    3    3    0    0  0.13567519307E+02  0.42010566458E+02  0.21415258591E+03  0.21865565469E+03  0.00000000000E+00 0. -1.
<mgrwt>
<rscale>  0 0.92672301E+02</rscale>
<asrwt>0</asrwt>
<pdfrwt beam="1">  1        1 0.51073201E-01 0.92672301E+02</pdfrwt>
<pdfrwt beam="2">  1       -1 0.99499319E-03 0.92672301E+02</pdfrwt>
<totfact> 0.12503628E+05</totfact>
</mgrwt>
</event>
<event>
 5    1  0.1239369E+001  0.9096698E+02  0.7546771E-02  0.1300527E+00
          1   -1    0    0  501    0  0.00000000000E+00  0.00000000000E+00  0.25329389790E+03  0.25329389790E+03  0.00000000000E+00 0. -1.
         -1   -1    0    0    0  501 -0.00000000000E+00 -0.00000000000E+00 -0.81673822230E+01  0.81673822230E+01  0.00000000000E+00 0.  1.
         23    2    1    2    0    0  0.00000000000E+00  0.00000000000E+00  0.24512651567E+03  0.26146128012E+03  0.90966984755E+02 0.  0.
        -13    1    3    3    0    0  0.23362603716E+02  0.33316215373E+02  0.18097243094E+03  0.18549070656E+03  0.00000000000E+00 0. -1.
         13    1    3    3    0    0 -0.23362603716E+02 -0.33316215373E+02  0.64154084729E+02  0.75970573557E+02  0.00000000000E+00 0.  1.
<mgrwt>
<rscale>  0 0.90966985E+02</rscale>
<asrwt>0</asrwt>
<pdfrwt beam="1">  1        1 0.38968286E-01 0.90966985E+02</pdfrwt>
<pdfrwt beam="2">  1       -1 0.12565205E-02 0.90966985E+02</pdfrwt>
<totfact> 0.12475103E+05</totfact>
</mgrwt>
</event>
<event>
 5    1  0.1239369E+001  0.7223347E+02  0.7546771E-02  0.1352659E+00
          2   -1    0    0  501    0  0.00000000000E+00  0.00000000000E+00  0.33402289182E+03  0.33402289182E+03  0.00000000000E+00 0. -1.
         -2   -1    0    0    0  501 -0.00000000000E+00 -0.00000000000E+00 -0.39051767752E+01  0.39051767752E+01  0.00000000000E+00 0.  1.
         23    2    1    2    0    0  0.00000000000E+00  0.00000000000E+00  0.33011771505E+03  0.33792806860E+03  0.72233467023E+02 0.  0.
        -13    1    3    3    0    0  0.29863219690E+02  0.20240423648E+02  0.17306923464E+03  0.17678927179E+03  0.00000000000E+00 0. -1.
         13    1    3    3    0    0 -0.29863219690E+02 -0.20240423648E+02  0.15704848040E+03  0.16113879681E+03  0.00000000000E+00 0.  1.
<mgrwt>
<rscale>  0 0.72233467E+02</rscale>
<asrwt>0</asrwt>
<pdfrwt beam="1">  1        2 0.51388115E-01 0.72233467E+02</pdfrwt>
<pdfrwt beam="2">  1       -2 0.60079669E-03 0.72233467E+02</pdfrwt>
<totfact> 0.34483212E+05</totfact>
</mgrwt>
</event>
<event>
 5    1  0.1239369E+001  0.9246791E+02  0.7546771E-02  0.1296983E+00
          1   -1    0    0  501    0  0.00000000000E+00  0.00000000000E+00  0.31765245439E+03  0.31765245439E+03  0.00000000000E+00 0. -1.
         -1   -1    0    0    0  501 -0.00000000000E+00 -0.00000000000E+00 -0.67293001851E+01  0.67293001851E+01  0.00000000000E+00 0.  1.
         23    2    1    2    0    0  0.00000000000E+00  0.00000000000E+00  0.31092315421E+03  0.32438175458E+03  0.92467912708E+02 0.  0.
        -13    1    3    3    0    0  0.40233020068E+02 -0.22757096229E+02  0.15896503852E+03  0.16554898007E+03  0.00000000000E+00 0.  1.
         13    1    3    3    0    0 -0.40233020068E+02  0.22757096229E+02  0.15195811569E+03  0.15883277450E+03  0.00000000000E+00 0. -1.
<mgrwt>
<rscale>  0 0.92467913E+02</rscale>
<asrwt>0</asrwt>
<pdfrwt beam="1">  1        1 0.48869597E-01 0.92467913E+02</pdfrwt>
<pdfrwt beam="2">  1       -1 0.10352772E-02 0.92467913E+02</pdfrwt>
<totfact> 0.12474800E+05</totfact>
</mgrwt>
</event>
<event>
 5    1  0.1239369E+001  0.9078932E+02  0.7546771E-02  0.1300951E+00
          1   -1    0    0  501    0  0.00000000000E+00  0.00000000000E+00  0.19147673535E+03  0.19147673535E+03  0.00000000000E+00 0. -1.
         -1   -1    0    0    0  501 -0.00000000000E+00 -0.00000000000E+00 -0.10762012121E+02  0.10762012121E+02  0.00000000000E+00 0.  1.
         23    2    1    2    0    0  0.00000000000E+00  0.00000000000E+00  0.18071472323E+03  0.20223874747E+03  0.90789315379E+02 0.  0.
        -11    1    3    3    0    0  0.31740837858E+02 -0.28714981845E+02  0.56674459130E+02  0.71021301650E+02  0.00000000000E+00 0.  1.
         11    1    3    3    0    0 -0.31740837858E+02  0.28714981845E+02  0.12404026410E+03  0.13121744582E+03  0.00000000000E+00 0. -1.
<mgrwt>
<rscale>  0 0.90789315E+02</rscale>
<asrwt>0</asrwt>
<pdfrwt beam="1">  1        1 0.29457957E-01 0.90789315E+02</pdfrwt>
<pdfrwt beam="2">  1       -1 0.16556943E-02 0.90789315E+02</pdfrwt>
<totfact> 0.11876185E+05</totfact>
</mgrwt>
</event>
<event>
 5    1  0.1239369E+001  0.9369192E+02  0.7546771E-02  0.1294150E+00
         -1   -1    0    0    0  501 -0.00000000000E+00  0.00000000000E+00  0.24169590582E+03  0.24169590582E+03  0.00000000000E+00 0.  1.
          1   -1    0    0  501    0  0.00000000000E+00 -0.00000000000E+00 -0.90797729732E+01  0.90797729732E+01  0.00000000000E+00 0. -1.
         23    2    1    2    0    0  0.00000000000E+00  0.00000000000E+00  0.23261613284E+03  0.25077567879E+03  0.93691919681E+02 0.  0.
        -13    1    3    3    0    0 -0.48396229824E+01 -0.37189371770E+02  0.19144723747E+03  0.19508591968E+03  0.00000000000E+00 0.  1.
         13    1    3    3    0    0  0.48396229824E+01  0.37189371770E+02  0.41168895374E+02  0.55689759108E+02  0.00000000000E+00 0. -1.
<mgrwt>
<rscale>  0 0.93691920E+02</rscale>
<asrwt>0</asrwt>
<pdfrwt beam="2">  1        1 0.13968883E-02 0.93691920E+02</pdfrwt>
<pdfrwt beam="1">  1       -1 0.37183981E-01 0.93691920E+02</pdfrwt>
<totfact> 0.61002691E+04</totfact>
</mgrwt>
</event>
<event>
 5    1  0.1239369E+001  0.9445050E+02  0.7546771E-02  0.1292419E+00
         -1   -1    0    0    0  501 -0.00000000000E+00  0.00000000000E+00  0.14606304763E+02  0.14606304763E+02  0.00000000000E+00 0.  1.
          1   -1    0    0  501    0  0.00000000000E+00 -0.00000000000E+00 -0.15268913483E+03  0.15268913483E+03  0.00000000000E+00 0. -1.
         23    2    1    2    0    0  0.00000000000E+00  0.00000000000E+00 -0.13808283006E+03  0.16729543959E+03  0.94450495759E+02 0.  0.
        -13    1    3    3    0    0 -0.13716389099E+02 -0.45044114787E+02 -0.62627525759E+02  0.78353803925E+02  0.00000000000E+00 0. -1.
         13    1    3    3    0    0  0.13716389099E+02  0.45044114787E+02 -0.75455304304E+02  0.88941635664E+02  0.00000000000E+00 0.  1.
<mgrwt>
<rscale>  0 0.94450496E+02</rscale>
<asrwt>0</asrwt>
<pdfrwt beam="2">  1        1 0.23490638E-01 0.94450496E+02</pdfrwt>
<pdfrwt beam="1">  1       -1 0.22471236E-02 0.94450496E+02</pdfrwt>
<totfact> 0.10226411E+05</totfact>
</mgrwt>
</event>
<event>
 5    1  0.1239369E+001  0.9184284E+02  0.7546771E-02  0.1298449E+00
         -3   -1    0    0    0  501 -0.00000000000E+00  0.00000000000E+00  0.13519304004E+02  0.13519304004E+02  0.00000000000E+00 0.  1.
          3   -1    0    0  501    0  0.00000000000E+00 -0.00000000000E+00 -0.15598266007E+03  0.15598266007E+03  0.00000000000E+00 0. -1.
         23    2    1    2    0    0  0.00000000000E+00  0.00000000000E+00 -0.14246335607E+03  0.16950196407E+03  0.91842844051E+02 0.  0.
        -11    1    3    3    0    0 -0.33639127104E+02  0.20183241959E+02 -0.27176257630E+02  0.47723192549E+02  0.00000000000E+00 0.  1.
         11    1    3    3    0    0  0.33639127104E+02 -0.20183241959E+02 -0.11528709844E+03  0.12177877152E+03  0.00000000000E+00 0. -1.
<mgrwt>
<rscale>  0 0.91842844E+02</rscale>
<asrwt>0</asrwt>
<pdfrwt beam="2">  1        3 0.23997333E-01 0.91842844E+02</pdfrwt>
<pdfrwt beam="1">  1       -3 0.20798929E-02 0.91842844E+02</pdfrwt>
<totfact> 0.29566136E+04</totfact>
</mgrwt>
</event>
<event>
 5    1  0.1239369E+001  0.8989325E+02  0.7546771E-02  0.1303110E+00
         -1   -1    0    0    0  501 -0.00000000000E+00  0.00000000000E+00  0.98273339068E+02  0.98273339068E+02  0.00000000000E+00 0.  1.
          1   -1    0    0  501    0  0.00000000000E+00 -0.00000000000E+00 -0.20556940009E+02  0.20556940009E+02  0.00000000000E+00 0. -1.
         23    2    1    2    0    0  0.00000000000E+00  0.00000000000E+00  0.77716399059E+02  0.11883027908E+03  0.89893250818E+02 0.  0.
        -11    1    3    3    0    0 -0.44482385950E+02 -0.47399459681E+01  0.33088668068E+02  0.55641798156E+02  0.00000000000E+00 0. -1.
         11    1    3    3    0    0  0.44482385950E+02  0.47399459681E+01  0.44627730992E+02  0.63188480920E+02  0.00000000000E+00 0.  1.
<mgrwt>
<rscale>  0 0.89893251E+02</rscale>
<asrwt>0</asrwt>
<pdfrwt beam="2">  1        1 0.31626062E-02 0.89893251E+02</pdfrwt>
<pdfrwt beam="1">  1       -1 0.15118975E-01 0.89893251E+02</pdfrwt>
<totfact> 0.84664585E+04</totfact>
</mgrwt>
</event>
<event>
 5    1  0.1239369E+001  0.9480623E+02  0.7546771E-02  0.1291613E+00
         -1   -1    0    0    0  501 -0.00000000000E+00  0.00000000000E+00  0.91211250909E+01  0.91211250909E+01  0.00000000000E+00 0.  1.
          1   -1    0    0  501    0  0.00000000000E+00 -0.00000000000E+00 -0.24635724320E+03  0.24635724320E+03  0.00000000000E+00 0. -1.
         23    2    1    2    0    0  0.00000000000E+00  0.00000000000E+00 -0.23723611811E+03  0.25547836829E+03  0.94806228325E+02 0.  0.
        -11    1    3    3    0    0  0.37184153747E+02  0.19746122232E+02 -0.59919380458E+02  0.73231842716E+02  0.00000000000E+00 0.  1.
         11    1    3    3    0    0 -0.37184153747E+02 -0.19746122232E+02 -0.17731673765E+03  0.18224652558E+03  0.00000000000E+00 0. -1.
<mgrwt>
<rscale>  0 0.94806228E+02</rscale>
<asrwt>0</asrwt>
<pdfrwt beam="2">  1        1 0.37901115E-01 0.94806228E+02</pdfrwt>
<pdfrwt beam="1">  1       -1 0.14032500E-02 0.94806228E+02</pdfrwt>
<totfact> 0.11107096E+05</totfact>
</mgrwt>
</event>
<event>
 5    1  0.1239369E+001  0.8651609E+02  0.7546771E-02  0.1311515E+00
          2   -1    0    0  501    0  0.00000000000E+00  0.00000000000E+00  0.53658084089E+02  0.53658084089E+02  0.00000000000E+00 0. -1.
         -2   -1    0    0    0  501 -0.00000000000E+00 -0.00000000000E+00 -0.34873747660E+02  0.34873747660E+02  0.00000000000E+00 0.  1.
         23    2    1    2    0    0  0.00000000000E+00  0.00000000000E+00  0.18784336428E+02  0.88531831749E+02  0.86516090629E+02 0.  0.
        -13    1    3    3    0    0 -0.14590735595E+02 -0.97773046164E+01  0.49845150585E+02  0.52849070830E+02  0.00000000000E+00 0. -1.
         13    1    3    3    0    0  0.14590735595E+02  0.97773046164E+01 -0.31060814157E+02  0.35682760919E+02  0.00000000000E+00 0.  1.
<mgrwt>
<rscale>  0 0.86516091E+02</rscale>
<asrwt>0</asrwt>
<pdfrwt beam="1">  1        2 0.82550899E-02 0.86516091E+02</pdfrwt>
<pdfrwt beam="2">  1       -2 0.53651919E-02 0.86516091E+02</pdfrwt>
<totfact> 0.11940638E+05</totfact>
</mgrwt>
</event>
<event>
 5    1  0.1239369E+001  0.8807284E+02  0.7546771E-02  0.1307587E+00
         -1   -1    0    0    0  501 -0.00000000000E+00  0.00000000000E+00  0.53590639500E+02  0.53590639500E+02  0.00000000000E+00 0.  1.
          1   -1    0    0  501    0  0.00000000000E+00 -0.00000000000E+00 -0.36185541924E+02  0.36185541924E+02  0.00000000000E+00 0. -1.
         23    2    1    2    0    0  0.00000000000E+00  0.00000000000E+00  0.17405097577E+02  0.89776181424E+02  0.88072841043E+02 0.  0.
        -11    1    3    3    0    0 -0.23069374815E+01  0.29637307554E+02  0.41819564851E+02  0.51308556440E+02  0.00000000000E+00 0.  1.
         11    1    3    3    0    0  0.23069374815E+01 -0.29637307554E+02 -0.24414467275E+02  0.38467624984E+02  0.00000000000E+00 0. -1.
<mgrwt>
<rscale>  0 0.88072841E+02</rscale>
<asrwt>0</asrwt>
<pdfrwt beam="2">  1        1 0.55670065E-02 0.88072841E+02</pdfrwt>
<pdfrwt beam="1">  1       -1 0.82447137E-02 0.88072841E+02</pdfrwt>
<totfact> 0.98473386E+04</totfact>
</mgrwt>
</event>
<event>
 5    1  0.1239369E+001  0.9051868E+02  0.7546771E-02  0.1301600E+00
          1   -1    0    0  501    0  0.00000000000E+00  0.00000000000E+00  0.23010035848E+03  0.23010035848E+03  0.00000000000E+00 0. -1.
         -1   -1    0    0    0  501 -0.00000000000E+00 -0.00000000000E+00 -0.89022367183E+01  0.89022367183E+01  0.00000000000E+00 0.  1.
         23    2    1    2    0    0  0.00000000000E+00  0.00000000000E+00  0.22119812176E+03  0.23900259519E+03  0.90518680064E+02 0.  0.
        -13    1    3    3    0    0 -0.23309878590E+01 -0.36763619938E+02  0.41171417748E+02  0.55245659510E+02  0.00000000000E+00 0.  1.
         13    1    3    3    0    0  0.23309878590E+01  0.36763619938E+02  0.18002670401E+03  0.18375693568E+03  0.00000000000E+00 0. -1.
<mgrwt>
<rscale>  0 0.90518680E+02</rscale>
<asrwt>0</asrwt>
<pdfrwt beam="1">  1        1 0.35400051E-01 0.90518680E+02</pdfrwt>
<pdfrwt beam="2">  1       -1 0.13695751E-02 0.90518680E+02</pdfrwt>
<totfact> 0.12406465E+05</totfact>
</mgrwt>
</event>
<event>
 5    1  0.1239369E+001  0.8810580E+02  0.7546771E-02  0.1307505E+00
          2   -1    0    0  501    0  0.00000000000E+00  0.00000000000E+00  0.21365745378E+02  0.21365745378E+02  0.00000000000E+00 0. -1.
         -2   -1    0    0    0  501 -0.00000000000E+00 -0.00000000000E+00 -0.90830336514E+02  0.90830336514E+02  0.00000000000E+00 0.  1.
         23    2    1    2    0    0  0.00000000000E+00  0.00000000000E+00 -0.69464591135E+02  0.11219608189E+03  0.88105796462E+02 0.  0.
        -11    1    3    3    0    0 -0.96145117332E+00  0.35611374363E+02 -0.67732508456E+02  0.76529648334E+02  0.00000000000E+00 0.  1.
         11    1    3    3    0    0  0.96145117332E+00 -0.35611374363E+02 -0.17320826798E+01  0.35666433558E+02  0.00000000000E+00 0. -1.
<mgrwt>
<rscale>  0 0.88105796E+02</rscale>
<asrwt>0</asrwt>
<pdfrwt beam="1">  1        2 0.32870378E-02 0.88105796E+02</pdfrwt>
<pdfrwt beam="2">  1       -2 0.13973898E-01 0.88105796E+02</pdfrwt>
<totfact> 0.89350203E+04</totfact>
</mgrwt>
</event>
<event>
 5    1  0.1239369E+001  0.9181310E+02  0.7546771E-02  0.1298519E+00
          1   -1    0    0  501    0  0.00000000000E+00  0.00000000000E+00  0.82872399320E+02  0.82872399320E+02  0.00000000000E+00 0. -1.
         -1   -1    0    0    0  501 -0.00000000000E+00 -0.00000000000E+00 -0.25429590207E+02  0.25429590207E+02  0.00000000000E+00 0.  1.
         23    2    1    2    0    0  0.00000000000E+00  0.00000000000E+00  0.57442809113E+02  0.10830198953E+03  0.91813096108E+02 0.  0.
        -13    1    3    3    0    0 -0.32455205812E+02  0.19171837979E+02  0.59628321005E+02  0.70543861687E+02  0.00000000000E+00 0. -1.
         13    1    3    3    0    0  0.32455205812E+02 -0.19171837979E+02 -0.21855118921E+01  0.37758127841E+02  0.00000000000E+00 0.  1.
<mgrwt>
<rscale>  0 0.91813096E+02</rscale>
<asrwt>0</asrwt>
<pdfrwt beam="1">  1        1 0.12749600E-01 0.91813096E+02</pdfrwt>
<pdfrwt beam="2">  1       -1 0.39122447E-02 0.91813096E+02</pdfrwt>
<totfact> 0.99392774E+04</totfact>
</mgrwt>
</event>
<event>
 5    1  0.1239369E+001  0.8941569E+02  0.7546771E-02  0.1304273E+00
          2   -1    0    0  501    0  0.00000000000E+00  0.00000000000E+00  0.14592347622E+03  0.14592347622E+03  0.00000000000E+00 0. -1.
         -2   -1    0    0    0  501 -0.00000000000E+00 -0.00000000000E+00 -0.13697532697E+02  0.13697532697E+02  0.00000000000E+00 0.  1.
         23    2    1    2    0    0  0.00000000000E+00  0.00000000000E+00  0.13222594352E+03  0.15962100892E+03  0.89415694075E+02 0.  0.
        -11    1    3    3    0    0  0.31365152053E+02  0.28028635415E+02  0.39074218928E+02  0.57412296169E+02  0.00000000000E+00 0.  1.
         11    1    3    3    0    0 -0.31365152053E+02 -0.28028635415E+02  0.93151724594E+02  0.10220871275E+03  0.00000000000E+00 0. -1.
<mgrwt>
<rscale>  0 0.89415694E+02</rscale>
<asrwt>0</asrwt>
<pdfrwt beam="1">  1        2 0.22449765E-01 0.89415694E+02</pdfrwt>
<pdfrwt beam="2">  1       -2 0.21073128E-02 0.89415694E+02</pdfrwt>
<totfact> 0.14603112E+05</totfact>
</mgrwt>
</event>
<event>
 5    1  0.1239369E+001  0.8709822E+02  0.7546771E-02  0.1310035E+00
         -2   -1    0    0    0  501 -0.00000000000E+00  0.00000000000E+00  0.63897285334E+02  0.63897285334E+02  0.00000000000E+00 0.  1.
          2   -1    0    0  501    0  0.00000000000E+00 -0.00000000000E+00 -0.29680837636E+02  0.29680837636E+02  0.00000000000E+00 0. -1.
         23    2    1    2    0    0  0.00000000000E+00  0.00000000000E+00  0.34216447698E+02  0.93578122970E+02  0.87098219302E+02 0.  0.
        -11    1    3    3    0    0 -0.37135496105E+02 -0.11088393767E+02 -0.42322294949E+01  0.38986014335E+02  0.00000000000E+00 0. -1.
         11    1    3    3    0    0  0.37135496105E+02  0.11088393767E+02  0.38448677193E+02  0.54592108635E+02  0.00000000000E+00 0.  1.
<mgrwt>
<rscale>  0 0.87098219E+02</rscale>
<asrwt>0</asrwt>
<pdfrwt beam="2">  1        2 0.45662827E-02 0.87098219E+02</pdfrwt>
<pdfrwt beam="1">  1       -2 0.98303516E-02 0.87098219E+02</pdfrwt>
<totfact> 0.10097115E+05</totfact>
</mgrwt>
</event>
<event>
 5    1  0.1239369E+001  0.9057732E+02  0.7546771E-02  0.1301460E+00
         -2   -1    0    0    0  501 -0.00000000000E+00  0.00000000000E+00  0.11974233449E+02  0.11974233449E+02  0.00000000000E+00 0.  1.
          2   -1    0    0  501    0  0.00000000000E+00 -0.00000000000E+00 -0.17128967684E+03  0.17128967684E+03  0.00000000000E+00 0. -1.
         23    2    1    2    0    0  0.00000000000E+00  0.00000000000E+00 -0.15931544339E+03  0.18326391029E+03  0.90577316761E+02 0.  0.
        -13    1    3    3    0    0  0.38549906140E+02 -0.19970849752E+02 -0.10573635122E+03  0.11430269495E+03  0.00000000000E+00 0.  1.
         13    1    3    3    0    0 -0.38549906140E+02  0.19970849752E+02 -0.53579092163E+02  0.68961215333E+02  0.00000000000E+00 0. -1.
<mgrwt>
<rscale>  0 0.90577317E+02</rscale>
<asrwt>0</asrwt>
<pdfrwt beam="2">  1        2 0.26352259E-01 0.90577317E+02</pdfrwt>
<pdfrwt beam="1">  1       -2 0.18421897E-02 0.90577317E+02</pdfrwt>
<totfact> 0.14899655E+05</totfact>
</mgrwt>
</event>
<event>
 5    1  0.1239369E+001  0.9193027E+02  0.7546771E-02  0.1298243E+00
          2   -1    0    0  501    0  0.00000000000E+00  0.00000000000E+00  0.69004941595E+01  0.69004941595E+01  0.00000000000E+00 0.  1.
         -2   -1    0    0    0  501 -0.00000000000E+00 -0.00000000000E+00 -0.30618003244E+03  0.30618003244E+03  0.00000000000E+00 0. -1.
         23    2    1    2    0    0  0.00000000000E+00  0.00000000000E+00 -0.29927953829E+03  0.31308052660E+03  0.91930267608E+02 0.  0.
        -13    1    3    3    0    0  0.37732176104E+02 -0.21466081352E+02 -0.20109565308E+03  0.20572790634E+03  0.00000000000E+00 0. -1.
         13    1    3    3    0    0 -0.37732176104E+02  0.21466081352E+02 -0.98183885209E+02  0.10735262026E+03  0.00000000000E+00 0.  1.
<mgrwt>
<rscale>  0 0.91930268E+02</rscale>
<asrwt>0</asrwt>
<pdfrwt beam="1">  1        2 0.10616146E-02 0.91930268E+02</pdfrwt>
<pdfrwt beam="2">  1       -2 0.47104616E-01 0.91930268E+02</pdfrwt>
<totfact> 0.49357492E+04</totfact>
</mgrwt>
</event>
<event>
 5    1  0.1239369E+001  0.9148115E+02  0.7546771E-02  0.1299304E+00
         -1   -1    0    0    0  501 -0.00000000000E+00  0.00000000000E+00  0.35122336038E+02  0.35122336038E+02  0.00000000000E+00 0.  1.
          1   -1    0    0  501    0  0.00000000000E+00 -0.00000000000E+00 -0.59568940988E+02  0.59568940988E+02  0.00000000000E+00 0. -1.
         23    2    1    2    0    0  0.00000000000E+00  0.00000000000E+00 -0.24446604950E+02  0.94691277026E+02  0.91481153531E+02 0.  0.
        -11    1    3    3    0    0  0.39619330598E+02  0.17965694204E+02 -0.26852279200E+02  0.51122425838E+02  0.00000000000E+00 0.  1.
         11    1    3    3    0    0 -0.39619330598E+02 -0.17965694204E+02  0.24056742508E+01  0.43568851189E+02  0.00000000000E+00 0. -1.
<mgrwt>
<rscale>  0 0.91481154E+02</rscale>
<asrwt>0</asrwt>
<pdfrwt beam="2">  1        1 0.91644524E-02 0.91481154E+02</pdfrwt>
<pdfrwt beam="1">  1       -1 0.54034364E-02 0.91481154E+02</pdfrwt>
<totfact> 0.95379196E+04</totfact>
</mgrwt>
</event>
<event>
 5    1  0.1239369E+001  0.9072604E+02  0.7546771E-02  0.1301103E+00
          2   -1    0    0  501    0  0.00000000000E+00  0.00000000000E+00  0.57330725260E+02  0.57330725260E+02  0.00000000000E+00 0. -1.
         -2   -1    0    0    0  501 -0.00000000000E+00 -0.00000000000E+00 -0.35893554855E+02  0.35893554855E+02  0.00000000000E+00 0.  1.
         23    2    1    2    0    0  0.00000000000E+00  0.00000000000E+00  0.21437170405E+02  0.93224280115E+02  0.90726038864E+02 0.  0.
        -13    1    3    3    0    0  0.39277625408E+02 -0.55334205351E+01 -0.11897783867E+02  0.41411446020E+02  0.00000000000E+00 0.  1.
         13    1    3    3    0    0 -0.39277625408E+02  0.55334205351E+01  0.33334954273E+02  0.51812834094E+02  0.00000000000E+00 0. -1.
<mgrwt>
<rscale>  0 0.90726039E+02</rscale>
<asrwt>0</asrwt>
<pdfrwt beam="1">  1        2 0.88201116E-02 0.90726039E+02</pdfrwt>
<pdfrwt beam="2">  1       -2 0.55220854E-02 0.90726039E+02</pdfrwt>
<totfact> 0.10626530E+05</totfact>
</mgrwt>
</event>
<event>
 5    1  0.1239369E+001  0.9221933E+02  0.7546771E-02  0.1297565E+00
          1   -1    0    0  501    0  0.00000000000E+00  0.00000000000E+00  0.35277133051E+02  0.35277133051E+02  0.00000000000E+00 0. -1.
         -1   -1    0    0    0  501 -0.00000000000E+00 -0.00000000000E+00 -0.60268543548E+02  0.60268543548E+02  0.00000000000E+00 0.  1.
         23    2    1    2    0    0  0.00000000000E+00  0.00000000000E+00 -0.24991410498E+02  0.95545676599E+02  0.92219334839E+02 0.  0.
        -11    1    3    3    0    0  0.27535516439E+02  0.34053932279E+02 -0.27446249854E+02  0.51683378375E+02  0.00000000000E+00 0.  1.
         11    1    3    3    0    0 -0.27535516439E+02 -0.34053932279E+02  0.24548393562E+01  0.43862298224E+02  0.00000000000E+00 0. -1.
<mgrwt>
<rscale>  0 0.92219335E+02</rscale>
<asrwt>0</asrwt>
<pdfrwt beam="1">  1        1 0.54272513E-02 0.92219335E+02</pdfrwt>
<pdfrwt beam="2">  1       -1 0.92720835E-02 0.92219335E+02</pdfrwt>
<totfact> 0.86097805E+04</totfact>
</mgrwt>
</event>
<event>
 5    1  0.1239369E+001  0.9890688E+02  0.7546771E-02  0.1282612E+00
         -2   -1    0    0    0  501 -0.00000000000E+00  0.00000000000E+00  0.60332239200E+01  0.60332239200E+01  0.00000000000E+00 0.  1.
          2   -1    0    0  501    0  0.00000000000E+00 -0.00000000000E+00 -0.40536253173E+03  0.40536253173E+03  0.00000000000E+00 0. -1.
         23    2    1    2    0    0  0.00000000000E+00  0.00000000000E+00 -0.39932930781E+03  0.41139575565E+03  0.98906883940E+02 0.  0.
        -13    1    3    3    0    0 -0.48748563150E+02 -0.22040975051E+01 -0.23303414861E+03  0.23808862819E+03  0.00000000000E+00 0.  1.
         13    1    3    3    0    0  0.48748563150E+02  0.22040975051E+01 -0.16629515919E+03  0.17330712745E+03  0.00000000000E+00 0. -1.
<mgrwt>
<rscale>  0 0.98906884E+02</rscale>
<asrwt>0</asrwt>
<pdfrwt beam="2">  1        2 0.62363467E-01 0.98906884E+02</pdfrwt>
<pdfrwt beam="1">  1       -2 0.92818829E-03 0.98906884E+02</pdfrwt>
<totfact> 0.16144647E+05</totfact>
</mgrwt>
</event>
<event>
 5    1  0.1239369E+001  0.9260617E+02  0.7546771E-02  0.1296660E+00
         -1   -1    0    0    0  501 -0.00000000000E+00  0.00000000000E+00  0.11782771347E+03  0.11782771347E+03  0.00000000000E+00 0.  1.
          1   -1    0    0  501    0  0.00000000000E+00 -0.00000000000E+00 -0.18195853021E+02  0.18195853021E+02  0.00000000000E+00 0. -1.
         23    2    1    2    0    0  0.00000000000E+00  0.00000000000E+00  0.99631860445E+02  0.13602356649E+03  0.92606171631E+02 0.  0.
        -13    1    3    3    0    0 -0.69973719431E+00 -0.30413803033E+02  0.10108844574E+03  0.10556686463E+03  0.00000000000E+00 0.  1.
         13    1    3    3    0    0  0.69973719431E+00  0.30413803033E+02 -0.14565852917E+01  0.30456701854E+02  0.00000000000E+00 0. -1.
<mgrwt>
<rscale>  0 0.92606172E+02</rscale>
<asrwt>0</asrwt>
<pdfrwt beam="2">  1        1 0.27993621E-02 0.92606172E+02</pdfrwt>
<pdfrwt beam="1">  1       -1 0.18127340E-01 0.92606172E+02</pdfrwt>
<totfact> 0.75713660E+04</totfact>
</mgrwt>
</event>
<event>
 5    1  0.1239369E+001  0.9127841E+02  0.7546771E-02  0.1299785E+00
          2   -1    0    0  501    0  0.00000000000E+00  0.00000000000E+00  0.38152288047E+03  0.38152288047E+03  0.00000000000E+00 0. -1.
         -2   -1    0    0    0  501 -0.00000000000E+00 -0.00000000000E+00 -0.54595339337E+01  0.54595339337E+01  0.00000000000E+00 0.  1.
         23    2    1    2    0    0  0.00000000000E+00  0.00000000000E+00  0.37606334653E+03  0.38698241440E+03  0.91278411739E+02 0.  0.
        -11    1    3    3    0    0  0.30279701686E+02  0.33298670241E+02  0.22011703848E+03  0.22467125407E+03  0.00000000000E+00 0. -1.
         11    1    3    3    0    0 -0.30279701686E+02 -0.33298670241E+02  0.15594630805E+03  0.16231116033E+03  0.00000000000E+00 0.  1.
<mgrwt>
<rscale>  0 0.91278412E+02</rscale>
<asrwt>0</asrwt>
<pdfrwt beam="1">  1        2 0.58695807E-01 0.91278412E+02</pdfrwt>
<pdfrwt beam="2">  1       -2 0.83992860E-03 0.91278412E+02</pdfrwt>
<totfact> 0.19567676E+05</totfact>
</mgrwt>
</event>
<event>
 5    1  0.1239369E+001  0.9251948E+02  0.7546771E-02  0.1296863E+00
         -1   -1    0    0    0  501 -0.00000000000E+00  0.00000000000E+00  0.30795734879E+02  0.30795734879E+02  0.00000000000E+00 0.  1.
          1   -1    0    0  501    0  0.00000000000E+00 -0.00000000000E+00 -0.69488965913E+02  0.69488965913E+02  0.00000000000E+00 0. -1.
         23    2    1    2    0    0  0.00000000000E+00  0.00000000000E+00 -0.38693231034E+02  0.10028470079E+03  0.92519484895E+02 0.  0.
        -13    1    3    3    0    0 -0.26505571534E+02 -0.41708090508E+01 -0.60192578160E+02  0.65902104944E+02  0.00000000000E+00 0. -1.
         13    1    3    3    0    0  0.26505571534E+02  0.41708090508E+01  0.21499347125E+02  0.34382595849E+02  0.00000000000E+00 0.  1.
<mgrwt>
<rscale>  0 0.92519485E+02</rscale>
<asrwt>0</asrwt>
<pdfrwt beam="2">  1        1 0.10690610E-01 0.92519485E+02</pdfrwt>
<pdfrwt beam="1">  1       -1 0.47378054E-02 0.92519485E+02</pdfrwt>
<totfact> 0.94652526E+04</totfact>
</mgrwt>
</event>
<event>
 5    1  0.1239369E+001  0.9003698E+02  0.7546771E-02  0.1302762E+00
          3   -1    0    0  501    0  0.00000000000E+00  0.00000000000E+00  0.27276382399E+02  0.27276382399E+02  0.00000000000E+00 0. -1.
         -3   -1    0    0    0  501 -0.00000000000E+00 -0.00000000000E+00 -0.74301070214E+02  0.74301070214E+02  0.00000000000E+00 0.  1.
         23    2    1    2    0    0  0.00000000000E+00  0.00000000000E+00 -0.47024687815E+02  0.10157745261E+03  0.90036979155E+02 0.  0.
        -13    1    3    3    0    0  0.12729081649E+02 -0.37040960175E+02 -0.48551780626E+02  0.62380587143E+02  0.00000000000E+00 0. -1.
         13    1    3    3    0    0 -0.12729081649E+02  0.37040960175E+02  0.15270928105E+01  0.39196865471E+02  0.00000000000E+00 0.  1.
<mgrwt>
<rscale>  0 0.90036979E+02</rscale>
<asrwt>0</asrwt>
<pdfrwt beam="1">  1        3 0.41963666E-02 0.90036979E+02</pdfrwt>
<pdfrwt beam="2">  1       -3 0.11430934E-01 0.90036979E+02</pdfrwt>
<totfact> 0.35757115E+04</totfact>
</mgrwt>
</event>
<event>
 5    1  0.1239369E+001  0.7155638E+02  0.7546771E-02  0.1354879E+00
         -1   -1    0    0    0  501 -0.00000000000E+00  0.00000000000E+00  0.46748926952E+02  0.46748926952E+02  0.00000000000E+00 0.  1.
          1   -1    0    0  501    0  0.00000000000E+00 -0.00000000000E+00 -0.27381992569E+02  0.27381992569E+02  0.00000000000E+00 0. -1.
         23    2    1    2    0    0  0.00000000000E+00  0.00000000000E+00  0.19366934383E+02  0.74130919520E+02  0.71556376945E+02 0.  0.
        -13    1    3    3    0    0 -0.14890829600E+02 -0.27178434572E+02  0.28206203703E+02  0.41904582557E+02  0.00000000000E+00 0. -1.
         13    1    3    3    0    0  0.14890829600E+02  0.27178434572E+02 -0.88392693198E+01  0.32226336963E+02  0.00000000000E+00 0.  1.
<mgrwt>
<rscale>  0 0.71556377E+02</rscale>
<asrwt>0</asrwt>
<pdfrwt beam="2">  1        1 0.42126142E-02 0.71556377E+02</pdfrwt>
<pdfrwt beam="1">  1       -1 0.71921426E-02 0.71556377E+02</pdfrwt>
<totfact> 0.16912263E+05</totfact>
</mgrwt>
</event>
<event>
 5    1  0.1239369E+001  0.8871396E+02  0.7546771E-02  0.1305996E+00
         -1   -1    0    0    0  501 -0.00000000000E+00  0.00000000000E+00  0.11036343900E+03  0.11036343900E+03  0.00000000000E+00 0.  1.
          1   -1    0    0  501    0  0.00000000000E+00 -0.00000000000E+00 -0.17827837630E+02  0.17827837630E+02  0.00000000000E+00 0. -1.
         23    2    1    2    0    0  0.00000000000E+00  0.00000000000E+00  0.92535601371E+02  0.12819127663E+03  0.88713955403E+02 0.  0.
        -11    1    3    3    0    0  0.21571982164E+02 -0.20990783241E+02  0.93348456061E+02  0.98081076893E+02  0.00000000000E+00 0.  1.
         11    1    3    3    0    0 -0.21571982164E+02  0.20990783241E+02 -0.81285468940E+00  0.30110199739E+02  0.00000000000E+00 0. -1.
<mgrwt>
<rscale>  0 0.88713955E+02</rscale>
<asrwt>0</asrwt>
<pdfrwt beam="2">  1        1 0.27427443E-02 0.88713955E+02</pdfrwt>
<pdfrwt beam="1">  1       -1 0.16978990E-01 0.88713955E+02</pdfrwt>
<totfact> 0.85695026E+04</totfact>
</mgrwt>
</event>
<event>
 5    1  0.1239369E+001  0.9129171E+02  0.7546771E-02  0.1299753E+00
          2   -1    0    0  501    0  0.00000000000E+00  0.00000000000E+00  0.31495337392E+02  0.31495337392E+02  0.00000000000E+00 0. -1.
         -2   -1    0    0    0  501 -0.00000000000E+00 -0.00000000000E+00 -0.66154048505E+02  0.66154048505E+02  0.00000000000E+00 0.  1.
         23    2    1    2    0    0  0.00000000000E+00  0.00000000000E+00 -0.34658711113E+02  0.97649385897E+02  0.91291709975E+02 0.  0.
        -11    1    3    3    0    0  0.86443156891E+01  0.37045956823E+02  0.96548135120E+01  0.39247197793E+02  0.00000000000E+00 0.  1.
         11    1    3    3    0    0 -0.86443156891E+01 -0.37045956823E+02 -0.44313524625E+02  0.58402188104E+02  0.00000000000E+00 0. -1.
<mgrwt>
<rscale>  0 0.91291710E+02</rscale>
<asrwt>0</asrwt>
<pdfrwt beam="1">  1        2 0.48454365E-02 0.91291710E+02</pdfrwt>
<pdfrwt beam="2">  1       -2 0.10177546E-01 0.91291710E+02</pdfrwt>
<totfact> 0.89284349E+04</totfact>
</mgrwt>
</event>
<event>
 5    1  0.1239369E+001  0.9445577E+02  0.7546771E-02  0.1292407E+00
         -1   -1    0    0    0  501 -0.00000000000E+00  0.00000000000E+00  0.13212848133E+02  0.13212848133E+02  0.00000000000E+00 0.  1.
          1   -1    0    0  501    0  0.00000000000E+00 -0.00000000000E+00 -0.16881091049E+03  0.16881091049E+03  0.00000000000E+00 0. -1.
         23    2    1    2    0    0  0.00000000000E+00  0.00000000000E+00 -0.15559806235E+03  0.18202375862E+03  0.94455765806E+02 0.  0.
        -13    1    3    3    0    0  0.27228627543E+00  0.44013207630E+02 -0.11079861767E+03  0.11922067884E+03  0.00000000000E+00 0.  1.
         13    1    3    3    0    0 -0.27228627543E+00 -0.44013207630E+02 -0.44799444678E+02  0.62803079774E+02  0.00000000000E+00 0. -1.
<mgrwt>
<rscale>  0 0.94455766E+02</rscale>
<asrwt>0</asrwt>
<pdfrwt beam="2">  1        1 0.25970910E-01 0.94455766E+02</pdfrwt>
<pdfrwt beam="1">  1       -1 0.20327458E-02 0.94455766E+02</pdfrwt>
<totfact> 0.10420189E+05</totfact>
</mgrwt>
</event>
<event>
 5    1  0.1239369E+001  0.9010195E+02  0.7546771E-02  0.1302605E+00
          2   -1    0    0  501    0  0.00000000000E+00  0.00000000000E+00  0.67294454622E+02  0.67294454622E+02  0.00000000000E+00 0. -1.
         -2   -1    0    0    0  501 -0.00000000000E+00 -0.00000000000E+00 -0.30159847528E+02  0.30159847528E+02  0.00000000000E+00 0.  1.
         23    2    1    2    0    0  0.00000000000E+00  0.00000000000E+00  0.37134607093E+02  0.97454302150E+02  0.90101953162E+02 0.  0.
        -13    1    3    3    0    0 -0.29421502600E+00 -0.43520162863E+02  0.59770226110E+01  0.43929670354E+02  0.00000000000E+00 0.  1.
         13    1    3    3    0    0  0.29421502600E+00  0.43520162863E+02  0.31157584482E+02  0.53524631796E+02  0.00000000000E+00 0. -1.
<mgrwt>
<rscale>  0 0.90101953E+02</rscale>
<asrwt>0</asrwt>
<pdfrwt beam="1">  1        2 0.10352993E-01 0.90101953E+02</pdfrwt>
<pdfrwt beam="2">  1       -2 0.46399766E-02 0.90101953E+02</pdfrwt>
<totfact> 0.11311579E+05</totfact>
</mgrwt>
</event>
<event>
 5    1  0.1239369E+001  0.7517561E+02  0.7546771E-02  0.1343328E+00
         -2   -1    0    0    0  501 -0.00000000000E+00  0.00000000000E+00  0.57943814151E+02  0.57943814151E+02  0.00000000000E+00 0.  1.
          2   -1    0    0  501    0  0.00000000000E+00 -0.00000000000E+00 -0.24382986047E+02  0.24382986047E+02  0.00000000000E+00 0. -1.
         23    2    1    2    0    0  0.00000000000E+00  0.00000000000E+00  0.33560828104E+02  0.82326800198E+02  0.75175613385E+02 0.  0.
        -11    1    3    3    0    0  0.34641719831E+02  0.12058394131E+02  0.77903939453E+01  0.37498584769E+02  0.00000000000E+00 0. -1.
         11    1    3    3    0    0 -0.34641719831E+02 -0.12058394131E+02  0.25770434159E+02  0.44828215430E+02  0.00000000000E+00 0.  1.
<mgrwt>
<rscale>  0 0.75175613E+02</rscale>
<asrwt>0</asrwt>
<pdfrwt beam="2">  1        2 0.37512286E-02 0.75175613E+02</pdfrwt>
<pdfrwt beam="1">  1       -2 0.89144329E-02 0.75175613E+02</pdfrwt>
<totfact> 0.14776582E+05</totfact>
</mgrwt>
</event>
<event>
 5    1  0.1239369E+001  0.7982911E+02  0.7546771E-02  0.1329537E+00
         -4   -1    0    0    0  501 -0.00000000000E+00  0.00000000000E+00  0.67180307584E+02  0.67180307584E+02  0.00000000000E+00 0.  1.
          4   -1    0    0  501    0  0.00000000000E+00 -0.00000000000E+00 -0.23714862407E+02  0.23714862407E+02  0.00000000000E+00 0. -1.
         23    2    1    2    0    0  0.00000000000E+00  0.00000000000E+00  0.43465445178E+02  0.90895169991E+02  0.79829111251E+02 0.  0.
        -11    1    3    3    0    0  0.27825897279E+02  0.24514442607E+02  0.49237447494E+01  0.37409647393E+02  0.00000000000E+00 0. -1.
         11    1    3    3    0    0 -0.27825897279E+02 -0.24514442607E+02  0.38541700428E+02  0.53485522598E+02  0.00000000000E+00 0.  1.
<mgrwt>
<rscale>  0 0.79829111E+02</rscale>
<asrwt>0</asrwt>
<pdfrwt beam="2">  1        4 0.36484404E-02 0.79829111E+02</pdfrwt>
<pdfrwt beam="1">  1       -4 0.10335432E-01 0.79829111E+02</pdfrwt>
<totfact> 0.38632957E+04</totfact>
</mgrwt>
</event>
<event>
 5    1  0.1239369E+001  0.9776959E+02  0.7546771E-02  0.1285057E+00
          3   -1    0    0  501    0  0.00000000000E+00  0.00000000000E+00  0.22932393380E+03  0.22932393380E+03  0.00000000000E+00 0. -1.
         -3   -1    0    0    0  501 -0.00000000000E+00 -0.00000000000E+00 -0.10420732225E+02  0.10420732225E+02  0.00000000000E+00 0.  1.
         23    2    1    2    0    0  0.00000000000E+00  0.00000000000E+00  0.21890320157E+03  0.23974466602E+03  0.97769592551E+02 0.  0.
        -11    1    3    3    0    0 -0.32054618754E+02 -0.20121210316E+02  0.33579317398E+02  0.50595772995E+02  0.00000000000E+00 0.  1.
         11    1    3    3    0    0  0.32054618754E+02  0.20121210316E+02  0.18532388417E+03  0.18914889303E+03  0.00000000000E+00 0. -1.
<mgrwt>
<rscale>  0 0.97769593E+02</rscale>
<asrwt>0</asrwt>
<pdfrwt beam="1">  1        3 0.35280601E-01 0.97769593E+02</pdfrwt>
<pdfrwt beam="2">  1       -3 0.16031897E-02 0.97769593E+02</pdfrwt>
<totfact> 0.21993383E+04</totfact>
</mgrwt>
</event>
<event>
 5    1  0.1239369E+001  0.8998899E+02  0.7546771E-02  0.1302878E+00
         -2   -1    0    0    0  501 -0.00000000000E+00  0.00000000000E+00  0.10485550641E+02  0.10485550641E+02  0.00000000000E+00 0.  1.
          2   -1    0    0  501    0  0.00000000000E+00 -0.00000000000E+00 -0.19307565719E+03  0.19307565719E+03  0.00000000000E+00 0. -1.
         23    2    1    2    0    0  0.00000000000E+00  0.00000000000E+00 -0.18259010655E+03  0.20356120783E+03  0.89988990017E+02 0.  0.
        -11    1    3    3    0    0  0.37688639404E+02  0.20976208409E+02 -0.12026981427E+03  0.12777035291E+03  0.00000000000E+00 0. -1.
         11    1    3    3    0    0 -0.37688639404E+02 -0.20976208409E+02 -0.62320292281E+02  0.75790854919E+02  0.00000000000E+00 0.  1.
<mgrwt>
<rscale>  0 0.89988990E+02</rscale>
<asrwt>0</asrwt>
<pdfrwt beam="2">  1        2 0.29703947E-01 0.89988990E+02</pdfrwt>
<pdfrwt beam="1">  1       -2 0.16131616E-02 0.89988990E+02</pdfrwt>
<totfact> 0.15821239E+05</totfact>
</mgrwt>
</event>
<event>
 5    1  0.1239369E+001  0.8949828E+02  0.7546771E-02  0.1304071E+00
          1   -1    0    0  501    0  0.00000000000E+00  0.00000000000E+00  0.92347838940E+02  0.92347838940E+02  0.00000000000E+00 0. -1.
         -1   -1    0    0    0  501 -0.00000000000E+00 -0.00000000000E+00 -0.21684163095E+02  0.21684163095E+02  0.00000000000E+00 0.  1.
         23    2    1    2    0    0  0.00000000000E+00  0.00000000000E+00  0.70663675845E+02  0.11403200203E+03  0.89498281571E+02 0.  0.
        -11    1    3    3    0    0 -0.39761980752E+02 -0.24580533412E+01  0.93625419443E+01  0.40923273711E+02  0.00000000000E+00 0.  1.
         11    1    3    3    0    0  0.39761980752E+02  0.24580533412E+01  0.61301133901E+02  0.73108728324E+02  0.00000000000E+00 0. -1.
<mgrwt>
<rscale>  0 0.89498282E+02</rscale>
<asrwt>0</asrwt>
<pdfrwt beam="1">  1        1 0.14207360E-01 0.89498282E+02</pdfrwt>
<pdfrwt beam="2">  1       -1 0.33360251E-02 0.89498282E+02</pdfrwt>
<totfact> 0.10844961E+05</totfact>
</mgrwt>
</event>
<event>
 5    1  0.1239369E+001  0.8475573E+02  0.7546771E-02  0.1316073E+00
          1   -1    0    0  501    0  0.00000000000E+00  0.00000000000E+00  0.10421291109E+03  0.10421291109E+03  0.00000000000E+00 0. -1.
         -1   -1    0    0    0  501 -0.00000000000E+00 -0.00000000000E+00 -0.17232828918E+02  0.17232828918E+02  0.00000000000E+00 0.  1.
         23    2    1    2    0    0  0.00000000000E+00  0.00000000000E+00  0.86980082175E+02  0.12144574001E+03  0.84755725892E+02 0.  0.
        -13    1    3    3    0    0  0.37237947182E+02 -0.18749709222E+02  0.54371240584E+02  0.68516042712E+02  0.00000000000E+00 0. -1.
         13    1    3    3    0    0 -0.37237947182E+02  0.18749709222E+02  0.32608841591E+02  0.52929697299E+02  0.00000000000E+00 0.  1.
<mgrwt>
<rscale>  0 0.84755726E+02</rscale>
<asrwt>0</asrwt>
<pdfrwt beam="1">  1        1 0.16032755E-01 0.84755726E+02</pdfrwt>
<pdfrwt beam="2">  1       -1 0.26512045E-02 0.84755726E+02</pdfrwt>
<totfact> 0.12817260E+05</totfact>
</mgrwt>
</event>
<event>
 5    1  0.1239369E+001  0.8997908E+02  0.7546771E-02  0.1302902E+00
         -1   -1    0    0    0  501 -0.00000000000E+00  0.00000000000E+00  0.18558108423E+03  0.18558108423E+03  0.00000000000E+00 0.  1.
          1   -1    0    0  501    0  0.00000000000E+00 -0.00000000000E+00 -0.10906600185E+02  0.10906600185E+02  0.00000000000E+00 0. -1.
         23    2    1    2    0    0  0.00000000000E+00  0.00000000000E+00  0.17467448404E+03  0.19648768441E+03  0.89979079516E+02 0.  0.
        -13    1    3    3    0    0 -0.21298219176E+02  0.25338054949E+02  0.15387494298E+03  0.15739481963E+03  0.00000000000E+00 0.  1.
         13    1    3    3    0    0  0.21298219176E+02 -0.25338054949E+02  0.20799541061E+02  0.39092864784E+02  0.00000000000E+00 0. -1.
<mgrwt>
<rscale>  0 0.89979080E+02</rscale>
<asrwt>0</asrwt>
<pdfrwt beam="2">  1        1 0.16779386E-02 0.89979080E+02</pdfrwt>
<pdfrwt beam="1">  1       -1 0.28550934E-01 0.89979080E+02</pdfrwt>
<totfact> 0.73366344E+04</totfact>
</mgrwt>
</event>
<event>
 5    1  0.1239369E+001  0.8984178E+02  0.7546771E-02  0.1303235E+00
          2   -1    0    0  501    0  0.00000000000E+00  0.00000000000E+00  0.15537040495E+03  0.15537040495E+03  0.00000000000E+00 0. -1.
         -2   -1    0    0    0  501 -0.00000000000E+00 -0.00000000000E+00 -0.12987585358E+02  0.12987585358E+02  0.00000000000E+00 0.  1.
         23    2    1    2    0    0  0.00000000000E+00  0.00000000000E+00  0.14238281959E+03  0.16835799030E+03  0.89841780845E+02 0.  0.
        -13    1    3    3    0    0  0.36802717021E+02 -0.10302668841E+02  0.11542991664E+03  0.12159214868E+03  0.00000000000E+00 0. -1.
         13    1    3    3    0    0 -0.36802717021E+02  0.10302668841E+02  0.26952902947E+02  0.46765841622E+02  0.00000000000E+00 0.  1.
<mgrwt>
<rscale>  0 0.89841781E+02</rscale>
<asrwt>0</asrwt>
<pdfrwt beam="1">  1        2 0.23903138E-01 0.89841781E+02</pdfrwt>
<pdfrwt beam="2">  1       -2 0.19980902E-02 0.89841781E+02</pdfrwt>
<totfact> 0.14726381E+05</totfact>
</mgrwt>
</event>
<event>
 5    1  0.1239369E+001  0.8998928E+02  0.7546771E-02  0.1302878E+00
          1   -1    0    0  501    0  0.00000000000E+00  0.00000000000E+00  0.43647808010E+02  0.43647808010E+02  0.00000000000E+00 0. -1.
         -1   -1    0    0    0  501 -0.00000000000E+00 -0.00000000000E+00 -0.46383026966E+02  0.46383026966E+02  0.00000000000E+00 0.  1.
         23    2    1    2    0    0  0.00000000000E+00  0.00000000000E+00 -0.27352189554E+01  0.90030834976E+02  0.89989276160E+02 0.  0.
        -13    1    3    3    0    0  0.30239825292E+02 -0.21136629775E+02  0.24399154147E+02  0.44232599687E+02  0.00000000000E+00 0. -1.
         13    1    3    3    0    0 -0.30239825292E+02  0.21136629775E+02 -0.27134373103E+02  0.45798235289E+02  0.00000000000E+00 0.  1.
<mgrwt>
<rscale>  0 0.89989276E+02</rscale>
<asrwt>0</asrwt>
<pdfrwt beam="1">  1        1 0.67150474E-02 0.89989276E+02</pdfrwt>
<pdfrwt beam="2">  1       -1 0.71358503E-02 0.89989276E+02</pdfrwt>
<totfact> 0.95313144E+04</totfact>
</mgrwt>
</event>
<event>
 5    1  0.1239369E+001  0.8389537E+02  0.7546771E-02  0.1318347E+00
          1   -1    0    0  501    0  0.00000000000E+00  0.00000000000E+00  0.14396519864E+02  0.14396519864E+02  0.00000000000E+00 0. -1.
         -1   -1    0    0    0  501 -0.00000000000E+00 -0.00000000000E+00 -0.12222454730E+03  0.12222454730E+03  0.00000000000E+00 0.  1.
         23    2    1    2    0    0  0.00000000000E+00  0.00000000000E+00 -0.10782802744E+03  0.13662106717E+03  0.83895366335E+02 0.  0.
        -13    1    3    3    0    0  0.12312075948E+02 -0.38902332186E+02 -0.69755388848E+02  0.80813321531E+02  0.00000000000E+00 0.  1.
         13    1    3    3    0    0 -0.12312075948E+02  0.38902332186E+02 -0.38072638590E+02  0.55807745635E+02  0.00000000000E+00 0. -1.
<mgrwt>
<rscale>  0 0.83895366E+02</rscale>
<asrwt>0</asrwt>
<pdfrwt beam="1">  1        1 0.22148491E-02 0.83895366E+02</pdfrwt>
<pdfrwt beam="2">  1       -1 0.18803777E-01 0.83895366E+02</pdfrwt>
<totfact> 0.96971024E+04</totfact>
</mgrwt>
</event>
<event>
 5    1  0.1239369E+001  0.9346202E+02  0.7546771E-02  0.1294678E+00
          3   -1    0    0  501    0  0.00000000000E+00  0.00000000000E+00  0.23072702079E+02  0.23072702079E+02  0.00000000000E+00 0. -1.
         -3   -1    0    0    0  501 -0.00000000000E+00 -0.00000000000E+00 -0.94648086159E+02  0.94648086159E+02  0.00000000000E+00 0.  1.
         23    2    1    2    0    0  0.00000000000E+00  0.00000000000E+00 -0.71575384080E+02  0.11772078824E+03  0.93462015691E+02 0.  0.
        -13    1    3    3    0    0 -0.21406389707E+02  0.10112709436E+02  0.14959922323E+02  0.28005351067E+02  0.00000000000E+00 0. -1.
         13    1    3    3    0    0  0.21406389707E+02 -0.10112709436E+02 -0.86535306403E+02  0.89715437171E+02  0.00000000000E+00 0.  1.
<mgrwt>
<rscale>  0 0.93462016E+02</rscale>
<asrwt>0</asrwt>
<pdfrwt beam="1">  1        3 0.35496465E-02 0.93462016E+02</pdfrwt>
<pdfrwt beam="2">  1       -3 0.14561244E-01 0.93462016E+02</pdfrwt>
<totfact> 0.31225905E+04</totfact>
</mgrwt>
</event>
<event>
 5    1  0.1239369E+001  0.8948684E+02  0.7546771E-02  0.1304099E+00
         -2   -1    0    0    0  501 -0.00000000000E+00  0.00000000000E+00  0.13576590923E+03  0.13576590923E+03  0.00000000000E+00 0.  1.
          2   -1    0    0  501    0  0.00000000000E+00 -0.00000000000E+00 -0.14745777256E+02  0.14745777256E+02  0.00000000000E+00 0. -1.
         23    2    1    2    0    0  0.00000000000E+00  0.00000000000E+00  0.12102013197E+03  0.15051168648E+03  0.89486844989E+02 0.  0.
        -13    1    3    3    0    0  0.11019543213E+02 -0.43323686405E+02  0.63702088967E+02  0.77822414991E+02  0.00000000000E+00 0.  1.
         13    1    3    3    0    0 -0.11019543213E+02  0.43323686405E+02  0.57318043005E+02  0.72689271494E+02  0.00000000000E+00 0. -1.
<mgrwt>
<rscale>  0 0.89486845E+02</rscale>
<asrwt>0</asrwt>
<pdfrwt beam="2">  1        2 0.22685812E-02 0.89486845E+02</pdfrwt>
<pdfrwt beam="1">  1       -2 0.20887062E-01 0.89486845E+02</pdfrwt>
<totfact> 0.75862541E+04</totfact>
</mgrwt>
</event>
