<event>
 5    1  0.7934596E-005  0.1250000E+03  0.7818608E-02  0.1235069E+00
         21   -1    0    0  502  501  0.00000000000E+00  0.00000000000E+00  0.39745058802E+03  0.39745058802E+03  0.00000000000E+00 0. -1.
         21   -1    0    0  501  502 -0.00000000000E+00 -0.00000000000E+00 -0.98282687017E+01  0.98282687017E+01  0.00000000000E+00 0. -1.
         25    2    1    2    0    0  0.00000000000E+00  0.00000000000E+00  0.38762231932E+03  0.40727885672E+03  0.12500001879E+03 0.  0.
        -13    1    3    3    0    0  0.26910419605E+02 -0.56332857182E+02  0.20340968761E+03  0.21277470166E+03  0.10570000000E+00 0. -1.
         13    1    3    3    0    0 -0.26910419605E+02  0.56332857182E+02  0.18421263171E+03  0.19450415506E+03  0.10570000000E+00 0. -1.
<mgrwt>
<rscale>  0 0.12500002E+03</rscale>
<asrwt>0</asrwt>
<pdfrwt beam="1">  1       21 0.61146232E-01 0.12500002E+03</pdfrwt>
<pdfrwt beam="2">  1       21 0.15120416E-02 0.12500002E+03</pdfrwt>
<totfact> 0.47562253E+06</totfact>
</mgrwt>
</event>
<event>
 5    1  0.7934596E-005  0.1250017E+03  0.7818608E-02  0.1235067E+00
         21   -1    0    0  502  501  0.00000000000E+00  0.00000000000E+00  0.39727592454E+02  0.39727592454E+02  0.00000000000E+00 0.  1.
         21   -1    0    0  501  502 -0.00000000000E+00 -0.00000000000E+00 -0.98328601173E+02  0.98328601173E+02  0.00000000000E+00 0.  1.
         25    2    1    2    0    0  0.00000000000E+00  0.00000000000E+00 -0.58601008720E+02  0.13805619363E+03  0.12500173749E+03 0.  0.
        -13    1    3    3    0    0  0.31307259843E+02 -0.84509161479E+01 -0.88310630431E+02  0.94076251638E+02  0.10570000000E+00 0.  1.
         13    1    3    3    0    0 -0.31307259843E+02  0.84509161479E+01  0.29709621711E+02  0.43979941989E+02  0.10570000000E+00 0.  1.
<mgrwt>
<rscale>  0 0.12500174E+03</rscale>
<asrwt>0</asrwt>
<pdfrwt beam="1">  1       21 0.61119374E-02 0.12500174E+03</pdfrwt>
<pdfrwt beam="2">  1       21 0.15127477E-01 0.12500174E+03</pdfrwt>
<totfact> 0.72290895E+06</totfact>
</mgrwt>
</event>
<event>
 5    1  0.7934596E-005  0.1249997E+03  0.7818608E-02  0.1235070E+00
         21   -1    0    0  502  501  0.00000000000E+00  0.00000000000E+00  0.97249416021E+02  0.97249416021E+02  0.00000000000E+00 0. -1.
         21   -1    0    0  501  502 -0.00000000000E+00 -0.00000000000E+00 -0.40167161586E+02  0.40167161586E+02  0.00000000000E+00 0. -1.
         25    2    1    2    0    0  0.00000000000E+00  0.00000000000E+00  0.57082254434E+02  0.13741657761E+03  0.12499972812E+03 0.  0.
        -13    1    3    3    0    0 -0.16257778994E+02 -0.76446480511E+01  0.94349581861E+02  0.96044837401E+02  0.10570000000E+00 0. -1.
         13    1    3    3    0    0  0.16257778994E+02  0.76446480511E+01 -0.37267327427E+02  0.41371740206E+02  0.10570000000E+00 0. -1.
<mgrwt>
<rscale>  0 0.12499973E+03</rscale>
<asrwt>0</asrwt>
<pdfrwt beam="1">  1       21 0.14961449E-01 0.12499973E+03</pdfrwt>
<pdfrwt beam="2">  1       21 0.61795634E-02 0.12499973E+03</pdfrwt>
<totfact> 0.72378556E+06</totfact>
</mgrwt>
</event>
<event>
 5    1  0.7934596E-005  0.1250032E+03  0.7818608E-02  0.1235064E+00
         21   -1    0    0  502  501  0.00000000000E+00  0.00000000000E+00  0.49839605812E+02  0.49839605812E+02  0.00000000000E+00 0. -1.
         21   -1    0    0  501  502 -0.00000000000E+00 -0.00000000000E+00 -0.78380493942E+02  0.78380493942E+02  0.00000000000E+00 0. -1.
         25    2    1    2    0    0  0.00000000000E+00  0.00000000000E+00 -0.28540888130E+02  0.12822009975E+03  0.12500324670E+03 0.  0.
        -13    1    3    3    0    0  0.35984524537E+02  0.49737454558E+02 -0.22320932331E+01  0.61430398052E+02  0.10570000000E+00 0.  1.
         13    1    3    3    0    0 -0.35984524537E+02 -0.49737454558E+02 -0.26308794897E+02  0.66789701702E+02  0.10570000000E+00 0.  1.
<mgrwt>
<rscale>  0 0.12500325E+03</rscale>
<asrwt>0</asrwt>
<pdfrwt beam="1">  1       21 0.76676317E-02 0.12500325E+03</pdfrwt>
<pdfrwt beam="2">  1       21 0.12058538E-01 0.12500325E+03</pdfrwt>
<totfact> 0.73597747E+06</totfact>
</mgrwt>
</event>
<event>
 5    1  0.7934596E-005  0.1250014E+03  0.7818608E-02  0.1235067E+00
         21   -1    0    0  502  501  0.00000000000E+00  0.00000000000E+00  0.37079113456E+03  0.37079113456E+03  0.00000000000E+00 0.  1.
         21   -1    0    0  501  502 -0.00000000000E+00 -0.00000000000E+00 -0.10535148215E+02  0.10535148215E+02  0.00000000000E+00 0.  1.
         25    2    1    2    0    0  0.00000000000E+00  0.00000000000E+00  0.36025598634E+03  0.38132628277E+03  0.12500143294E+03 0.  0.
        -13    1    3    3    0    0 -0.52745374196E+02  0.33364939565E+02  0.19026155040E+03  0.20023676592E+03  0.10570000000E+00 0.  1.
         13    1    3    3    0    0  0.52745374196E+02 -0.33364939565E+02  0.16999443594E+03  0.18108951685E+03  0.10570000000E+00 0.  1.
<mgrwt>
<rscale>  0 0.12500143E+03</rscale>
<asrwt>0</asrwt>
<pdfrwt beam="1">  1       21 0.57044780E-01 0.12500143E+03</pdfrwt>
<pdfrwt beam="2">  1       21 0.16207923E-02 0.12500143E+03</pdfrwt>
<totfact> 0.49303133E+06</totfact>
</mgrwt>
</event>
<event>
 5    1  0.7934596E-005  0.1249985E+03  0.7818608E-02  0.1235072E+00
         21   -1    0    0  502  501  0.00000000000E+00  0.00000000000E+00  0.32371853831E+02  0.32371853831E+02  0.00000000000E+00 0. -1.
         21   -1    0    0  501  502 -0.00000000000E+00 -0.00000000000E+00 -0.12066526961E+03  0.12066526961E+03  0.00000000000E+00 0. -1.
         25    2    1    2    0    0  0.00000000000E+00  0.00000000000E+00 -0.88293415784E+02  0.15303712345E+03  0.12499853552E+03 0.  0.
        -13    1    3    3    0    0  0.27160059944E+02 -0.13113243980E+02  0.22872694623E+02  0.37852309779E+02  0.10570000000E+00 0. -1.
         13    1    3    3    0    0 -0.27160059944E+02  0.13113243980E+02 -0.11116611041E+03  0.11518481367E+03  0.10570000000E+00 0. -1.
<mgrwt>
<rscale>  0 0.12499854E+03</rscale>
<asrwt>0</asrwt>
<pdfrwt beam="1">  1       21 0.49802852E-02 0.12499854E+03</pdfrwt>
<pdfrwt beam="2">  1       21 0.18563887E-01 0.12499854E+03</pdfrwt>
<totfact> 0.70382358E+06</totfact>
</mgrwt>
</event>
<event>
 5    1  0.7934596E-005  0.1250000E+03  0.7818608E-02  0.1235069E+00
         21   -1    0    0  502  501  0.00000000000E+00  0.00000000000E+00  0.18119412539E+03  0.18119412539E+03  0.00000000000E+00 0.  1.
         21   -1    0    0  501  502 -0.00000000000E+00 -0.00000000000E+00 -0.21558356626E+02  0.21558356626E+02  0.00000000000E+00 0.  1.
         25    2    1    2    0    0  0.00000000000E+00  0.00000000000E+00  0.15963576876E+03  0.20275248201E+03  0.12499996118E+03 0.  0.
        -13    1    3    3    0    0  0.18368147151E+02 -0.33184415900E+02 -0.75657270435E+00  0.37936497772E+02  0.10570000000E+00 0. -1.
         13    1    3    3    0    0 -0.18368147151E+02  0.33184415900E+02  0.16039234147E+03  0.16481598424E+03  0.10570000000E+00 0. -1.
<mgrwt>
<rscale>  0 0.12499996E+03</rscale>
<asrwt>0</asrwt>
<pdfrwt beam="1">  1       21 0.27876018E-01 0.12499996E+03</pdfrwt>
<pdfrwt beam="2">  1       21 0.33166704E-02 0.12499996E+03</pdfrwt>
<totfact> 0.64630281E+06</totfact>
</mgrwt>
</event>
<event>
 5    1  0.7934596E-005  0.1250005E+03  0.7818608E-02  0.1235068E+00
         21   -1    0    0  502  501  0.00000000000E+00  0.00000000000E+00  0.11003947527E+02  0.11003947527E+02  0.00000000000E+00 0.  1.
         21   -1    0    0  501  502 -0.00000000000E+00 -0.00000000000E+00 -0.35498931961E+03  0.35498931961E+03  0.00000000000E+00 0.  1.
         25    2    1    2    0    0  0.00000000000E+00  0.00000000000E+00 -0.34398537208E+03  0.36599326714E+03  0.12500054153E+03 0.  0.
        -13    1    3    3    0    0 -0.49797781790E+02 -0.51115324458E+01 -0.62426699685E+02  0.80019065486E+02  0.10570000000E+00 0.  1.
         13    1    3    3    0    0  0.49797781790E+02  0.51115324458E+01 -0.28155867240E+03  0.28597420165E+03  0.10570000000E+00 0.  1.
<mgrwt>
<rscale>  0 0.12500054E+03</rscale>
<asrwt>0</asrwt>
<pdfrwt beam="1">  1       21 0.16929148E-02 0.12500054E+03</pdfrwt>
<pdfrwt beam="2">  1       21 0.54613748E-01 0.12500054E+03</pdfrwt>
<totfact> 0.50377855E+06</totfact>
</mgrwt>
</event>
<event>
 5    1  0.7934596E-005  0.1250002E+03  0.7818608E-02  0.1235069E+00
         21   -1    0    0  502  501  0.00000000000E+00  0.00000000000E+00  0.97881435282E+02  0.97881435282E+02  0.00000000000E+00 0. -1.
         21   -1    0    0  501  502 -0.00000000000E+00 -0.00000000000E+00 -0.39908075940E+02  0.39908075940E+02  0.00000000000E+00 0. -1.
         25    2    1    2    0    0  0.00000000000E+00  0.00000000000E+00  0.57973359342E+02  0.13778951122E+03  0.12500015604E+03 0.  0.
        -13    1    3    3    0    0  0.14137826213E+02  0.54658246803E+02  0.58541184515E+02  0.81329475165E+02  0.10570000000E+00 0.  1.
         13    1    3    3    0    0 -0.14137826213E+02 -0.54658246803E+02 -0.56782517281E+00  0.56460036057E+02  0.10570000000E+00 0.  1.
<mgrwt>
<rscale>  0 0.12500016E+03</rscale>
<asrwt>0</asrwt>
<pdfrwt beam="1">  1       21 0.15058682E-01 0.12500016E+03</pdfrwt>
<pdfrwt beam="2">  1       21 0.61397040E-02 0.12500016E+03</pdfrwt>
<totfact> 0.72328897E+06</totfact>
</mgrwt>
</event>
<event>
 5    1  0.7934596E-005  0.1249990E+03  0.7818608E-02  0.1235071E+00
         21   -1    0    0  502  501  0.00000000000E+00  0.00000000000E+00  0.40070465011E+03  0.40070465011E+03  0.00000000000E+00 0. -1.
         21   -1    0    0  501  502 -0.00000000000E+00 -0.00000000000E+00 -0.97482882846E+01  0.97482882846E+01  0.00000000000E+00 0. -1.
         25    2    1    2    0    0  0.00000000000E+00  0.00000000000E+00  0.39095636183E+03  0.41045293840E+03  0.12499895114E+03 0.  0.
        -13    1    3    3    0    0  0.22186349215E+02 -0.58346229772E+02  0.18527418373E+03  0.19550716342E+03  0.10570000000E+00 0.  1.
         13    1    3    3    0    0 -0.22186349215E+02  0.58346229772E+02  0.20568217810E+03  0.21494577497E+03  0.10570000000E+00 0.  1.
<mgrwt>
<rscale>  0 0.12499895E+03</rscale>
<asrwt>0</asrwt>
<pdfrwt beam="1">  1       21 0.61646856E-01 0.12499895E+03</pdfrwt>
<pdfrwt beam="2">  1       21 0.14997370E-02 0.12499895E+03</pdfrwt>
<totfact> 0.47356907E+06</totfact>
</mgrwt>
</event>
<event>
 5    1  0.7934596E-005  0.1250013E+03  0.7818608E-02  0.1235067E+00
         21   -1    0    0  502  501  0.00000000000E+00  0.00000000000E+00  0.11352801217E+03  0.11352801217E+03  0.00000000000E+00 0. -1.
         21   -1    0    0  501  502 -0.00000000000E+00 -0.00000000000E+00 -0.34408540347E+02  0.34408540347E+02  0.00000000000E+00 0. -1.
         25    2    1    2    0    0  0.00000000000E+00  0.00000000000E+00  0.79119471825E+02  0.14793655252E+03  0.12500133099E+03 0.  0.
        -13    1    3    3    0    0 -0.11275061012E+02  0.42689339586E+02  0.91912036849E+02  0.10196734970E+03  0.10570000000E+00 0. -1.
         13    1    3    3    0    0  0.11275061012E+02 -0.42689339586E+02 -0.12792565025E+02  0.45969202815E+02  0.10570000000E+00 0. -1.
<mgrwt>
<rscale>  0 0.12500133E+03</rscale>
<asrwt>0</asrwt>
<pdfrwt beam="1">  1       21 0.17465848E-01 0.12500133E+03</pdfrwt>
<pdfrwt beam="2">  1       21 0.52936216E-02 0.12500133E+03</pdfrwt>
<totfact> 0.71016973E+06</totfact>
</mgrwt>
</event>
<event>
 5    1  0.7934596E-005  0.1250000E+03  0.7818608E-02  0.1235069E+00
         21   -1    0    0  502  501  0.00000000000E+00  0.00000000000E+00  0.10928143529E+02  0.10928143529E+02  0.00000000000E+00 0. -1.
         21   -1    0    0  501  502 -0.00000000000E+00 -0.00000000000E+00 -0.35744848996E+03  0.35744848996E+03  0.00000000000E+00 0. -1.
         25    2    1    2    0    0  0.00000000000E+00  0.00000000000E+00 -0.34652034643E+03  0.36837663349E+03  0.12499997444E+03 0.  0.
        -13    1    3    3    0    0  0.18009503334E+02 -0.58936585362E+02 -0.20393941009E+03  0.21304731274E+03  0.10570000000E+00 0.  1.
         13    1    3    3    0    0 -0.18009503334E+02  0.58936585362E+02 -0.14258093634E+03  0.15532932075E+03  0.10570000000E+00 0.  1.
<mgrwt>
<rscale>  0 0.12499997E+03</rscale>
<asrwt>0</asrwt>
<pdfrwt beam="1">  1       21 0.16812528E-02 0.12499997E+03</pdfrwt>
<pdfrwt beam="2">  1       21 0.54992076E-01 0.12499997E+03</pdfrwt>
<totfact> 0.50209277E+06</totfact>
</mgrwt>
</event>
<event>
 5    1  0.7934596E-005  0.1250000E+03  0.7818608E-02  0.1235069E+00
         21   -1    0    0  502  501  0.00000000000E+00  0.00000000000E+00  0.79809186319E+01  0.79809186319E+01  0.00000000000E+00 0.  1.
         21   -1    0    0  501  502 -0.00000000000E+00 -0.00000000000E+00 -0.48944884253E+03  0.48944884253E+03  0.00000000000E+00 0.  1.
         25    2    1    2    0    0  0.00000000000E+00  0.00000000000E+00 -0.48146792390E+03  0.49742976117E+03  0.12500002219E+03 0.  0.
        -13    1    3    3    0    0  0.27981968070E+02  0.51937555431E+02 -0.15862436696E+03  0.16924006962E+03  0.10570000000E+00 0. -1.
         13    1    3    3    0    0 -0.27981968070E+02 -0.51937555431E+02 -0.32284355694E+03  0.32818969154E+03  0.10570000000E+00 0. -1.
<mgrwt>
<rscale>  0 0.12500002E+03</rscale>
<asrwt>0</asrwt>
<pdfrwt beam="1">  1       21 0.12278334E-02 0.12500002E+03</pdfrwt>
<pdfrwt beam="2">  1       21 0.75299837E-01 0.12500002E+03</pdfrwt>
<totfact> 0.42183776E+06</totfact>
</mgrwt>
</event>
<event>
 5    1  0.7934596E-005  0.1250022E+03  0.7818608E-02  0.1235066E+00
         21   -1    0    0  502  501  0.00000000000E+00  0.00000000000E+00  0.27654029608E+03  0.27654029608E+03  0.00000000000E+00 0.  1.
         21   -1    0    0  501  502 -0.00000000000E+00 -0.00000000000E+00 -0.14125936227E+02  0.14125936227E+02  0.00000000000E+00 0.  1.
         25    2    1    2    0    0  0.00000000000E+00  0.00000000000E+00  0.26241435986E+03  0.29066623231E+03  0.12500224937E+03 0.  0.
        -13    1    3    3    0    0 -0.36336349921E+02 -0.46380116465E+02  0.82713138920E+02  0.10155254823E+03  0.10570000000E+00 0. -1.
         13    1    3    3    0    0  0.36336349921E+02  0.46380116465E+02  0.17970122094E+03  0.18911368408E+03  0.10570000000E+00 0. -1.
<mgrwt>
<rscale>  0 0.12500225E+03</rscale>
<asrwt>0</asrwt>
<pdfrwt beam="1">  1       21 0.42544657E-01 0.12500225E+03</pdfrwt>
<pdfrwt beam="2">  1       21 0.21732212E-02 0.12500225E+03</pdfrwt>
<totfact> 0.56237699E+06</totfact>
</mgrwt>
</event>
<event>
 5    1  0.7934596E-005  0.1250011E+03  0.7818608E-02  0.1235068E+00
         21   -1    0    0  502  501  0.00000000000E+00  0.00000000000E+00  0.12699830320E+02  0.12699830320E+02  0.00000000000E+00 0.  1.
         21   -1    0    0  501  502 -0.00000000000E+00 -0.00000000000E+00 -0.30758806911E+03  0.30758806911E+03  0.00000000000E+00 0.  1.
         25    2    1    2    0    0  0.00000000000E+00  0.00000000000E+00 -0.29488823879E+03  0.32028789943E+03  0.12500106057E+03 0.  0.
        -13    1    3    3    0    0 -0.19937034091E+02 -0.59061172824E+02 -0.13581529884E+03  0.14943732477E+03  0.10570000000E+00 0. -1.
         13    1    3    3    0    0  0.19937034091E+02  0.59061172824E+02 -0.15907293995E+03  0.17085057465E+03  0.10570000000E+00 0. -1.
<mgrwt>
<rscale>  0 0.12500106E+03</rscale>
<asrwt>0</asrwt>
<pdfrwt beam="1">  1       21 0.19538203E-02 0.12500106E+03</pdfrwt>
<pdfrwt beam="2">  1       21 0.47321236E-01 0.12500106E+03</pdfrwt>
<totfact> 0.53809107E+06</totfact>
</mgrwt>
</event>
<event>
 4    1  0.7934596E-005  0.1240474E+03  0.7818608E-02  0.1236566E+00
         21   -1    0    0  502  501  0.00000000000E+00  0.00000000000E+00  0.11085851523E+03  0.11085851523E+03  0.00000000000E+00 0.  1.
         21   -1    0    0  501  502 -0.00000000000E+00 -0.00000000000E+00 -0.34701351599E+02  0.34701351599E+02  0.00000000000E+00 0.  1.
        -13    1    1    2    0    0  0.42341193446E+02 -0.11155581705E+02 -0.13467949329E+02  0.45810702867E+02  0.10570000000E+00 0. -1.
         13    1    1    2    0    0 -0.42341193446E+02  0.11155581705E+02  0.89625112963E+02  0.99749163965E+02  0.10570000000E+00 0. -1.
<mgrwt>
<rscale>  0 0.12404742E+03</rscale>
<asrwt>0</asrwt>
<pdfrwt beam="1">  1       21 0.17055156E-01 0.12404742E+03</pdfrwt>
<pdfrwt beam="2">  1       21 0.53386695E-02 0.12404742E+03</pdfrwt>
<totfact> 0.73078918E+06</totfact>
</mgrwt>
</event>
<event>
 5    1  0.7934596E-005  0.1250002E+03  0.7818608E-02  0.1235069E+00
         21   -1    0    0  502  501  0.00000000000E+00  0.00000000000E+00  0.12820102565E+02  0.12820102565E+02  0.00000000000E+00 0. -1.
         21   -1    0    0  501  502 -0.00000000000E+00 -0.00000000000E+00 -0.30469845192E+03  0.30469845192E+03  0.00000000000E+00 0. -1.
         25    2    1    2    0    0  0.00000000000E+00  0.00000000000E+00 -0.29187834936E+03  0.31751855449E+03  0.12500024648E+03 0.  0.
        -13    1    3    3    0    0 -0.25318391987E+02 -0.55262571991E+02 -0.10901686428E+03  0.12481851107E+03  0.10570000000E+00 0.  1.
         13    1    3    3    0    0  0.25318391987E+02  0.55262571991E+02 -0.18286148508E+03  0.19270004342E+03  0.10570000000E+00 0.  1.
<mgrwt>
<rscale>  0 0.12500025E+03</rscale>
<asrwt>0</asrwt>
<pdfrwt beam="1">  1       21 0.19723234E-02 0.12500025E+03</pdfrwt>
<pdfrwt beam="2">  1       21 0.46876687E-01 0.12500025E+03</pdfrwt>
<totfact> 0.54030237E+06</totfact>
</mgrwt>
</event>
<event>
 5    1  0.7934596E-005  0.1249998E+03  0.7818608E-02  0.1235070E+00
         21   -1    0    0  502  501  0.00000000000E+00  0.00000000000E+00  0.43987985218E+02  0.43987985218E+02  0.00000000000E+00 0. -1.
         21   -1    0    0  501  502 -0.00000000000E+00 -0.00000000000E+00 -0.88802377616E+02  0.88802377616E+02  0.00000000000E+00 0. -1.
         25    2    1    2    0    0  0.00000000000E+00  0.00000000000E+00 -0.44814392397E+02  0.13279036283E+03  0.12499980278E+03 0.  0.
        -13    1    3    3    0    0 -0.30377525782E+02  0.40050426206E+02 -0.61862162589E+02  0.79710532833E+02  0.10570000000E+00 0. -1.
         13    1    3    3    0    0  0.30377525782E+02 -0.40050426206E+02  0.17047770191E+02  0.53079830001E+02  0.10570000000E+00 0. -1.
<mgrwt>
<rscale>  0 0.12499980E+03</rscale>
<asrwt>0</asrwt>
<pdfrwt beam="1">  1       21 0.67673824E-02 0.12499980E+03</pdfrwt>
<pdfrwt beam="2">  1       21 0.13661904E-01 0.12499980E+03</pdfrwt>
<totfact> 0.72990772E+06</totfact>
</mgrwt>
</event>
<event>
 5    1  0.7934596E-005  0.1250022E+03  0.7818608E-02  0.1235066E+00
         21   -1    0    0  502  501  0.00000000000E+00  0.00000000000E+00  0.53609560742E+02  0.53609560742E+02  0.00000000000E+00 0. -1.
         21   -1    0    0  501  502 -0.00000000000E+00 -0.00000000000E+00 -0.72867375975E+02  0.72867375975E+02  0.00000000000E+00 0. -1.
         25    2    1    2    0    0  0.00000000000E+00  0.00000000000E+00 -0.19257815233E+02  0.12647693672E+03  0.12500220827E+03 0.  0.
        -13    1    3    3    0    0 -0.27251128270E+02 -0.35702066053E+02  0.34347817979E+02  0.56542420224E+02  0.10570000000E+00 0. -1.
         13    1    3    3    0    0  0.27251128270E+02  0.35702066053E+02 -0.53605633212E+02  0.69934516492E+02  0.10570000000E+00 0. -1.
<mgrwt>
<rscale>  0 0.12500221E+03</rscale>
<asrwt>0</asrwt>
<pdfrwt beam="1">  1       21 0.82476247E-02 0.12500221E+03</pdfrwt>
<pdfrwt beam="2">  1       21 0.11210366E-01 0.12500221E+03</pdfrwt>
<totfact> 0.73836369E+06</totfact>
</mgrwt>
</event>
<event>
 5    1  0.7934596E-005  0.1250007E+03  0.7818608E-02  0.1235068E+00
         21   -1    0    0  502  501  0.00000000000E+00  0.00000000000E+00  0.20610890227E+02  0.20610890227E+02  0.00000000000E+00 0.  1.
         21   -1    0    0  501  502 -0.00000000000E+00 -0.00000000000E+00 -0.18952564484E+03  0.18952564484E+03  0.00000000000E+00 0.  1.
         25    2    1    2    0    0  0.00000000000E+00  0.00000000000E+00 -0.16891475461E+03  0.21013653507E+03  0.12500067617E+03 0.  0.
        -13    1    3    3    0    0 -0.46855951493E+02  0.23038016898E+02 -0.26709033477E+02  0.58648222945E+02  0.10570000000E+00 0.  1.
         13    1    3    3    0    0  0.46855951493E+02 -0.23038016898E+02 -0.14220572114E+03  0.15148831212E+03  0.10570000000E+00 0.  1.
<mgrwt>
<rscale>  0 0.12500068E+03</rscale>
<asrwt>0</asrwt>
<pdfrwt beam="1">  1       21 0.31709062E-02 0.12500068E+03</pdfrwt>
<pdfrwt beam="2">  1       21 0.29157791E-01 0.12500068E+03</pdfrwt>
<totfact> 0.63844082E+06</totfact>
</mgrwt>
</event>
<event>
 5    1  0.7934596E-005  0.1249986E+03  0.7818608E-02  0.1235071E+00
         21   -1    0    0  502  501  0.00000000000E+00  0.00000000000E+00  0.13162058772E+03  0.13162058772E+03  0.00000000000E+00 0. -1.
         21   -1    0    0  501  502 -0.00000000000E+00 -0.00000000000E+00 -0.29677446046E+02  0.29677446046E+02  0.00000000000E+00 0. -1.
         25    2    1    2    0    0  0.00000000000E+00  0.00000000000E+00  0.10194314167E+03  0.16129803376E+03  0.12499860624E+03 0.  0.
        -13    1    3    3    0    0 -0.61033066594E+02 -0.21593377548E+01  0.68112697416E+02  0.91482504771E+02  0.10570000000E+00 0.  1.
         13    1    3    3    0    0  0.61033066594E+02  0.21593377548E+01  0.33830444256E+02  0.69815528993E+02  0.10570000000E+00 0.  1.
<mgrwt>
<rscale>  0 0.12499861E+03</rscale>
<asrwt>0</asrwt>
<pdfrwt beam="1">  1       21 0.20249321E-01 0.12499861E+03</pdfrwt>
<pdfrwt beam="2">  1       21 0.45657610E-02 0.12499861E+03</pdfrwt>
<totfact> 0.69363695E+06</totfact>
</mgrwt>
</event>
<event>
 5    1  0.7934596E-005  0.1250005E+03  0.7818608E-02  0.1235069E+00
         21   -1    0    0  502  501  0.00000000000E+00  0.00000000000E+00  0.69998629567E+02  0.69998629567E+02  0.00000000000E+00 0.  1.
         21   -1    0    0  501  502 -0.00000000000E+00 -0.00000000000E+00 -0.55805093554E+02  0.55805093554E+02  0.00000000000E+00 0.  1.
         25    2    1    2    0    0  0.00000000000E+00  0.00000000000E+00  0.14193536013E+02  0.12580372312E+03  0.12500048115E+03 0.  0.
        -13    1    3    3    0    0  0.23627268904E+02  0.53259973512E+02  0.29856156742E+02  0.65469640921E+02  0.10570000000E+00 0.  1.
         13    1    3    3    0    0 -0.23627268904E+02 -0.53259973512E+02 -0.15662620729E+02  0.60334082201E+02  0.10570000000E+00 0.  1.
<mgrwt>
<rscale>  0 0.12500048E+03</rscale>
<asrwt>0</asrwt>
<pdfrwt beam="1">  1       21 0.10769020E-01 0.12500048E+03</pdfrwt>
<pdfrwt beam="2">  1       21 0.85853989E-02 0.12500048E+03</pdfrwt>
<totfact> 0.73932249E+06</totfact>
</mgrwt>
</event>
<event>
 5    1  0.7934596E-005  0.1249961E+03  0.7818608E-02  0.1235075E+00
         21   -1    0    0  502  501  0.00000000000E+00  0.00000000000E+00  0.78008915653E+02  0.78008915653E+02  0.00000000000E+00 0.  1.
         21   -1    0    0  501  502 -0.00000000000E+00 -0.00000000000E+00 -0.50071243308E+02  0.50071243308E+02  0.00000000000E+00 0.  1.
         25    2    1    2    0    0  0.00000000000E+00  0.00000000000E+00  0.27937672345E+02  0.12808015896E+03  0.12499605427E+03 0.  0.
        -13    1    3    3    0    0 -0.55915348165E+02  0.25682264676E+02  0.27493692192E+01  0.61592816812E+02  0.10570000000E+00 0. -1.
         13    1    3    3    0    0  0.55915348165E+02 -0.25682264676E+02  0.25188303126E+02  0.66487342149E+02  0.10570000000E+00 0. -1.
<mgrwt>
<rscale>  0 0.12499605E+03</rscale>
<asrwt>0</asrwt>
<pdfrwt beam="1">  1       21 0.12001372E-01 0.12499605E+03</pdfrwt>
<pdfrwt beam="2">  1       21 0.77032682E-02 0.12499605E+03</pdfrwt>
<totfact> 0.73630150E+06</totfact>
</mgrwt>
</event>
<event>
 5    1  0.7934596E-005  0.1249998E+03  0.7818608E-02  0.1235070E+00
         21   -1    0    0  502  501  0.00000000000E+00  0.00000000000E+00  0.47440369493E+02  0.47440369493E+02  0.00000000000E+00 0.  1.
         21   -1    0    0  501  502 -0.00000000000E+00 -0.00000000000E+00 -0.82339897382E+02  0.82339897382E+02  0.00000000000E+00 0.  1.
         25    2    1    2    0    0  0.00000000000E+00  0.00000000000E+00 -0.34899527890E+02  0.12978026687E+03  0.12499976249E+03 0.  0.
        -13    1    3    3    0    0 -0.29698103657E+02  0.54719904406E+02 -0.23134440500E+02  0.66418813666E+02  0.10570000000E+00 0.  1.
         13    1    3    3    0    0  0.29698103657E+02 -0.54719904406E+02 -0.11765087390E+02  0.63361453209E+02  0.10570000000E+00 0.  1.
<mgrwt>
<rscale>  0 0.12499976E+03</rscale>
<asrwt>0</asrwt>
<pdfrwt beam="1">  1       21 0.72985184E-02 0.12499976E+03</pdfrwt>
<pdfrwt beam="2">  1       21 0.12667677E-01 0.12499976E+03</pdfrwt>
<totfact> 0.73394742E+06</totfact>
</mgrwt>
</event>
<event>
 5    1  0.7934596E-005  0.1249994E+03  0.7818608E-02  0.1235070E+00
         21   -1    0    0  502  501  0.00000000000E+00  0.00000000000E+00  0.20595436524E+02  0.20595436524E+02  0.00000000000E+00 0. -1.
         21   -1    0    0  501  502 -0.00000000000E+00 -0.00000000000E+00 -0.18966409085E+03  0.18966409085E+03  0.00000000000E+00 0. -1.
         25    2    1    2    0    0  0.00000000000E+00  0.00000000000E+00 -0.16906865433E+03  0.21025952738E+03  0.12499943590E+03 0.  0.
        -13    1    3    3    0    0 -0.59651563183E+02  0.15279611522E+02 -0.10252775411E+03  0.11959819001E+03  0.10570000000E+00 0. -1.
         13    1    3    3    0    0  0.59651563183E+02 -0.15279611522E+02 -0.66540900217E+02  0.90661337364E+02  0.10570000000E+00 0. -1.
<mgrwt>
<rscale>  0 0.12499944E+03</rscale>
<asrwt>0</asrwt>
<pdfrwt beam="1">  1       21 0.31685287E-02 0.12499944E+03</pdfrwt>
<pdfrwt beam="2">  1       21 0.29179091E-01 0.12499944E+03</pdfrwt>
<totfact> 0.63833151E+06</totfact>
</mgrwt>
</event>
<event>
 5    1  0.7934596E-005  0.1250060E+03  0.7818608E-02  0.1235060E+00
         21   -1    0    0  502  501  0.00000000000E+00  0.00000000000E+00  0.63138304876E+02  0.63138304876E+02  0.00000000000E+00 0. -1.
         21   -1    0    0  501  502 -0.00000000000E+00 -0.00000000000E+00 -0.61874054826E+02  0.61874054826E+02  0.00000000000E+00 0. -1.
         25    2    1    2    0    0  0.00000000000E+00  0.00000000000E+00  0.12642500494E+01  0.12501235970E+03  0.12500596686E+03 0.  0.
        -13    1    3    3    0    0  0.42698941294E+02 -0.35504142820E+02  0.29319268236E+02  0.62796292943E+02  0.10570000000E+00 0. -1.
         13    1    3    3    0    0 -0.42698941294E+02  0.35504142820E+02 -0.28055018187E+02  0.62216066759E+02  0.10570000000E+00 0. -1.
<mgrwt>
<rscale>  0 0.12500597E+03</rscale>
<asrwt>0</asrwt>
<pdfrwt beam="1">  1       21 0.97135854E-02 0.12500597E+03</pdfrwt>
<pdfrwt beam="2">  1       21 0.95190853E-02 0.12500597E+03</pdfrwt>
<totfact> 0.74030618E+06</totfact>
</mgrwt>
</event>
<event>
 5    1  0.7934596E-005  0.1250074E+03  0.7818608E-02  0.1235058E+00
         21   -1    0    0  502  501  0.00000000000E+00  0.00000000000E+00  0.18228634191E+02  0.18228634191E+02  0.00000000000E+00 0. -1.
         21   -1    0    0  501  502 -0.00000000000E+00 -0.00000000000E+00 -0.21431726680E+03  0.21431726680E+03  0.00000000000E+00 0. -1.
         25    2    1    2    0    0  0.00000000000E+00  0.00000000000E+00 -0.19608863261E+03  0.23254590099E+03  0.12500737670E+03 0.  0.
        -13    1    3    3    0    0 -0.12204335449E+02 -0.60520029733E+02 -0.11618350346E+03  0.13156837557E+03  0.10570000000E+00 0.  1.
         13    1    3    3    0    0  0.12204335449E+02  0.60520029733E+02 -0.79905129153E+02  0.10097752542E+03  0.10570000000E+00 0.  1.
<mgrwt>
<rscale>  0 0.12500738E+03</rscale>
<asrwt>0</asrwt>
<pdfrwt beam="1">  1       21 0.28044052E-02 0.12500738E+03</pdfrwt>
<pdfrwt beam="2">  1       21 0.32971888E-01 0.12500738E+03</pdfrwt>
<totfact> 0.61550066E+06</totfact>
</mgrwt>
</event>
<event>
 5    1  0.7934596E-005  0.1249987E+03  0.7818608E-02  0.1235071E+00
         21   -1    0    0  502  501  0.00000000000E+00  0.00000000000E+00  0.95825971409E+02  0.95825971409E+02  0.00000000000E+00 0. -1.
         21   -1    0    0  501  502 -0.00000000000E+00 -0.00000000000E+00 -0.40763168912E+02  0.40763168912E+02  0.00000000000E+00 0. -1.
         25    2    1    2    0    0  0.00000000000E+00  0.00000000000E+00  0.55062802497E+02  0.13658914032E+03  0.12499872413E+03 0.  0.
        -13    1    3    3    0    0  0.28730244462E+02 -0.10993522145E+02 -0.31917967585E+02  0.44328910468E+02  0.10570000000E+00 0. -1.
         13    1    3    3    0    0 -0.28730244462E+02  0.10993522145E+02  0.86980770082E+02  0.92260229854E+02  0.10570000000E+00 0. -1.
<mgrwt>
<rscale>  0 0.12499872E+03</rscale>
<asrwt>0</asrwt>
<pdfrwt beam="1">  1       21 0.14742457E-01 0.12499872E+03</pdfrwt>
<pdfrwt beam="2">  1       21 0.62712568E-02 0.12499872E+03</pdfrwt>
<totfact> 0.72489095E+06</totfact>
</mgrwt>
</event>
<event>
 5    1  0.7934596E-005  0.1250113E+03  0.7818608E-02  0.1235052E+00
         21   -1    0    0  502  501  0.00000000000E+00  0.00000000000E+00  0.18210942865E+02  0.18210942865E+02  0.00000000000E+00 0. -1.
         21   -1    0    0  501  502 -0.00000000000E+00 -0.00000000000E+00 -0.21453908078E+03  0.21453908078E+03  0.00000000000E+00 0. -1.
         25    2    1    2    0    0  0.00000000000E+00  0.00000000000E+00 -0.19632813791E+03  0.23275002364E+03  0.12501134256E+03 0.  0.
        -13    1    3    3    0    0 -0.50236393442E+02 -0.98779559033E+01 -0.31405578111E+02  0.60063222923E+02  0.10570000000E+00 0. -1.
         13    1    3    3    0    0  0.50236393442E+02  0.98779559033E+01 -0.16492255980E+03  0.17268680072E+03  0.10570000000E+00 0. -1.
<mgrwt>
<rscale>  0 0.12501134E+03</rscale>
<asrwt>0</asrwt>
<pdfrwt beam="1">  1       21 0.28016835E-02 0.12501134E+03</pdfrwt>
<pdfrwt beam="2">  1       21 0.33006013E-01 0.12501134E+03</pdfrwt>
<totfact> 0.61523749E+06</totfact>
</mgrwt>
</event>
<event>
 5    1  0.7934596E-005  0.1249978E+03  0.7818608E-02  0.1235073E+00
         21   -1    0    0  502  501  0.00000000000E+00  0.00000000000E+00  0.20389297727E+02  0.20389297727E+02  0.00000000000E+00 0. -1.
         21   -1    0    0  501  502 -0.00000000000E+00 -0.00000000000E+00 -0.19157672037E+03  0.19157672037E+03  0.00000000000E+00 0. -1.
         25    2    1    2    0    0  0.00000000000E+00  0.00000000000E+00 -0.17118742264E+03  0.21196601810E+03  0.12499783661E+03 0.  0.
        -13    1    3    3    0    0 -0.43067068473E+02  0.22350539627E+02 -0.15239417312E+03  0.15993221746E+03  0.10570000000E+00 0. -1.
         13    1    3    3    0    0  0.43067068473E+02 -0.22350539627E+02 -0.18793249522E+02  0.52033800635E+02  0.10570000000E+00 0. -1.
<mgrwt>
<rscale>  0 0.12499784E+03</rscale>
<asrwt>0</asrwt>
<pdfrwt beam="1">  1       21 0.31368150E-02 0.12499784E+03</pdfrwt>
<pdfrwt beam="2">  1       21 0.29473342E-01 0.12499784E+03</pdfrwt>
<totfact> 0.63656763E+06</totfact>
</mgrwt>
</event>
<event>
 5    1  0.7934596E-005  0.1250009E+03  0.7818608E-02  0.1235068E+00
         21   -1    0    0  502  501  0.00000000000E+00  0.00000000000E+00  0.20314835194E+02  0.20314835194E+02  0.00000000000E+00 0. -1.
         21   -1    0    0  501  502 -0.00000000000E+00 -0.00000000000E+00 -0.19228831345E+03  0.19228831345E+03  0.00000000000E+00 0. -1.
         25    2    1    2    0    0  0.00000000000E+00  0.00000000000E+00 -0.17197347826E+03  0.21260314865E+03  0.12500088636E+03 0.  0.
        -13    1    3    3    0    0 -0.35516751314E+02  0.26875481529E+02 -0.16056236386E+03  0.16662537319E+03  0.10570000000E+00 0.  1.
         13    1    3    3    0    0  0.35516751314E+02 -0.26875481529E+02 -0.11411114399E+02  0.45977775453E+02  0.10570000000E+00 0.  1.
<mgrwt>
<rscale>  0 0.12500089E+03</rscale>
<asrwt>0</asrwt>
<pdfrwt beam="1">  1       21 0.31253594E-02 0.12500089E+03</pdfrwt>
<pdfrwt beam="2">  1       21 0.29582816E-01 0.12500089E+03</pdfrwt>
<totfact> 0.63585267E+06</totfact>
</mgrwt>
</event>
<event>
 5    1  0.7934596E-005  0.1250018E+03  0.7818608E-02  0.1235066E+00
         21   -1    0    0  502  501  0.00000000000E+00  0.00000000000E+00  0.31180509840E+02  0.31180509840E+02  0.00000000000E+00 0. -1.
         21   -1    0    0  501  502 -0.00000000000E+00 -0.00000000000E+00 -0.12528228032E+03  0.12528228032E+03  0.00000000000E+00 0. -1.
         25    2    1    2    0    0  0.00000000000E+00  0.00000000000E+00 -0.94101770479E+02  0.15646279016E+03  0.12500184598E+03 0.  0.
        -13    1    3    3    0    0 -0.29355639534E+01  0.60438810053E+02 -0.66638313811E+02  0.90011906637E+02  0.10570000000E+00 0.  1.
         13    1    3    3    0    0  0.29355639534E+01 -0.60438810053E+02 -0.27463456669E+02  0.66450883524E+02  0.10570000000E+00 0.  1.
<mgrwt>
<rscale>  0 0.12500185E+03</rscale>
<asrwt>0</asrwt>
<pdfrwt beam="1">  1       21 0.47970014E-02 0.12500185E+03</pdfrwt>
<pdfrwt beam="2">  1       21 0.19274197E-01 0.12500185E+03</pdfrwt>
<totfact> 0.69951023E+06</totfact>
</mgrwt>
</event>
<event>
 5    1  0.7934596E-005  0.1249985E+03  0.7818608E-02  0.1235072E+00
         21   -1    0    0  502  501  0.00000000000E+00  0.00000000000E+00  0.26905018012E+02  0.26905018012E+02  0.00000000000E+00 0.  1.
         21   -1    0    0  501  502 -0.00000000000E+00 -0.00000000000E+00 -0.14518327867E+03  0.14518327867E+03  0.00000000000E+00 0.  1.
         25    2    1    2    0    0  0.00000000000E+00  0.00000000000E+00 -0.11827826065E+03  0.17208829668E+03  0.12499853963E+03 0.  0.
        -13    1    3    3    0    0 -0.61896734292E+02 -0.21241852238E+01 -0.47585346366E+02  0.78103100067E+02  0.10570000000E+00 0. -1.
         13    1    3    3    0    0  0.61896734292E+02  0.21241852238E+01 -0.70692914288E+02  0.93985196611E+02  0.10570000000E+00 0. -1.
<mgrwt>
<rscale>  0 0.12499854E+03</rscale>
<asrwt>0</asrwt>
<pdfrwt beam="1">  1       21 0.41392336E-02 0.12499854E+03</pdfrwt>
<pdfrwt beam="2">  1       21 0.22335889E-01 0.12499854E+03</pdfrwt>
<totfact> 0.68073462E+06</totfact>
</mgrwt>
</event>
<event>
 5    1  0.7934596E-005  0.1249982E+03  0.7818608E-02  0.1235072E+00
         21   -1    0    0  502  501  0.00000000000E+00  0.00000000000E+00  0.29283107301E+03  0.29283107301E+03  0.00000000000E+00 0.  1.
         21   -1    0    0  501  502 -0.00000000000E+00 -0.00000000000E+00 -0.13339212514E+02  0.13339212514E+02  0.00000000000E+00 0.  1.
         25    2    1    2    0    0  0.00000000000E+00  0.00000000000E+00  0.27949186050E+03  0.30617028553E+03  0.12499817460E+03 0.  0.
        -13    1    3    3    0    0  0.51158894309E+02 -0.33052572218E+02  0.17407420192E+03  0.18442218940E+03  0.10570000000E+00 0.  1.
         13    1    3    3    0    0 -0.51158894309E+02  0.33052572218E+02  0.10541765858E+03  0.12174809613E+03  0.10570000000E+00 0.  1.
<mgrwt>
<rscale>  0 0.12499817E+03</rscale>
<asrwt>0</asrwt>
<pdfrwt beam="1">  1       21 0.45050929E-01 0.12499817E+03</pdfrwt>
<pdfrwt beam="2">  1       21 0.20521868E-02 0.12499817E+03</pdfrwt>
<totfact> 0.54949787E+06</totfact>
</mgrwt>
</event>
<event>
 5    1  0.7934596E-005  0.1249998E+03  0.7818608E-02  0.1235070E+00
         21   -1    0    0  502  501  0.00000000000E+00  0.00000000000E+00  0.22844548464E+02  0.22844548464E+02  0.00000000000E+00 0.  1.
         21   -1    0    0  501  502 -0.00000000000E+00 -0.00000000000E+00 -0.17099217648E+03  0.17099217648E+03  0.00000000000E+00 0.  1.
         25    2    1    2    0    0  0.00000000000E+00  0.00000000000E+00 -0.14814762801E+03  0.19383672494E+03  0.12499982500E+03 0.  0.
        -13    1    3    3    0    0 -0.15980046249E+02 -0.33829753202E+02 -0.15170800752E+03  0.15625346331E+03  0.10570000000E+00 0. -1.
         13    1    3    3    0    0  0.15980046249E+02  0.33829753202E+02  0.35603795049E+01  0.37583261627E+02  0.10570000000E+00 0. -1.
<mgrwt>
<rscale>  0 0.12499982E+03</rscale>
<asrwt>0</asrwt>
<pdfrwt beam="1">  1       21 0.35145458E-02 0.12499982E+03</pdfrwt>
<pdfrwt beam="2">  1       21 0.26306489E-01 0.12499982E+03</pdfrwt>
<totfact> 0.65598855E+06</totfact>
</mgrwt>
</event>
<event>
 5    1  0.7934596E-005  0.1249927E+03  0.7818608E-02  0.1235081E+00
         21   -1    0    0  502  501  0.00000000000E+00  0.00000000000E+00  0.67266255445E+02  0.67266255445E+02  0.00000000000E+00 0. -1.
         21   -1    0    0  501  502 -0.00000000000E+00 -0.00000000000E+00 -0.58064648651E+02  0.58064648651E+02  0.00000000000E+00 0. -1.
         25    2    1    2    0    0  0.00000000000E+00  0.00000000000E+00  0.92016067944E+01  0.12533090410E+03  0.12499266360E+03 0.  0.
        -13    1    3    3    0    0  0.49032111803E+02  0.43146898263E+01 -0.34013351608E+02  0.59830458767E+02  0.10570000000E+00 0. -1.
         13    1    3    3    0    0 -0.49032111803E+02 -0.43146898263E+01  0.43214958402E+02  0.65500445329E+02  0.10570000000E+00 0. -1.
<mgrwt>
<rscale>  0 0.12499266E+03</rscale>
<asrwt>0</asrwt>
<pdfrwt beam="1">  1       21 0.10348655E-01 0.12499266E+03</pdfrwt>
<pdfrwt beam="2">  1       21 0.89330229E-02 0.12499266E+03</pdfrwt>
<totfact> 0.74012780E+06</totfact>
</mgrwt>
</event>
<event>
 5    1  0.7934596E-005  0.1250003E+03  0.7818608E-02  0.1235069E+00
         21   -1    0    0  502  501  0.00000000000E+00  0.00000000000E+00  0.35404166152E+02  0.35404166152E+02  0.00000000000E+00 0.  1.
         21   -1    0    0  501  502 -0.00000000000E+00 -0.00000000000E+00 -0.11033354024E+03  0.11033354024E+03  0.00000000000E+00 0.  1.
         25    2    1    2    0    0  0.00000000000E+00  0.00000000000E+00 -0.74929374089E+02  0.14573770639E+03  0.12500027185E+03 0.  0.
        -13    1    3    3    0    0 -0.24052332151E+01 -0.61396299533E+02 -0.24122140665E+02  0.66008935652E+02  0.10570000000E+00 0.  1.
         13    1    3    3    0    0  0.24052332151E+01  0.61396299533E+02 -0.50807233424E+02  0.79728770741E+02  0.10570000000E+00 0.  1.
<mgrwt>
<rscale>  0 0.12500027E+03</rscale>
<asrwt>0</asrwt>
<pdfrwt beam="1">  1       21 0.54467948E-02 0.12500027E+03</pdfrwt>
<pdfrwt beam="2">  1       21 0.16974391E-01 0.12500027E+03</pdfrwt>
<totfact> 0.71298331E+06</totfact>
</mgrwt>
</event>
<event>
 5    1  0.7934596E-005  0.1250092E+03  0.7818608E-02  0.1235055E+00
         21   -1    0    0  502  501  0.00000000000E+00  0.00000000000E+00  0.29247024018E+03  0.29247024018E+03  0.00000000000E+00 0.  1.
         21   -1    0    0  501  502 -0.00000000000E+00 -0.00000000000E+00 -0.13358022282E+02  0.13358022282E+02  0.00000000000E+00 0.  1.
         25    2    1    2    0    0  0.00000000000E+00  0.00000000000E+00  0.27911221790E+03  0.30582826247E+03  0.12500918342E+03 0.  0.
        -13    1    3    3    0    0 -0.58477384575E+02 -0.22071578261E+02  0.13898898196E+03  0.15239654639E+03  0.10570000000E+00 0. -1.
         13    1    3    3    0    0  0.58477384575E+02  0.22071578261E+02  0.14012323594E+03  0.15343171607E+03  0.10570000000E+00 0. -1.
<mgrwt>
<rscale>  0 0.12500918E+03</rscale>
<asrwt>0</asrwt>
<pdfrwt beam="1">  1       21 0.44995417E-01 0.12500918E+03</pdfrwt>
<pdfrwt beam="2">  1       21 0.20550806E-02 0.12500918E+03</pdfrwt>
<totfact> 0.54962597E+06</totfact>
</mgrwt>
</event>
<event>
 5    1  0.7934596E-005  0.1249981E+03  0.7818608E-02  0.1235072E+00
         21   -1    0    0  502  501  0.00000000000E+00  0.00000000000E+00  0.50297152893E+03  0.50297152893E+03  0.00000000000E+00 0.  1.
         21   -1    0    0  501  502 -0.00000000000E+00 -0.00000000000E+00 -0.77661063571E+01  0.77661063571E+01  0.00000000000E+00 0.  1.
         25    2    1    2    0    0  0.00000000000E+00  0.00000000000E+00  0.49520542257E+03  0.51073763528E+03  0.12499808620E+03 0.  0.
        -13    1    3    3    0    0  0.45761048382E+02  0.35924006083E+02  0.34091233179E+03  0.34584076813E+03  0.10570000000E+00 0. -1.
         13    1    3    3    0    0 -0.45761048382E+02 -0.35924006083E+02  0.15429309078E+03  0.16489686715E+03  0.10570000000E+00 0. -1.
<mgrwt>
<rscale>  0 0.12499809E+03</rscale>
<asrwt>0</asrwt>
<pdfrwt beam="1">  1       21 0.77380210E-01 0.12499809E+03</pdfrwt>
<pdfrwt beam="2">  1       21 0.11947860E-02 0.12499809E+03</pdfrwt>
<totfact> 0.41469652E+06</totfact>
</mgrwt>
</event>
<event>
 5    1  0.7934596E-005  0.1250030E+03  0.7818608E-02  0.1235065E+00
         21   -1    0    0  502  501  0.00000000000E+00  0.00000000000E+00  0.48661140554E+03  0.48661140554E+03  0.00000000000E+00 0.  1.
         21   -1    0    0  501  502 -0.00000000000E+00 -0.00000000000E+00 -0.80278432180E+01  0.80278432180E+01  0.00000000000E+00 0.  1.
         25    2    1    2    0    0  0.00000000000E+00  0.00000000000E+00  0.47858356232E+03  0.49463924875E+03  0.12500304111E+03 0.  0.
        -13    1    3    3    0    0  0.37067210406E+01 -0.62374277716E+02  0.23350506017E+03  0.24172073680E+03  0.10570000000E+00 0. -1.
         13    1    3    3    0    0 -0.37067210406E+01  0.62374277716E+02  0.24507850215E+03  0.25291851195E+03  0.10570000000E+00 0. -1.
<mgrwt>
<rscale>  0 0.12500304E+03</rscale>
<asrwt>0</asrwt>
<pdfrwt beam="1">  1       21 0.74863270E-01 0.12500304E+03</pdfrwt>
<pdfrwt beam="2">  1       21 0.12350532E-02 0.12500304E+03</pdfrwt>
<totfact> 0.42333098E+06</totfact>
</mgrwt>
</event>
<event>
 5    1  0.7934596E-005  0.1250063E+03  0.7818608E-02  0.1235059E+00
         21   -1    0    0  502  501  0.00000000000E+00  0.00000000000E+00  0.10305420747E+02  0.10305420747E+02  0.00000000000E+00 0.  1.
         21   -1    0    0  501  502 -0.00000000000E+00 -0.00000000000E+00 -0.37908642387E+03  0.37908642387E+03  0.00000000000E+00 0.  1.
         25    2    1    2    0    0  0.00000000000E+00  0.00000000000E+00 -0.36878100312E+03  0.38939184462E+03  0.12500632140E+03 0.  0.
        -13    1    3    3    0    0  0.19815345873E+02 -0.58070174452E+02 -0.22148892991E+03  0.22983069929E+03  0.10570000000E+00 0.  1.
         13    1    3    3    0    0 -0.19815345873E+02  0.58070174452E+02 -0.14729207322E+03  0.15956114533E+03  0.10570000000E+00 0.  1.
<mgrwt>
<rscale>  0 0.12500632E+03</rscale>
<asrwt>0</asrwt>
<pdfrwt beam="1">  1       21 0.15854493E-02 0.12500632E+03</pdfrwt>
<pdfrwt beam="2">  1       21 0.58320991E-01 0.12500632E+03</pdfrwt>
<totfact> 0.48745323E+06</totfact>
</mgrwt>
</event>
<event>
 5    1  0.7934596E-005  0.1249997E+03  0.7818608E-02  0.1235070E+00
         21   -1    0    0  502  501  0.00000000000E+00  0.00000000000E+00  0.89064705171E+01  0.89064705171E+01  0.00000000000E+00 0.  1.
         21   -1    0    0  501  502 -0.00000000000E+00 -0.00000000000E+00 -0.43858348736E+03  0.43858348736E+03  0.00000000000E+00 0.  1.
         25    2    1    2    0    0  0.00000000000E+00  0.00000000000E+00 -0.42967701684E+03  0.44748995788E+03  0.12499969439E+03 0.  0.
        -13    1    3    3    0    0 -0.59878130997E+01 -0.60906536351E+02 -0.26022878925E+03  0.26732843845E+03  0.10570000000E+00 0. -1.
         13    1    3    3    0    0  0.59878130997E+01  0.60906536351E+02 -0.16944822759E+03  0.18016151942E+03  0.10570000000E+00 0. -1.
<mgrwt>
<rscale>  0 0.12499969E+03</rscale>
<asrwt>0</asrwt>
<pdfrwt beam="1">  1       21 0.13702263E-02 0.12499969E+03</pdfrwt>
<pdfrwt beam="2">  1       21 0.67474377E-01 0.12499969E+03</pdfrwt>
<totfact> 0.45043191E+06</totfact>
</mgrwt>
</event>
<event>
 5    1  0.7934596E-005  0.1250006E+03  0.7818608E-02  0.1235068E+00
         21   -1    0    0  502  501  0.00000000000E+00  0.00000000000E+00  0.14135009436E+02  0.14135009436E+02  0.00000000000E+00 0. -1.
         21   -1    0    0  501  502 -0.00000000000E+00 -0.00000000000E+00 -0.27635536933E+03  0.27635536933E+03  0.00000000000E+00 0. -1.
         25    2    1    2    0    0  0.00000000000E+00  0.00000000000E+00 -0.26222035990E+03  0.29049037877E+03  0.12500057205E+03 0.  0.
        -13    1    3    3    0    0 -0.40938432183E+02  0.12602915247E+00 -0.24085947319E+03  0.24431387212E+03  0.10570000000E+00 0. -1.
         13    1    3    3    0    0  0.40938432183E+02 -0.12602915247E+00 -0.21360886712E+02  0.46176506652E+02  0.10570000000E+00 0. -1.
<mgrwt>
<rscale>  0 0.12500057E+03</rscale>
<asrwt>0</asrwt>
<pdfrwt beam="1">  1       21 0.21746168E-02 0.12500057E+03</pdfrwt>
<pdfrwt beam="2">  1       21 0.42516211E-01 0.12500057E+03</pdfrwt>
<totfact> 0.56255028E+06</totfact>
</mgrwt>
</event>
<event>
 5    1  0.7934596E-005  0.1250005E+03  0.7818608E-02  0.1235069E+00
         21   -1    0    0  502  501  0.00000000000E+00  0.00000000000E+00  0.24769169018E+03  0.24769169018E+03  0.00000000000E+00 0.  1.
         21   -1    0    0  501  502 -0.00000000000E+00 -0.00000000000E+00 -0.15770729221E+02  0.15770729221E+02  0.00000000000E+00 0.  1.
         25    2    1    2    0    0  0.00000000000E+00  0.00000000000E+00  0.23192096096E+03  0.26346241940E+03  0.12500045722E+03 0.  0.
        -13    1    3    3    0    0  0.34989402189E+02 -0.51656164440E+02  0.12374748513E+03  0.13858596191E+03  0.10570000000E+00 0.  1.
         13    1    3    3    0    0 -0.34989402189E+02  0.51656164440E+02  0.10817347582E+03  0.12487645749E+03  0.10570000000E+00 0.  1.
<mgrwt>
<rscale>  0 0.12500046E+03</rscale>
<asrwt>0</asrwt>
<pdfrwt beam="1">  1       21 0.38106411E-01 0.12500046E+03</pdfrwt>
<pdfrwt beam="2">  1       21 0.24262662E-02 0.12500046E+03</pdfrwt>
<totfact> 0.58632694E+06</totfact>
</mgrwt>
</event>
<event>
 5    1  0.7934596E-005  0.1249996E+03  0.7818608E-02  0.1235070E+00
         21   -1    0    0  502  501  0.00000000000E+00  0.00000000000E+00  0.83255480001E+02  0.83255480001E+02  0.00000000000E+00 0. -1.
         21   -1    0    0  501  502 -0.00000000000E+00 -0.00000000000E+00 -0.46918537025E+02  0.46918537025E+02  0.00000000000E+00 0. -1.
         25    2    1    2    0    0  0.00000000000E+00  0.00000000000E+00  0.36336942976E+02  0.13017401703E+03  0.12499960513E+03 0.  0.
        -13    1    3    3    0    0  0.60192361058E+02  0.15622641309E+02  0.24674226101E+02  0.66903033245E+02  0.10570000000E+00 0.  1.
         13    1    3    3    0    0 -0.60192361058E+02 -0.15622641309E+02  0.11662716875E+02  0.63270983781E+02  0.10570000000E+00 0.  1.
<mgrwt>
<rscale>  0 0.12499961E+03</rscale>
<asrwt>0</asrwt>
<pdfrwt beam="1">  1       21 0.12808535E-01 0.12499961E+03</pdfrwt>
<pdfrwt beam="2">  1       21 0.72182365E-02 0.12499961E+03</pdfrwt>
<totfact> 0.73342406E+06</totfact>
</mgrwt>
</event>
<event>
 5    1  0.7934596E-005  0.1250018E+03  0.7818608E-02  0.1235067E+00
         21   -1    0    0  502  501  0.00000000000E+00  0.00000000000E+00  0.26707620703E+02  0.26707620703E+02  0.00000000000E+00 0.  1.
         21   -1    0    0  501  502 -0.00000000000E+00 -0.00000000000E+00 -0.14626388912E+03  0.14626388912E+03  0.00000000000E+00 0.  1.
         25    2    1    2    0    0  0.00000000000E+00  0.00000000000E+00 -0.11955626841E+03  0.17297150982E+03  0.12500176756E+03 0.  0.
        -13    1    3    3    0    0  0.62111962752E+02 -0.10183729880E+01 -0.69306584096E+02  0.93071729177E+02  0.10570000000E+00 0. -1.
         13    1    3    3    0    0 -0.62111962752E+02  0.10183729880E+01 -0.50249684319E+02  0.79899780645E+02  0.10570000000E+00 0. -1.
<mgrwt>
<rscale>  0 0.12500177E+03</rscale>
<asrwt>0</asrwt>
<pdfrwt beam="1">  1       21 0.41088646E-02 0.12500177E+03</pdfrwt>
<pdfrwt beam="2">  1       21 0.22502137E-01 0.12500177E+03</pdfrwt>
<totfact> 0.67964065E+06</totfact>
</mgrwt>
</event>
<event>
 5    1  0.7934596E-005  0.1249999E+03  0.7818608E-02  0.1235069E+00
         21   -1    0    0  502  501  0.00000000000E+00  0.00000000000E+00  0.19135267587E+02  0.19135267587E+02  0.00000000000E+00 0. -1.
         21   -1    0    0  501  502 -0.00000000000E+00 -0.00000000000E+00 -0.20413835820E+03  0.20413835820E+03  0.00000000000E+00 0. -1.
         25    2    1    2    0    0  0.00000000000E+00  0.00000000000E+00 -0.18500309062E+03  0.22327362579E+03  0.12499987374E+03 0.  0.
        -13    1    3    3    0    0  0.46861155410E+02  0.31562344088E+02 -0.14023267764E+03  0.15118652222E+03  0.10570000000E+00 0.  1.
         13    1    3    3    0    0 -0.46861155410E+02 -0.31562344088E+02 -0.44770412981E+02  0.72087103574E+02  0.10570000000E+00 0.  1.
<mgrwt>
<rscale>  0 0.12499987E+03</rscale>
<asrwt>0</asrwt>
<pdfrwt beam="1">  1       21 0.29438873E-02 0.12499987E+03</pdfrwt>
<pdfrwt beam="2">  1       21 0.31405901E-01 0.12499987E+03</pdfrwt>
<totfact> 0.62489685E+06</totfact>
</mgrwt>
</event>
<event>
 5    1  0.7934596E-005  0.1250013E+03  0.7818608E-02  0.1235067E+00
         21   -1    0    0  502  501  0.00000000000E+00  0.00000000000E+00  0.28312805141E+03  0.28312805141E+03  0.00000000000E+00 0.  1.
         21   -1    0    0  501  502 -0.00000000000E+00 -0.00000000000E+00 -0.13797054337E+02  0.13797054337E+02  0.00000000000E+00 0.  1.
         25    2    1    2    0    0  0.00000000000E+00  0.00000000000E+00  0.26933099707E+03  0.29692510575E+03  0.12500132975E+03 0.  0.
        -13    1    3    3    0    0  0.39403368422E+02  0.40957682249E+02  0.19643278931E+03  0.20448963070E+03  0.10570000000E+00 0.  1.
         13    1    3    3    0    0 -0.39403368422E+02 -0.40957682249E+02  0.72898207767E+02  0.92435475043E+02  0.10570000000E+00 0.  1.
<mgrwt>
<rscale>  0 0.12500133E+03</rscale>
<asrwt>0</asrwt>
<pdfrwt beam="1">  1       21 0.43558157E-01 0.12500133E+03</pdfrwt>
<pdfrwt beam="2">  1       21 0.21226240E-02 0.12500133E+03</pdfrwt>
<totfact> 0.55710821E+06</totfact>
</mgrwt>
</event>
<event>
 5    1  0.7934596E-005  0.1250001E+03  0.7818608E-02  0.1235069E+00
         21   -1    0    0  502  501  0.00000000000E+00  0.00000000000E+00  0.71178110456E+02  0.71178110456E+02  0.00000000000E+00 0. -1.
         21   -1    0    0  501  502 -0.00000000000E+00 -0.00000000000E+00 -0.54880022209E+02  0.54880022209E+02  0.00000000000E+00 0. -1.
         25    2    1    2    0    0  0.00000000000E+00  0.00000000000E+00  0.16298088247E+02  0.12605813267E+03  0.12500010052E+03 0.  0.
        -13    1    3    3    0    0  0.56299974814E+02  0.21395405712E+01 -0.19135091984E+02  0.59501493390E+02  0.10570000000E+00 0.  1.
         13    1    3    3    0    0 -0.56299974814E+02 -0.21395405712E+01  0.35433180230E+02  0.66556639275E+02  0.10570000000E+00 0.  1.
<mgrwt>
<rscale>  0 0.12500010E+03</rscale>
<asrwt>0</asrwt>
<pdfrwt beam="1">  1       21 0.10950479E-01 0.12500010E+03</pdfrwt>
<pdfrwt beam="2">  1       21 0.84430803E-02 0.12500010E+03</pdfrwt>
<totfact> 0.73897838E+06</totfact>
</mgrwt>
</event>
<event>
 5    1  0.7934596E-005  0.1250000E+03  0.7818608E-02  0.1235069E+00
         21   -1    0    0  502  501  0.00000000000E+00  0.00000000000E+00  0.27767293137E+03  0.27767293137E+03  0.00000000000E+00 0. -1.
         21   -1    0    0  501  502 -0.00000000000E+00 -0.00000000000E+00 -0.14067821024E+02  0.14067821024E+02  0.00000000000E+00 0. -1.
         25    2    1    2    0    0  0.00000000000E+00  0.00000000000E+00  0.26360511034E+03  0.29174075239E+03  0.12500004963E+03 0.  0.
        -13    1    3    3    0    0  0.21356560484E+02  0.58569411166E+02  0.14217824463E+03  0.15524542833E+03  0.10570000000E+00 0.  1.
         13    1    3    3    0    0 -0.21356560484E+02 -0.58569411166E+02  0.12142686572E+03  0.13649532406E+03  0.10570000000E+00 0.  1.
<mgrwt>
<rscale>  0 0.12500005E+03</rscale>
<asrwt>0</asrwt>
<pdfrwt beam="1">  1       21 0.42718909E-01 0.12500005E+03</pdfrwt>
<pdfrwt beam="2">  1       21 0.21642804E-02 0.12500005E+03</pdfrwt>
<totfact> 0.56149542E+06</totfact>
</mgrwt>
</event>
<event>
 5    1  0.7934596E-005  0.1249992E+03  0.7818608E-02  0.1235071E+00
         21   -1    0    0  502  501  0.00000000000E+00  0.00000000000E+00  0.10961061741E+03  0.10961061741E+03  0.00000000000E+00 0.  1.
         21   -1    0    0  501  502 -0.00000000000E+00 -0.00000000000E+00 -0.35637064041E+02  0.35637064041E+02  0.00000000000E+00 0.  1.
         25    2    1    2    0    0  0.00000000000E+00  0.00000000000E+00  0.73973553371E+02  0.14524768145E+03  0.12499920947E+03 0.  0.
        -13    1    3    3    0    0 -0.18332574853E+02  0.58135905680E+02  0.53017278275E+02  0.80788054799E+02  0.10570000000E+00 0. -1.
         13    1    3    3    0    0  0.18332574853E+02 -0.58135905680E+02  0.20956275096E+02  0.64459626654E+02  0.10570000000E+00 0. -1.
<mgrwt>
<rscale>  0 0.12499921E+03</rscale>
<asrwt>0</asrwt>
<pdfrwt beam="1">  1       21 0.16863172E-01 0.12499921E+03</pdfrwt>
<pdfrwt beam="2">  1       21 0.54826253E-02 0.12499921E+03</pdfrwt>
<totfact> 0.71362853E+06</totfact>
</mgrwt>
</event>
<event>
 5    1  0.7934596E-005  0.1250005E+03  0.7818608E-02  0.1235068E+00
         21   -1    0    0  502  501  0.00000000000E+00  0.00000000000E+00  0.13063888870E+03  0.13063888870E+03  0.00000000000E+00 0.  1.
         21   -1    0    0  501  502 -0.00000000000E+00 -0.00000000000E+00 -0.29901369313E+02  0.29901369313E+02  0.00000000000E+00 0.  1.
         25    2    1    2    0    0  0.00000000000E+00  0.00000000000E+00  0.10073751939E+03  0.16054025801E+03  0.12500050652E+03 0.  0.
        -13    1    3    3    0    0 -0.26627169840E+02  0.56408286638E+02  0.55403791232E+02  0.83429564487E+02  0.10570000000E+00 0.  1.
         13    1    3    3    0    0  0.26627169840E+02 -0.56408286638E+02  0.45333728156E+02  0.77110693527E+02  0.10570000000E+00 0.  1.
<mgrwt>
<rscale>  0 0.12500051E+03</rscale>
<asrwt>0</asrwt>
<pdfrwt beam="1">  1       21 0.20098290E-01 0.12500051E+03</pdfrwt>
<pdfrwt beam="2">  1       21 0.46002107E-02 0.12500051E+03</pdfrwt>
<totfact> 0.69452648E+06</totfact>
</mgrwt>
</event>
<event>
 5    1  0.7934596E-005  0.1249863E+03  0.7818608E-02  0.1235091E+00
         21   -1    0    0  502  501  0.00000000000E+00  0.00000000000E+00  0.15623453694E+03  0.15623453694E+03  0.00000000000E+00 0.  1.
         21   -1    0    0  501  502 -0.00000000000E+00 -0.00000000000E+00 -0.24997003996E+02  0.24997003996E+02  0.00000000000E+00 0.  1.
         25    2    1    2    0    0  0.00000000000E+00  0.00000000000E+00  0.13123753295E+03  0.18123154094E+03  0.12498632476E+03 0.  0.
        -13    1    3    3    0    0  0.62084741909E+02 -0.68109267080E+01  0.62549578828E+02  0.88393240038E+02  0.10570000000E+00 0. -1.
         13    1    3    3    0    0 -0.62084741909E+02  0.68109267080E+01  0.68687954119E+02  0.92838300900E+02  0.10570000000E+00 0. -1.
<mgrwt>
<rscale>  0 0.12498632E+03</rscale>
<asrwt>0</asrwt>
<pdfrwt beam="1">  1       21 0.24036082E-01 0.12498632E+03</pdfrwt>
<pdfrwt beam="2">  1       21 0.38456930E-02 0.12498632E+03</pdfrwt>
<totfact> 0.67033784E+06</totfact>
</mgrwt>
</event>
<event>
 5    1  0.7934596E-005  0.1249890E+03  0.7818608E-02  0.1235086E+00
         21   -1    0    0  502  501  0.00000000000E+00  0.00000000000E+00  0.86714317531E+02  0.86714317531E+02  0.00000000000E+00 0. -1.
         21   -1    0    0  501  502 -0.00000000000E+00 -0.00000000000E+00 -0.45039432005E+02  0.45039432005E+02  0.00000000000E+00 0. -1.
         25    2    1    2    0    0  0.00000000000E+00  0.00000000000E+00  0.41674885526E+02  0.13175374954E+03  0.12498901725E+03 0.  0.
        -13    1    3    3    0    0 -0.43809125871E+02 -0.34301350018E+02  0.50833303533E+02  0.75364832934E+02  0.10570000000E+00 0. -1.
         13    1    3    3    0    0  0.43809125871E+02  0.34301350018E+02 -0.91584180070E+01  0.56388916602E+02  0.10570000000E+00 0. -1.
<mgrwt>
<rscale>  0 0.12498902E+03</rscale>
<asrwt>0</asrwt>
<pdfrwt beam="1">  1       21 0.13340664E-01 0.12498902E+03</pdfrwt>
<pdfrwt beam="2">  1       21 0.69291434E-02 0.12498902E+03</pdfrwt>
<totfact> 0.73149770E+06</totfact>
</mgrwt>
</event>
<event>
 5    1  0.7934596E-005  0.1250050E+03  0.7818608E-02  0.1235061E+00
         21   -1    0    0  502  501  0.00000000000E+00  0.00000000000E+00  0.90267093535E+01  0.90267093535E+01  0.00000000000E+00 0.  1.
         21   -1    0    0  501  502 -0.00000000000E+00 -0.00000000000E+00 -0.43277844095E+03  0.43277844095E+03  0.00000000000E+00 0.  1.
         25    2    1    2    0    0  0.00000000000E+00  0.00000000000E+00 -0.42375173160E+03  0.44180515031E+03  0.12500504311E+03 0.  0.
        -13    1    3    3    0    0  0.53918404351E+02 -0.36913273074E+01 -0.10091162016E+03  0.11447264512E+03  0.10570000000E+00 0. -1.
         13    1    3    3    0    0 -0.53918404351E+02  0.36913273074E+01 -0.32284011144E+03  0.32733250518E+03  0.10570000000E+00 0. -1.
<mgrwt>
<rscale>  0 0.12500504E+03</rscale>
<asrwt>0</asrwt>
<pdfrwt beam="1">  1       21 0.13887246E-02 0.12500504E+03</pdfrwt>
<pdfrwt beam="2">  1       21 0.66581293E-01 0.12500504E+03</pdfrwt>
<totfact> 0.45380965E+06</totfact>
</mgrwt>
</event>
<event>
 5    1  0.7934596E-005  0.1250011E+03  0.7818608E-02  0.1235068E+00
         21   -1    0    0  502  501  0.00000000000E+00  0.00000000000E+00  0.13972899099E+02  0.13972899099E+02  0.00000000000E+00 0. -1.
         21   -1    0    0  501  502 -0.00000000000E+00 -0.00000000000E+00 -0.27956399681E+03  0.27956399681E+03  0.00000000000E+00 0. -1.
         25    2    1    2    0    0  0.00000000000E+00  0.00000000000E+00 -0.26559109771E+03  0.29353689590E+03  0.12500111230E+03 0.  0.
        -13    1    3    3    0    0  0.60225628857E+02  0.98008187845E+01 -0.16457334226E+03  0.17552087789E+03  0.10570000000E+00 0.  1.
         13    1    3    3    0    0 -0.60225628857E+02 -0.98008187845E+01 -0.10101775545E+03  0.11801601802E+03  0.10570000000E+00 0.  1.
<mgrwt>
<rscale>  0 0.12500111E+03</rscale>
<asrwt>0</asrwt>
<pdfrwt beam="1">  1       21 0.21496768E-02 0.12500111E+03</pdfrwt>
<pdfrwt beam="2">  1       21 0.43009846E-01 0.12500111E+03</pdfrwt>
<totfact> 0.55996030E+06</totfact>
</mgrwt>
</event>
<event>
 5    1  0.7934596E-005  0.1249946E+03  0.7818608E-02  0.1235078E+00
         21   -1    0    0  502  501  0.00000000000E+00  0.00000000000E+00  0.51197476725E+03  0.51197476725E+03  0.00000000000E+00 0. -1.
         21   -1    0    0  501  502 -0.00000000000E+00 -0.00000000000E+00 -0.76291152235E+01  0.76291152235E+01  0.00000000000E+00 0. -1.
         25    2    1    2    0    0  0.00000000000E+00  0.00000000000E+00  0.50434565203E+03  0.51960388248E+03  0.12499463174E+03 0.  0.
        -13    1    3    3    0    0  0.47241960210E+02 -0.39068435400E+02  0.20164200715E+03  0.21075496595E+03  0.10570000000E+00 0. -1.
         13    1    3    3    0    0 -0.47241960210E+02  0.39068435400E+02  0.30270364488E+03  0.30884891653E+03  0.10570000000E+00 0. -1.
<mgrwt>
<rscale>  0 0.12499463E+03</rscale>
<asrwt>0</asrwt>
<pdfrwt beam="1">  1       21 0.78765322E-01 0.12499463E+03</pdfrwt>
<pdfrwt beam="2">  1       21 0.11737104E-02 0.12499463E+03</pdfrwt>
<totfact> 0.41005968E+06</totfact>
</mgrwt>
</event>
<event>
 5    1  0.7934596E-005  0.1249998E+03  0.7818608E-02  0.1235070E+00
         21   -1    0    0  502  501  0.00000000000E+00  0.00000000000E+00  0.32409369469E+02  0.32409369469E+02  0.00000000000E+00 0. -1.
         21   -1    0    0  501  502 -0.00000000000E+00 -0.00000000000E+00 -0.12052799398E+03  0.12052799398E+03  0.00000000000E+00 0. -1.
         25    2    1    2    0    0  0.00000000000E+00  0.00000000000E+00 -0.88118624513E+02  0.15293736345E+03  0.12499978061E+03 0.  0.
        -13    1    3    3    0    0  0.24295130078E+02 -0.20105109268E+02  0.21961652132E+02  0.38429078847E+02  0.10570000000E+00 0. -1.
         13    1    3    3    0    0 -0.24295130078E+02  0.20105109268E+02 -0.11008027665E+03  0.11450828460E+03  0.10570000000E+00 0. -1.
<mgrwt>
<rscale>  0 0.12499978E+03</rscale>
<asrwt>0</asrwt>
<pdfrwt beam="1">  1       21 0.49860569E-02 0.12499978E+03</pdfrwt>
<pdfrwt beam="2">  1       21 0.18542768E-01 0.12499978E+03</pdfrwt>
<totfact> 0.70392529E+06</totfact>
</mgrwt>
</event>
<event>
 5    1  0.7934596E-005  0.1249989E+03  0.7818608E-02  0.1235071E+00
         21   -1    0    0  502  501  0.00000000000E+00  0.00000000000E+00  0.20849343742E+02  0.20849343742E+02  0.00000000000E+00 0.  1.
         21   -1    0    0  501  502 -0.00000000000E+00 -0.00000000000E+00 -0.18735260842E+03  0.18735260842E+03  0.00000000000E+00 0.  1.
         25    2    1    2    0    0  0.00000000000E+00  0.00000000000E+00 -0.16650326468E+03  0.20820195217E+03  0.12499886294E+03 0.  0.
        -13    1    3    3    0    0 -0.34753148995E+02 -0.37386124278E+02 -0.23181123214E+02  0.56061388669E+02  0.10570000000E+00 0. -1.
         13    1    3    3    0    0  0.34753148995E+02  0.37386124278E+02 -0.14332214147E+03  0.15214056350E+03  0.10570000000E+00 0. -1.
<mgrwt>
<rscale>  0 0.12499886E+03</rscale>
<asrwt>0</asrwt>
<pdfrwt beam="1">  1       21 0.32075913E-02 0.12499886E+03</pdfrwt>
<pdfrwt beam="2">  1       21 0.28823478E-01 0.12499886E+03</pdfrwt>
<totfact> 0.64051051E+06</totfact>
</mgrwt>
</event>
<event>
 5    1  0.7934596E-005  0.1249992E+03  0.7818608E-02  0.1235071E+00
         21   -1    0    0  502  501  0.00000000000E+00  0.00000000000E+00  0.41227118001E+02  0.41227118001E+02  0.00000000000E+00 0. -1.
         21   -1    0    0  501  502 -0.00000000000E+00 -0.00000000000E+00 -0.94748317915E+02  0.94748317915E+02  0.00000000000E+00 0. -1.
         25    2    1    2    0    0  0.00000000000E+00  0.00000000000E+00 -0.53521199914E+02  0.13597543592E+03  0.12499920133E+03 0.  0.
        -13    1    3    3    0    0  0.31958541797E+02  0.53448199943E+02 -0.32530143839E+02  0.70258664246E+02  0.10570000000E+00 0. -1.
         13    1    3    3    0    0 -0.31958541797E+02 -0.53448199943E+02 -0.20991056076E+02  0.65716771669E+02  0.10570000000E+00 0. -1.
<mgrwt>
<rscale>  0 0.12499920E+03</rscale>
<asrwt>0</asrwt>
<pdfrwt beam="1">  1       21 0.63426336E-02 0.12499920E+03</pdfrwt>
<pdfrwt beam="2">  1       21 0.14576664E-01 0.12499920E+03</pdfrwt>
<totfact> 0.72569053E+06</totfact>
</mgrwt>
</event>
<event>
 5    1  0.7934596E-005  0.1250012E+03  0.7818608E-02  0.1235067E+00
         21   -1    0    0  502  501  0.00000000000E+00  0.00000000000E+00  0.35156396064E+02  0.35156396064E+02  0.00000000000E+00 0. -1.
         21   -1    0    0  501  502 -0.00000000000E+00 -0.00000000000E+00 -0.11111271167E+03  0.11111271167E+03  0.00000000000E+00 0. -1.
         25    2    1    2    0    0  0.00000000000E+00  0.00000000000E+00 -0.75956315608E+02  0.14626910774E+03  0.12500115998E+03 0.  0.
        -13    1    3    3    0    0 -0.46980847901E+02 -0.28108650941E+02 -0.26985219588E+01  0.54814136137E+02  0.10570000000E+00 0.  1.
         13    1    3    3    0    0  0.46980847901E+02  0.28108650941E+02 -0.73257793649E+02  0.91454971598E+02  0.10570000000E+00 0.  1.
<mgrwt>
<rscale>  0 0.12500116E+03</rscale>
<asrwt>0</asrwt>
<pdfrwt beam="1">  1       21 0.54086763E-02 0.12500116E+03</pdfrwt>
<pdfrwt beam="2">  1       21 0.17094263E-01 0.12500116E+03</pdfrwt>
<totfact> 0.71228974E+06</totfact>
</mgrwt>
</event>
<event>
 5    1  0.7934596E-005  0.1249993E+03  0.7818608E-02  0.1235070E+00
         21   -1    0    0  502  501  0.00000000000E+00  0.00000000000E+00  0.23534519911E+02  0.23534519911E+02  0.00000000000E+00 0. -1.
         21   -1    0    0  501  502 -0.00000000000E+00 -0.00000000000E+00 -0.16597764226E+03  0.16597764226E+03  0.00000000000E+00 0. -1.
         25    2    1    2    0    0  0.00000000000E+00  0.00000000000E+00 -0.14244312235E+03  0.18951216217E+03  0.12499926602E+03 0.  0.
        -13    1    3    3    0    0  0.61371043392E+02  0.21785110793E+01 -0.53603254007E+02  0.81513623955E+02  0.10570000000E+00 0. -1.
         13    1    3    3    0    0 -0.61371043392E+02 -0.21785110793E+01 -0.88839868343E+02  0.10799853822E+03  0.10570000000E+00 0. -1.
<mgrwt>
<rscale>  0 0.12499927E+03</rscale>
<asrwt>0</asrwt>
<pdfrwt beam="1">  1       21 0.36206955E-02 0.12499927E+03</pdfrwt>
<pdfrwt beam="2">  1       21 0.25535021E-01 0.12499927E+03</pdfrwt>
<totfact> 0.66077953E+06</totfact>
</mgrwt>
</event>
<event>
 5    1  0.7934596E-005  0.1249997E+03  0.7818608E-02  0.1235070E+00
         21   -1    0    0  502  501  0.00000000000E+00  0.00000000000E+00  0.43901209253E+02  0.43901209253E+02  0.00000000000E+00 0. -1.
         21   -1    0    0  501  502 -0.00000000000E+00 -0.00000000000E+00 -0.88977827647E+02  0.88977827647E+02  0.00000000000E+00 0. -1.
         25    2    1    2    0    0  0.00000000000E+00  0.00000000000E+00 -0.45076618394E+02  0.13287903690E+03  0.12499974769E+03 0.  0.
        -13    1    3    3    0    0  0.27441134971E+02  0.33240736214E+02 -0.70648817297E+02  0.82760068817E+02  0.10570000000E+00 0. -1.
         13    1    3    3    0    0 -0.27441134971E+02 -0.33240736214E+02  0.25572198903E+02  0.50118968084E+02  0.10570000000E+00 0. -1.
<mgrwt>
<rscale>  0 0.12499975E+03</rscale>
<asrwt>0</asrwt>
<pdfrwt beam="1">  1       21 0.67540322E-02 0.12499975E+03</pdfrwt>
<pdfrwt beam="2">  1       21 0.13688896E-01 0.12499975E+03</pdfrwt>
<totfact> 0.72979025E+06</totfact>
</mgrwt>
</event>
<event>
 5    1  0.7934596E-005  0.1250018E+03  0.7818608E-02  0.1235066E+00
         21   -1    0    0  502  501  0.00000000000E+00  0.00000000000E+00  0.29355632877E+02  0.29355632877E+02  0.00000000000E+00 0.  1.
         21   -1    0    0  501  502 -0.00000000000E+00 -0.00000000000E+00 -0.13307037756E+03  0.13307037756E+03  0.00000000000E+00 0.  1.
         25    2    1    2    0    0  0.00000000000E+00  0.00000000000E+00 -0.10371474468E+03  0.16242601044E+03  0.12500184240E+03 0.  0.
        -13    1    3    3    0    0 -0.43655695271E+01 -0.46659558261E+02  0.18779988069E+01  0.46901072764E+02  0.10570000000E+00 0.  1.
         13    1    3    3    0    0  0.43655695271E+01  0.46659558261E+02 -0.10559274349E+03  0.11552493768E+03  0.10570000000E+00 0.  1.
<mgrwt>
<rscale>  0 0.12500184E+03</rscale>
<asrwt>0</asrwt>
<pdfrwt beam="1">  1       21 0.45162513E-02 0.12500184E+03</pdfrwt>
<pdfrwt beam="2">  1       21 0.20472365E-01 0.12500184E+03</pdfrwt>
<totfact> 0.69221031E+06</totfact>
</mgrwt>
</event>
<event>
 5    1  0.7934596E-005  0.1250017E+03  0.7818608E-02  0.1235067E+00
         21   -1    0    0  502  501  0.00000000000E+00  0.00000000000E+00  0.66393343621E+02  0.66393343621E+02  0.00000000000E+00 0. -1.
         21   -1    0    0  501  502 -0.00000000000E+00 -0.00000000000E+00 -0.58836522113E+02  0.58836522113E+02  0.00000000000E+00 0. -1.
         25    2    1    2    0    0  0.00000000000E+00  0.00000000000E+00  0.75568215082E+01  0.12522986573E+03  0.12500165487E+03 0.  0.
        -13    1    3    3    0    0  0.79339165394E+01 -0.50253147163E+02 -0.32592364961E+02  0.60420189156E+02  0.10570000000E+00 0. -1.
         13    1    3    3    0    0 -0.79339165394E+01  0.50253147163E+02  0.40149186469E+02  0.64809676577E+02  0.10570000000E+00 0. -1.
<mgrwt>
<rscale>  0 0.12500165E+03</rscale>
<asrwt>0</asrwt>
<pdfrwt beam="1">  1       21 0.10214361E-01 0.12500165E+03</pdfrwt>
<pdfrwt beam="2">  1       21 0.90517727E-02 0.12500165E+03</pdfrwt>
<totfact> 0.74009408E+06</totfact>
</mgrwt>
</event>
<event>
 5    1  0.7934596E-005  0.1249893E+03  0.7818608E-02  0.1235086E+00
         21   -1    0    0  502  501  0.00000000000E+00  0.00000000000E+00  0.28560632937E+03  0.28560632937E+03  0.00000000000E+00 0.  1.
         21   -1    0    0  501  502 -0.00000000000E+00 -0.00000000000E+00 -0.13674709286E+02  0.13674709286E+02  0.00000000000E+00 0.  1.
         25    2    1    2    0    0  0.00000000000E+00  0.00000000000E+00  0.27193162008E+03  0.29928103865E+03  0.12498933593E+03 0.  0.
        -13    1    3    3    0    0  0.52653620400E+02 -0.62410537116E+01  0.56759799152E+02  0.77672649400E+02  0.10570000000E+00 0.  1.
         13    1    3    3    0    0 -0.52653620400E+02  0.62410537116E+01  0.21517182093E+03  0.22160838925E+03  0.10570000000E+00 0.  1.
<mgrwt>
<rscale>  0 0.12498934E+03</rscale>
<asrwt>0</asrwt>
<pdfrwt beam="1">  1       21 0.43939431E-01 0.12498934E+03</pdfrwt>
<pdfrwt beam="2">  1       21 0.21038016E-02 0.12498934E+03</pdfrwt>
<totfact> 0.55530855E+06</totfact>
</mgrwt>
</event>
<event>
 5    1  0.7934596E-005  0.1249987E+03  0.7818608E-02  0.1235071E+00
         21   -1    0    0  502  501  0.00000000000E+00  0.00000000000E+00  0.93857704428E+02  0.93857704428E+02  0.00000000000E+00 0.  1.
         21   -1    0    0  501  502 -0.00000000000E+00 -0.00000000000E+00 -0.41617994419E+02  0.41617994419E+02  0.00000000000E+00 0.  1.
         25    2    1    2    0    0  0.00000000000E+00  0.00000000000E+00  0.52239710009E+02  0.13547569885E+03  0.12499871070E+03 0.  0.
        -13    1    3    3    0    0  0.41386582388E+02  0.28427109872E+02  0.66457768990E+02  0.83292232585E+02  0.10570000000E+00 0. -1.
         13    1    3    3    0    0 -0.41386582388E+02 -0.28427109872E+02 -0.14218058981E+02  0.52183466262E+02  0.10570000000E+00 0. -1.
<mgrwt>
<rscale>  0 0.12499871E+03</rscale>
<asrwt>0</asrwt>
<pdfrwt beam="1">  1       21 0.14439647E-01 0.12499871E+03</pdfrwt>
<pdfrwt beam="2">  1       21 0.64027684E-02 0.12499871E+03</pdfrwt>
<totfact> 0.72635936E+06</totfact>
</mgrwt>
</event>
<event>
 5    1  0.7934596E-005  0.1249991E+03  0.7818608E-02  0.1235071E+00
         21   -1    0    0  502  501  0.00000000000E+00  0.00000000000E+00  0.83918369301E+02  0.83918369301E+02  0.00000000000E+00 0. -1.
         21   -1    0    0  501  502 -0.00000000000E+00 -0.00000000000E+00 -0.46547517010E+02  0.46547517010E+02  0.00000000000E+00 0. -1.
         25    2    1    2    0    0  0.00000000000E+00  0.00000000000E+00  0.37370852290E+02  0.13046588631E+03  0.12499906756E+03 0.  0.
        -13    1    3    3    0    0 -0.48377611265E+02  0.35064354422E+02  0.37825324842E+02  0.70715405639E+02  0.10570000000E+00 0. -1.
         13    1    3    3    0    0  0.48377611265E+02 -0.35064354422E+02 -0.45447255142E+00  0.59750480672E+02  0.10570000000E+00 0. -1.
<mgrwt>
<rscale>  0 0.12499907E+03</rscale>
<asrwt>0</asrwt>
<pdfrwt beam="1">  1       21 0.12910518E-01 0.12499907E+03</pdfrwt>
<pdfrwt beam="2">  1       21 0.71611565E-02 0.12499907E+03</pdfrwt>
<totfact> 0.73304459E+06</totfact>
</mgrwt>
</event>
<event>
 5    1  0.7934596E-005  0.1249998E+03  0.7818608E-02  0.1235070E+00
         21   -1    0    0  502  501  0.00000000000E+00  0.00000000000E+00  0.26940817538E+03  0.26940817538E+03  0.00000000000E+00 0.  1.
         21   -1    0    0  501  502 -0.00000000000E+00 -0.00000000000E+00 -0.14499335968E+02  0.14499335968E+02  0.00000000000E+00 0.  1.
         25    2    1    2    0    0  0.00000000000E+00  0.00000000000E+00  0.25490883941E+03  0.28390751135E+03  0.12499983436E+03 0.  0.
        -13    1    3    3    0    0 -0.11534553912E+02  0.51002248654E+02  0.49700449304E+02  0.72141674053E+02  0.10570000000E+00 0. -1.
         13    1    3    3    0    0  0.11534553912E+02 -0.51002248654E+02  0.20520839011E+03  0.21176583729E+03  0.10570000000E+00 0. -1.
<mgrwt>
<rscale>  0 0.12499983E+03</rscale>
<asrwt>0</asrwt>
<pdfrwt beam="1">  1       21 0.41447408E-01 0.12499983E+03</pdfrwt>
<pdfrwt beam="2">  1       21 0.22306673E-02 0.12499983E+03</pdfrwt>
<totfact> 0.56820851E+06</totfact>
</mgrwt>
</event>
<event>
 5    1  0.7934596E-005  0.1249994E+03  0.7818608E-02  0.1235070E+00
         21   -1    0    0  502  501  0.00000000000E+00  0.00000000000E+00  0.17860309365E+03  0.17860309365E+03  0.00000000000E+00 0. -1.
         21   -1    0    0  501  502 -0.00000000000E+00 -0.00000000000E+00 -0.21870901542E+02  0.21870901542E+02  0.00000000000E+00 0. -1.
         25    2    1    2    0    0  0.00000000000E+00  0.00000000000E+00  0.15673219211E+03  0.20047399519E+03  0.12499937082E+03 0.  0.
        -13    1    3    3    0    0  0.30744682305E+01 -0.61539180438E+02  0.95162134155E+02  0.11336827613E+03  0.10570000000E+00 0.  1.
         13    1    3    3    0    0 -0.30744682305E+01  0.61539180438E+02  0.61570057954E+02  0.87105719059E+02  0.10570000000E+00 0.  1.
<mgrwt>
<rscale>  0 0.12499937E+03</rscale>
<asrwt>0</asrwt>
<pdfrwt beam="1">  1       21 0.27477398E-01 0.12499937E+03</pdfrwt>
<pdfrwt beam="2">  1       21 0.33647542E-02 0.12499937E+03</pdfrwt>
<totfact> 0.64876962E+06</totfact>
</mgrwt>
</event>
<event>
 5    1  0.7934596E-005  0.1250014E+03  0.7818608E-02  0.1235067E+00
         21   -1    0    0  502  501  0.00000000000E+00  0.00000000000E+00  0.21990978663E+02  0.21990978663E+02  0.00000000000E+00 0. -1.
         21   -1    0    0  501  502 -0.00000000000E+00 -0.00000000000E+00 -0.17763372038E+03  0.17763372038E+03  0.00000000000E+00 0. -1.
         25    2    1    2    0    0  0.00000000000E+00  0.00000000000E+00 -0.15564274172E+03  0.19962469904E+03  0.12500142967E+03 0.  0.
        -13    1    3    3    0    0 -0.47128400522E+02  0.24309250016E+02 -0.13064983346E+03  0.14100147491E+03  0.10570000000E+00 0. -1.
         13    1    3    3    0    0  0.47128400522E+02 -0.24309250016E+02 -0.24992908261E+02  0.58623224135E+02  0.10570000000E+00 0. -1.
<mgrwt>
<rscale>  0 0.12500143E+03</rscale>
<asrwt>0</asrwt>
<pdfrwt beam="1">  1       21 0.33832276E-02 0.12500143E+03</pdfrwt>
<pdfrwt beam="2">  1       21 0.27328264E-01 0.12500143E+03</pdfrwt>
<totfact> 0.64965590E+06</totfact>
</mgrwt>
</event>
<event>
 5    1  0.7934596E-005  0.1249996E+03  0.7818608E-02  0.1235070E+00
         21   -1    0    0  502  501  0.00000000000E+00  0.00000000000E+00  0.11564655373E+02  0.11564655373E+02  0.00000000000E+00 0.  1.
         21   -1    0    0  501  502 -0.00000000000E+00 -0.00000000000E+00 -0.33777272783E+03  0.33777272783E+03  0.00000000000E+00 0.  1.
         25    2    1    2    0    0  0.00000000000E+00  0.00000000000E+00 -0.32620807245E+03  0.34933738320E+03  0.12499960307E+03 0.  0.
        -13    1    3    3    0    0 -0.59425646839E+02 -0.17574481228E+02 -0.18579873846E+03  0.19586079822E+03  0.10570000000E+00 0.  1.
         13    1    3    3    0    0  0.59425646839E+02  0.17574481228E+02 -0.14040933400E+03  0.15347658499E+03  0.10570000000E+00 0.  1.
<mgrwt>
<rscale>  0 0.12499960E+03</rscale>
<asrwt>0</asrwt>
<pdfrwt beam="1">  1       21 0.17791776E-02 0.12499960E+03</pdfrwt>
<pdfrwt beam="2">  1       21 0.51965038E-01 0.12499960E+03</pdfrwt>
<totfact> 0.51587916E+06</totfact>
</mgrwt>
</event>
<event>
 5    1  0.7934596E-005  0.1249997E+03  0.7818608E-02  0.1235070E+00
         21   -1    0    0  502  501  0.00000000000E+00  0.00000000000E+00  0.14050590018E+03  0.14050590018E+03  0.00000000000E+00 0. -1.
         21   -1    0    0  501  502 -0.00000000000E+00 -0.00000000000E+00 -0.27801182060E+02  0.27801182060E+02  0.00000000000E+00 0. -1.
         25    2    1    2    0    0  0.00000000000E+00  0.00000000000E+00  0.11270471812E+03  0.16830708224E+03  0.12499968178E+03 0.  0.
        -13    1    3    3    0    0 -0.55106139895E+02 -0.26584307360E+02  0.73532624513E+02  0.95658089529E+02  0.10570000000E+00 0. -1.
         13    1    3    3    0    0  0.55106139895E+02  0.26584307360E+02  0.39172093606E+02  0.72648992711E+02  0.10570000000E+00 0. -1.
<mgrwt>
<rscale>  0 0.12499968E+03</rscale>
<asrwt>0</asrwt>
<pdfrwt beam="1">  1       21 0.21616292E-01 0.12499968E+03</pdfrwt>
<pdfrwt beam="2">  1       21 0.42771050E-02 0.12499968E+03</pdfrwt>
<totfact> 0.68518991E+06</totfact>
</mgrwt>
</event>
<event>
 5    1  0.7934596E-005  0.1249997E+03  0.7818608E-02  0.1235070E+00
         21   -1    0    0  502  501  0.00000000000E+00  0.00000000000E+00  0.28949925950E+03  0.28949925950E+03  0.00000000000E+00 0.  1.
         21   -1    0    0  501  502 -0.00000000000E+00 -0.00000000000E+00 -0.13493071666E+02  0.13493071666E+02  0.00000000000E+00 0.  1.
         25    2    1    2    0    0  0.00000000000E+00  0.00000000000E+00  0.27600618783E+03  0.30299233116E+03  0.12499974809E+03 0.  0.
        -13    1    3    3    0    0  0.51372352488E+02 -0.35463664901E+02  0.13055840807E+03  0.14471454391E+03  0.10570000000E+00 0. -1.
         13    1    3    3    0    0 -0.51372352488E+02  0.35463664901E+02  0.14544777976E+03  0.15827778726E+03  0.10570000000E+00 0. -1.
<mgrwt>
<rscale>  0 0.12499975E+03</rscale>
<asrwt>0</asrwt>
<pdfrwt beam="1">  1       21 0.44538343E-01 0.12499975E+03</pdfrwt>
<pdfrwt beam="2">  1       21 0.20758574E-02 0.12499975E+03</pdfrwt>
<totfact> 0.55208764E+06</totfact>
</mgrwt>
</event>
<event>
 5    1  0.7934596E-005  0.1249859E+03  0.7818608E-02  0.1235091E+00
         21   -1    0    0  502  501  0.00000000000E+00  0.00000000000E+00  0.21841984085E+02  0.21841984085E+02  0.00000000000E+00 0. -1.
         21   -1    0    0  501  502 -0.00000000000E+00 -0.00000000000E+00 -0.17880104263E+03  0.17880104263E+03  0.00000000000E+00 0. -1.
         25    2    1    2    0    0  0.00000000000E+00  0.00000000000E+00 -0.15695905854E+03  0.20064302671E+03  0.12498591164E+03 0.  0.
        -13    1    3    3    0    0  0.48399866620E+02  0.16931187580E+02 -0.13582686105E+03  0.14518319309E+03  0.10570000000E+00 0.  1.
         13    1    3    3    0    0 -0.48399866620E+02 -0.16931187580E+02 -0.21132197495E+02  0.55459833620E+02  0.10570000000E+00 0.  1.
<mgrwt>
<rscale>  0 0.12498591E+03</rscale>
<asrwt>0</asrwt>
<pdfrwt beam="1">  1       21 0.33603051E-02 0.12498591E+03</pdfrwt>
<pdfrwt beam="2">  1       21 0.27507854E-01 0.12498591E+03</pdfrwt>
<totfact> 0.64880778E+06</totfact>
</mgrwt>
</event>
<event>
 5    1  0.7934596E-005  0.1250006E+03  0.7818608E-02  0.1235068E+00
         21   -1    0    0  502  501  0.00000000000E+00  0.00000000000E+00  0.13452022106E+02  0.13452022106E+02  0.00000000000E+00 0.  1.
         21   -1    0    0  501  502 -0.00000000000E+00 -0.00000000000E+00 -0.29038645607E+03  0.29038645607E+03  0.00000000000E+00 0.  1.
         25    2    1    2    0    0  0.00000000000E+00  0.00000000000E+00 -0.27693443396E+03  0.30383847818E+03  0.12500056042E+03 0.  0.
        -13    1    3    3    0    0 -0.41330154485E+02  0.29363982156E+02 -0.22730740193E+03  0.23289287508E+03  0.10570000000E+00 0.  1.
         13    1    3    3    0    0  0.41330154485E+02 -0.29363982156E+02 -0.49627032034E+02  0.70945603097E+02  0.10570000000E+00 0.  1.
<mgrwt>
<rscale>  0 0.12500056E+03</rscale>
<asrwt>0</asrwt>
<pdfrwt beam="1">  1       21 0.20695420E-02 0.12500056E+03</pdfrwt>
<pdfrwt beam="2">  1       21 0.44674837E-01 0.12500056E+03</pdfrwt>
<totfact> 0.55137907E+06</totfact>
</mgrwt>
</event>
<event>
 5    1  0.7934596E-005  0.1249993E+03  0.7818608E-02  0.1235070E+00
         21   -1    0    0  502  501  0.00000000000E+00  0.00000000000E+00  0.19353292843E+03  0.19353292843E+03  0.00000000000E+00 0. -1.
         21   -1    0    0  501  502 -0.00000000000E+00 -0.00000000000E+00 -0.20183680776E+02  0.20183680776E+02  0.00000000000E+00 0. -1.
         25    2    1    2    0    0  0.00000000000E+00  0.00000000000E+00  0.17334924765E+03  0.21371660920E+03  0.12499930955E+03 0.  0.
        -13    1    3    3    0    0 -0.45397565181E+01  0.50974170432E+02  0.14801650494E+03  0.15661376806E+03  0.10570000000E+00 0.  1.
         13    1    3    3    0    0  0.45397565181E+01 -0.50974170432E+02  0.25332742712E+02  0.57102841140E+02  0.10570000000E+00 0.  1.
<mgrwt>
<rscale>  0 0.12499931E+03</rscale>
<asrwt>0</asrwt>
<pdfrwt beam="1">  1       21 0.29774295E-01 0.12499931E+03</pdfrwt>
<pdfrwt beam="2">  1       21 0.31051818E-02 0.12499931E+03</pdfrwt>
<totfact> 0.63471724E+06</totfact>
</mgrwt>
</event>
<event>
 5    1  0.7934596E-005  0.1250001E+03  0.7818608E-02  0.1235069E+00
         21   -1    0    0  502  501  0.00000000000E+00  0.00000000000E+00  0.93730736918E+01  0.93730736918E+01  0.00000000000E+00 0. -1.
         21   -1    0    0  501  502 -0.00000000000E+00 -0.00000000000E+00 -0.41675300865E+03  0.41675300865E+03  0.00000000000E+00 0. -1.
         25    2    1    2    0    0  0.00000000000E+00  0.00000000000E+00 -0.40737993496E+03  0.42612608235E+03  0.12500010658E+03 0.  0.
        -13    1    3    3    0    0 -0.30130892746E+01 -0.59909288505E+02 -0.14385789260E+03  0.15586310016E+03  0.10570000000E+00 0.  1.
         13    1    3    3    0    0  0.30130892746E+01  0.59909288505E+02 -0.26352204236E+03  0.27026298218E+03  0.10570000000E+00 0.  1.
<mgrwt>
<rscale>  0 0.12500011E+03</rscale>
<asrwt>0</asrwt>
<pdfrwt beam="1">  1       21 0.14420121E-02 0.12500011E+03</pdfrwt>
<pdfrwt beam="2">  1       21 0.64115816E-01 0.12500011E+03</pdfrwt>
<totfact> 0.46355266E+06</totfact>
</mgrwt>
</event>
<event>
 5    1  0.7934596E-005  0.1250003E+03  0.7818608E-02  0.1235069E+00
         21   -1    0    0  502  501  0.00000000000E+00  0.00000000000E+00  0.91659535682E+01  0.91659535682E+01  0.00000000000E+00 0. -1.
         21   -1    0    0  501  502 -0.00000000000E+00 -0.00000000000E+00 -0.42617155781E+03  0.42617155781E+03  0.00000000000E+00 0. -1.
         25    2    1    2    0    0  0.00000000000E+00  0.00000000000E+00 -0.41700560424E+03  0.43533751138E+03  0.12500029937E+03 0.  0.
        -13    1    3    3    0    0 -0.55418139843E+02  0.27957358559E+02 -0.23397016676E+03  0.24206369870E+03  0.10570000000E+00 0.  1.
         13    1    3    3    0    0  0.55418139843E+02 -0.27957358559E+02 -0.18303543748E+03  0.19327381268E+03  0.10570000000E+00 0.  1.
<mgrwt>
<rscale>  0 0.12500030E+03</rscale>
<asrwt>0</asrwt>
<pdfrwt beam="1">  1       21 0.14101466E-02 0.12500030E+03</pdfrwt>
<pdfrwt beam="2">  1       21 0.65564858E-01 0.12500030E+03</pdfrwt>
<totfact> 0.45782151E+06</totfact>
</mgrwt>
</event>
<event>
 5    1  0.7934596E-005  0.1250026E+03  0.7818608E-02  0.1235065E+00
         21   -1    0    0  502  501  0.00000000000E+00  0.00000000000E+00  0.88197318714E+02  0.88197318714E+02  0.00000000000E+00 0. -1.
         21   -1    0    0  501  502 -0.00000000000E+00 -0.00000000000E+00 -0.44291719717E+02  0.44291719717E+02  0.00000000000E+00 0. -1.
         25    2    1    2    0    0  0.00000000000E+00  0.00000000000E+00  0.43905598998E+02  0.13248903843E+03  0.12500257470E+03 0.  0.
        -13    1    3    3    0    0 -0.14745445465E+02  0.60701802261E+02  0.24141104540E+02  0.66969702557E+02  0.10570000000E+00 0. -1.
         13    1    3    3    0    0  0.14745445465E+02 -0.60701802261E+02  0.19764494457E+02  0.65519335874E+02  0.10570000000E+00 0. -1.
<mgrwt>
<rscale>  0 0.12500257E+03</rscale>
<asrwt>0</asrwt>
<pdfrwt beam="1">  1       21 0.13568818E-01 0.12500257E+03</pdfrwt>
<pdfrwt beam="2">  1       21 0.68141107E-02 0.12500257E+03</pdfrwt>
<totfact> 0.73025909E+06</totfact>
</mgrwt>
</event>
<event>
 5    1  0.7934596E-005  0.1250001E+03  0.7818608E-02  0.1235069E+00
         21   -1    0    0  502  501  0.00000000000E+00  0.00000000000E+00  0.83034134964E+02  0.83034134964E+02  0.00000000000E+00 0.  1.
         21   -1    0    0  501  502 -0.00000000000E+00 -0.00000000000E+00 -0.47043955994E+02  0.47043955994E+02  0.00000000000E+00 0.  1.
         25    2    1    2    0    0  0.00000000000E+00  0.00000000000E+00  0.35990178969E+02  0.13007809096E+03  0.12500006706E+03 0.  0.
        -13    1    3    3    0    0  0.52815761132E+02 -0.32646496024E+02  0.25422601789E+02  0.67094099448E+02  0.10570000000E+00 0. -1.
         13    1    3    3    0    0 -0.52815761132E+02  0.32646496024E+02  0.10567577181E+02  0.62983991510E+02  0.10570000000E+00 0. -1.
<mgrwt>
<rscale>  0 0.12500007E+03</rscale>
<asrwt>0</asrwt>
<pdfrwt beam="1">  1       21 0.12774482E-01 0.12500007E+03</pdfrwt>
<pdfrwt beam="2">  1       21 0.72375317E-02 0.12500007E+03</pdfrwt>
<totfact> 0.73354354E+06</totfact>
</mgrwt>
</event>
<event>
 5    1  0.7934596E-005  0.1250005E+03  0.7818608E-02  0.1235069E+00
         21   -1    0    0  502  501  0.00000000000E+00  0.00000000000E+00  0.21392745430E+02  0.21392745430E+02  0.00000000000E+00 0. -1.
         21   -1    0    0  501  502 -0.00000000000E+00 -0.00000000000E+00 -0.18259837596E+03  0.18259837596E+03  0.00000000000E+00 0. -1.
         25    2    1    2    0    0  0.00000000000E+00  0.00000000000E+00 -0.16120563053E+03  0.20399112139E+03  0.12500048917E+03 0.  0.
        -13    1    3    3    0    0 -0.44939802404E+02 -0.41887682793E+02 -0.99359675889E+02  0.11681832123E+03  0.10570000000E+00 0. -1.
         13    1    3    3    0    0  0.44939802404E+02  0.41887682793E+02 -0.61845954644E+02  0.87172800163E+02  0.10570000000E+00 0. -1.
<mgrwt>
<rscale>  0 0.12500049E+03</rscale>
<asrwt>0</asrwt>
<pdfrwt beam="1">  1       21 0.32911918E-02 0.12500049E+03</pdfrwt>
<pdfrwt beam="2">  1       21 0.28092057E-01 0.12500049E+03</pdfrwt>
<totfact> 0.64496539E+06</totfact>
</mgrwt>
</event>
<event>
 5    1  0.7934596E-005  0.1250041E+03  0.7818608E-02  0.1235063E+00
         21   -1    0    0  502  501  0.00000000000E+00  0.00000000000E+00  0.32536955223E+02  0.32536955223E+02  0.00000000000E+00 0.  1.
         21   -1    0    0  501  502 -0.00000000000E+00 -0.00000000000E+00 -0.12006372501E+03  0.12006372501E+03  0.00000000000E+00 0.  1.
         25    2    1    2    0    0  0.00000000000E+00  0.00000000000E+00 -0.87526769786E+02  0.15260068023E+03  0.12500412864E+03 0.  0.
        -13    1    3    3    0    0  0.27421176759E+02  0.55094684264E+02 -0.30437923987E+02  0.68657290641E+02  0.10570000000E+00 0. -1.
         13    1    3    3    0    0 -0.27421176759E+02 -0.55094684264E+02 -0.57088845798E+02  0.83943389591E+02  0.10570000000E+00 0. -1.
<mgrwt>
<rscale>  0 0.12500413E+03</rscale>
<asrwt>0</asrwt>
<pdfrwt beam="1">  1       21 0.50056854E-02 0.12500413E+03</pdfrwt>
<pdfrwt beam="2">  1       21 0.18471342E-01 0.12500413E+03</pdfrwt>
<totfact> 0.70426617E+06</totfact>
</mgrwt>
</event>
<event>
 5    1  0.7934596E-005  0.1249994E+03  0.7818608E-02  0.1235070E+00
         21   -1    0    0  502  501  0.00000000000E+00  0.00000000000E+00  0.26443116033E+02  0.26443116033E+02  0.00000000000E+00 0. -1.
         21   -1    0    0  501  502 -0.00000000000E+00 -0.00000000000E+00 -0.14772142738E+03  0.14772142738E+03  0.00000000000E+00 0. -1.
         25    2    1    2    0    0  0.00000000000E+00  0.00000000000E+00 -0.12127831135E+03  0.17416454341E+03  0.12499943752E+03 0.  0.
        -13    1    3    3    0    0  0.59400869284E+02  0.10271964252E+02 -0.83628014107E+02  0.10309040905E+03  0.10570000000E+00 0. -1.
         13    1    3    3    0    0 -0.59400869284E+02 -0.10271964252E+02 -0.37650297242E+02  0.71074134368E+02  0.10570000000E+00 0. -1.
<mgrwt>
<rscale>  0 0.12499944E+03</rscale>
<asrwt>0</asrwt>
<pdfrwt beam="1">  1       21 0.40681718E-02 0.12499944E+03</pdfrwt>
<pdfrwt beam="2">  1       21 0.22726373E-01 0.12499944E+03</pdfrwt>
<totfact> 0.67828318E+06</totfact>
</mgrwt>
</event>
<event>
 5    1  0.7934596E-005  0.1250033E+03  0.7818608E-02  0.1235064E+00
         21   -1    0    0  502  501  0.00000000000E+00  0.00000000000E+00  0.13523386841E+03  0.13523386841E+03  0.00000000000E+00 0.  1.
         21   -1    0    0  501  502 -0.00000000000E+00 -0.00000000000E+00 -0.28886682200E+02  0.28886682200E+02  0.00000000000E+00 0.  1.
         25    2    1    2    0    0  0.00000000000E+00  0.00000000000E+00  0.10634718621E+03  0.16412055061E+03  0.12500332443E+03 0.  0.
        -13    1    3    3    0    0  0.36330688210E+01 -0.62190629035E+02  0.46534130887E+02  0.77758022343E+02  0.10570000000E+00 0. -1.
         13    1    3    3    0    0 -0.36330688210E+01  0.62190629035E+02  0.59813055323E+02  0.86362528265E+02  0.10570000000E+00 0. -1.
<mgrwt>
<rscale>  0 0.12500332E+03</rscale>
<asrwt>0</asrwt>
<pdfrwt beam="1">  1       21 0.20805210E-01 0.12500332E+03</pdfrwt>
<pdfrwt beam="2">  1       21 0.44441050E-02 0.12500332E+03</pdfrwt>
<totfact> 0.69013651E+06</totfact>
</mgrwt>
</event>
<event>
 5    1  0.7934596E-005  0.1250008E+03  0.7818608E-02  0.1235068E+00
         21   -1    0    0  502  501  0.00000000000E+00  0.00000000000E+00  0.35343764111E+02  0.35343764111E+02  0.00000000000E+00 0.  1.
         21   -1    0    0  501  502 -0.00000000000E+00 -0.00000000000E+00 -0.11052298129E+03  0.11052298129E+03  0.00000000000E+00 0.  1.
         25    2    1    2    0    0  0.00000000000E+00  0.00000000000E+00 -0.75179217180E+02  0.14586674540E+03  0.12500077087E+03 0.  0.
        -13    1    3    3    0    0 -0.52513367613E+02 -0.14596714322E+02 -0.73282485183E+02  0.91329358117E+02  0.10570000000E+00 0. -1.
         13    1    3    3    0    0  0.52513367613E+02  0.14596714322E+02 -0.18967319971E+01  0.54537387284E+02  0.10570000000E+00 0. -1.
<mgrwt>
<rscale>  0 0.12500077E+03</rscale>
<asrwt>0</asrwt>
<pdfrwt beam="1">  1       21 0.54375023E-02 0.12500077E+03</pdfrwt>
<pdfrwt beam="2">  1       21 0.17003535E-01 0.12500077E+03</pdfrwt>
<totfact> 0.71280962E+06</totfact>
</mgrwt>
</event>
<event>
 5    1  0.7934596E-005  0.1249981E+03  0.7818608E-02  0.1235072E+00
         21   -1    0    0  502  501  0.00000000000E+00  0.00000000000E+00  0.48729384025E+03  0.48729384025E+03  0.00000000000E+00 0. -1.
         21   -1    0    0  501  502 -0.00000000000E+00 -0.00000000000E+00 -0.80159613983E+01  0.80159613983E+01  0.00000000000E+00 0. -1.
         25    2    1    2    0    0  0.00000000000E+00  0.00000000000E+00  0.47927787885E+03  0.49530980164E+03  0.12499805779E+03 0.  0.
        -13    1    3    3    0    0 -0.58418858804E+02 -0.17898429961E+02  0.18751977568E+03  0.19722270230E+03  0.10570000000E+00 0.  1.
         13    1    3    3    0    0  0.58418858804E+02  0.17898429961E+02  0.29175810317E+03  0.29808709934E+03  0.10570000000E+00 0.  1.
<mgrwt>
<rscale>  0 0.12499806E+03</rscale>
<asrwt>0</asrwt>
<pdfrwt beam="1">  1       21 0.74968260E-01 0.12499806E+03</pdfrwt>
<pdfrwt beam="2">  1       21 0.12332252E-02 0.12499806E+03</pdfrwt>
<totfact> 0.42301632E+06</totfact>
</mgrwt>
</event>
<event>
 5    1  0.7934596E-005  0.1250013E+03  0.7818608E-02  0.1235067E+00
         21   -1    0    0  502  501  0.00000000000E+00  0.00000000000E+00  0.19264226467E+02  0.19264226467E+02  0.00000000000E+00 0. -1.
         21   -1    0    0  501  502 -0.00000000000E+00 -0.00000000000E+00 -0.20277655675E+03  0.20277655675E+03  0.00000000000E+00 0. -1.
         25    2    1    2    0    0  0.00000000000E+00  0.00000000000E+00 -0.18351233029E+03  0.22204078322E+03  0.12500133618E+03 0.  0.
        -13    1    3    3    0    0  0.13436297221E+02  0.35540539036E+02 -0.36065993989E+01  0.38166513198E+02  0.10570000000E+00 0. -1.
         13    1    3    3    0    0 -0.13436297221E+02 -0.35540539036E+02 -0.17990573089E+03  0.18387427002E+03  0.10570000000E+00 0. -1.
<mgrwt>
<rscale>  0 0.12500134E+03</rscale>
<asrwt>0</asrwt>
<pdfrwt beam="1">  1       21 0.29637271E-02 0.12500134E+03</pdfrwt>
<pdfrwt beam="2">  1       21 0.31196394E-01 0.12500134E+03</pdfrwt>
<totfact> 0.62612433E+06</totfact>
</mgrwt>
</event>
<event>
 5    1  0.7934596E-005  0.1250010E+03  0.7818608E-02  0.1235068E+00
         21   -1    0    0  502  501  0.00000000000E+00  0.00000000000E+00  0.52578280849E+02  0.52578280849E+02  0.00000000000E+00 0.  1.
         21   -1    0    0  501  502 -0.00000000000E+00 -0.00000000000E+00 -0.74295208286E+02  0.74295208286E+02  0.00000000000E+00 0.  1.
         25    2    1    2    0    0  0.00000000000E+00  0.00000000000E+00 -0.21716927437E+02  0.12687348913E+03  0.12500102923E+03 0.  0.
        -13    1    3    3    0    0 -0.45519684296E+02  0.41980245000E+02 -0.19466096315E+02  0.64910112516E+02  0.10570000000E+00 0. -1.
         13    1    3    3    0    0  0.45519684296E+02 -0.41980245000E+02 -0.22508311223E+01  0.61963376618E+02  0.10570000000E+00 0. -1.
<mgrwt>
<rscale>  0 0.12500103E+03</rscale>
<asrwt>0</asrwt>
<pdfrwt beam="1">  1       21 0.80889664E-02 0.12500103E+03</pdfrwt>
<pdfrwt beam="2">  1       21 0.11430032E-01 0.12500103E+03</pdfrwt>
<totfact> 0.73784430E+06</totfact>
</mgrwt>
</event>
<event>
 5    1  0.7934596E-005  0.1249943E+03  0.7818608E-02  0.1235078E+00
         21   -1    0    0  502  501  0.00000000000E+00  0.00000000000E+00  0.87705674155E+02  0.87705674155E+02  0.00000000000E+00 0. -1.
         21   -1    0    0  501  502 -0.00000000000E+00 -0.00000000000E+00 -0.44534106309E+02  0.44534106309E+02  0.00000000000E+00 0. -1.
         25    2    1    2    0    0  0.00000000000E+00  0.00000000000E+00  0.43171567846E+02  0.13223978046E+03  0.12499430094E+03 0.  0.
        -13    1    3    3    0    0 -0.28999327136E+02 -0.55041113239E+02  0.27880242006E+02  0.68174806107E+02  0.10570000000E+00 0. -1.
         13    1    3    3    0    0  0.28999327136E+02  0.55041113239E+02  0.15291325840E+02  0.64064974357E+02  0.10570000000E+00 0. -1.
<mgrwt>
<rscale>  0 0.12499430E+03</rscale>
<asrwt>0</asrwt>
<pdfrwt beam="1">  1       21 0.13493181E-01 0.12499430E+03</pdfrwt>
<pdfrwt beam="2">  1       21 0.68514010E-02 0.12499430E+03</pdfrwt>
<totfact> 0.73074708E+06</totfact>
</mgrwt>
</event>
<event>
 5    1  0.7934596E-005  0.1249941E+03  0.7818608E-02  0.1235078E+00
         21   -1    0    0  502  501  0.00000000000E+00  0.00000000000E+00  0.14026357297E+02  0.14026357297E+02  0.00000000000E+00 0.  1.
         21   -1    0    0  501  502 -0.00000000000E+00 -0.00000000000E+00 -0.27846744135E+03  0.27846744135E+03  0.00000000000E+00 0.  1.
         25    2    1    2    0    0  0.00000000000E+00  0.00000000000E+00 -0.26444108405E+03  0.29249379864E+03  0.12499414111E+03 0.  0.
        -13    1    3    3    0    0 -0.23198174427E+02 -0.53093340508E+02 -0.18704064101E+03  0.19580927114E+03  0.10570000000E+00 0.  1.
         13    1    3    3    0    0  0.23198174427E+02  0.53093340508E+02 -0.77400443038E+02  0.96684527500E+02  0.10570000000E+00 0.  1.
<mgrwt>
<rscale>  0 0.12499414E+03</rscale>
<asrwt>0</asrwt>
<pdfrwt beam="1">  1       21 0.21579014E-02 0.12499414E+03</pdfrwt>
<pdfrwt beam="2">  1       21 0.42841139E-01 0.12499414E+03</pdfrwt>
<totfact> 0.56094058E+06</totfact>
</mgrwt>
</event>
<event>
 5    1  0.7934596E-005  0.1250014E+03  0.7818608E-02  0.1235067E+00
         21   -1    0    0  502  501  0.00000000000E+00  0.00000000000E+00  0.54839826354E+02  0.54839826354E+02  0.00000000000E+00 0. -1.
         21   -1    0    0  501  502 -0.00000000000E+00 -0.00000000000E+00 -0.71231748791E+02  0.71231748791E+02  0.00000000000E+00 0. -1.
         25    2    1    2    0    0  0.00000000000E+00  0.00000000000E+00 -0.16391922437E+02  0.12607157514E+03  0.12500138774E+03 0.  0.
        -13    1    3    3    0    0 -0.22352294102E+02 -0.39662196778E+02  0.34991324182E+02  0.57420543757E+02  0.10570000000E+00 0.  1.
         13    1    3    3    0    0  0.22352294102E+02  0.39662196778E+02 -0.51383246619E+02  0.68651031387E+02  0.10570000000E+00 0.  1.
<mgrwt>
<rscale>  0 0.12500139E+03</rscale>
<asrwt>0</asrwt>
<pdfrwt beam="1">  1       21 0.84368964E-02 0.12500139E+03</pdfrwt>
<pdfrwt beam="2">  1       21 0.10958731E-01 0.12500139E+03</pdfrwt>
<totfact> 0.73893559E+06</totfact>
</mgrwt>
</event>
<event>
 5    1  0.7934596E-005  0.1250023E+03  0.7818608E-02  0.1235066E+00
         21   -1    0    0  502  501  0.00000000000E+00  0.00000000000E+00  0.14373518028E+02  0.14373518028E+02  0.00000000000E+00 0.  1.
         21   -1    0    0  501  502 -0.00000000000E+00 -0.00000000000E+00 -0.27177720076E+03  0.27177720076E+03  0.00000000000E+00 0.  1.
         25    2    1    2    0    0  0.00000000000E+00  0.00000000000E+00 -0.25740368273E+03  0.28615071879E+03  0.12500231189E+03 0.  0.
        -13    1    3    3    0    0  0.60620665156E+02  0.14958986721E+02 -0.12233031594E+03  0.13734392487E+03  0.10570000000E+00 0. -1.
         13    1    3    3    0    0 -0.60620665156E+02 -0.14958986721E+02 -0.13507336679E+03  0.14880679392E+03  0.10570000000E+00 0. -1.
<mgrwt>
<rscale>  0 0.12500231E+03</rscale>
<asrwt>0</asrwt>
<pdfrwt beam="1">  1       21 0.22113103E-02 0.12500231E+03</pdfrwt>
<pdfrwt beam="2">  1       21 0.41811880E-01 0.12500231E+03</pdfrwt>
<totfact> 0.56623813E+06</totfact>
</mgrwt>
</event>
<event>
 5    1  0.7934596E-005  0.1249996E+03  0.7818608E-02  0.1235070E+00
         21   -1    0    0  502  501  0.00000000000E+00  0.00000000000E+00  0.29589985293E+02  0.29589985293E+02  0.00000000000E+00 0. -1.
         21   -1    0    0  501  502 -0.00000000000E+00 -0.00000000000E+00 -0.13201168153E+03  0.13201168153E+03  0.00000000000E+00 0. -1.
         25    2    1    2    0    0  0.00000000000E+00  0.00000000000E+00 -0.10242169624E+03  0.16160166683E+03  0.12499957944E+03 0.  0.
        -13    1    3    3    0    0 -0.37670428625E+02  0.46485696642E+02 -0.74561560572E+02  0.95600306864E+02  0.10570000000E+00 0. -1.
         13    1    3    3    0    0  0.37670428625E+02 -0.46485696642E+02 -0.27860135669E+02  0.66001359964E+02  0.10570000000E+00 0. -1.
<mgrwt>
<rscale>  0 0.12499958E+03</rscale>
<asrwt>0</asrwt>
<pdfrwt beam="1">  1       21 0.45523054E-02 0.12499958E+03</pdfrwt>
<pdfrwt beam="2">  1       21 0.20309489E-01 0.12499958E+03</pdfrwt>
<totfact> 0.69325058E+06</totfact>
</mgrwt>
</event>
<event>
 5    1  0.7934596E-005  0.1250026E+03  0.7818608E-02  0.1235065E+00
         21   -1    0    0  502  501  0.00000000000E+00  0.00000000000E+00  0.14393130622E+02  0.14393130622E+02  0.00000000000E+00 0. -1.
         21   -1    0    0  501  502 -0.00000000000E+00 -0.00000000000E+00 -0.27140800617E+03  0.27140800617E+03  0.00000000000E+00 0. -1.
         25    2    1    2    0    0  0.00000000000E+00  0.00000000000E+00 -0.25701487555E+03  0.28580113679E+03  0.12500257413E+03 0.  0.
        -13    1    3    3    0    0 -0.36605798991E+02 -0.46428281559E+02 -0.17484956854E+03  0.18457505963E+03  0.10570000000E+00 0.  1.
         13    1    3    3    0    0  0.36605798991E+02  0.46428281559E+02 -0.82165307009E+02  0.10122607716E+03  0.10570000000E+00 0.  1.
<mgrwt>
<rscale>  0 0.12500257E+03</rscale>
<asrwt>0</asrwt>
<pdfrwt beam="1">  1       21 0.22143279E-02 0.12500257E+03</pdfrwt>
<pdfrwt beam="2">  1       21 0.41755075E-01 0.12500257E+03</pdfrwt>
<totfact> 0.56653524E+06</totfact>
</mgrwt>
</event>
<event>
 5    1  0.7934596E-005  0.1249981E+03  0.7818608E-02  0.1235072E+00
         21   -1    0    0  502  501  0.00000000000E+00  0.00000000000E+00  0.38122139609E+03  0.38122139609E+03  0.00000000000E+00 0. -1.
         21   -1    0    0  501  502 -0.00000000000E+00 -0.00000000000E+00 -0.10246352701E+02  0.10246352701E+02  0.00000000000E+00 0. -1.
         25    2    1    2    0    0  0.00000000000E+00  0.00000000000E+00  0.37097504339E+03  0.39146774879E+03  0.12499806209E+03 0.  0.
        -13    1    3    3    0    0  0.52515085101E+02  0.30831508369E+02  0.14145253783E+03  0.15400405093E+03  0.10570000000E+00 0. -1.
         13    1    3    3    0    0 -0.52515085101E+02 -0.30831508369E+02  0.22952250555E+03  0.23746369786E+03  0.10570000000E+00 0. -1.
<mgrwt>
<rscale>  0 0.12499806E+03</rscale>
<asrwt>0</asrwt>
<pdfrwt beam="1">  1       21 0.58649435E-01 0.12499806E+03</pdfrwt>
<pdfrwt beam="2">  1       21 0.15763622E-02 0.12499806E+03</pdfrwt>
<totfact> 0.48614843E+06</totfact>
</mgrwt>
</event>
<event>
 5    1  0.7934596E-005  0.1249991E+03  0.7818608E-02  0.1235071E+00
         21   -1    0    0  502  501  0.00000000000E+00  0.00000000000E+00  0.16779583370E+03  0.16779583370E+03  0.00000000000E+00 0. -1.
         21   -1    0    0  501  502 -0.00000000000E+00 -0.00000000000E+00 -0.23279439011E+02  0.23279439011E+02  0.00000000000E+00 0. -1.
         25    2    1    2    0    0  0.00000000000E+00  0.00000000000E+00  0.14451639469E+03  0.19107527271E+03  0.12499908603E+03 0.  0.
        -13    1    3    3    0    0 -0.18555299811E+02  0.52783302000E+02  0.29681291120E+02  0.63335348236E+02  0.10570000000E+00 0. -1.
         13    1    3    3    0    0  0.18555299811E+02 -0.52783302000E+02  0.11483510357E+03  0.12773992448E+03  0.10570000000E+00 0. -1.
<mgrwt>
<rscale>  0 0.12499909E+03</rscale>
<asrwt>0</asrwt>
<pdfrwt beam="1">  1       21 0.25814743E-01 0.12499909E+03</pdfrwt>
<pdfrwt beam="2">  1       21 0.35814523E-02 0.12499909E+03</pdfrwt>
<totfact> 0.65904683E+06</totfact>
</mgrwt>
</event>
<event>
 5    1  0.7934596E-005  0.1249994E+03  0.7818608E-02  0.1235070E+00
         21   -1    0    0  502  501  0.00000000000E+00  0.00000000000E+00  0.16022587901E+02  0.16022587901E+02  0.00000000000E+00 0.  1.
         21   -1    0    0  501  502 -0.00000000000E+00 -0.00000000000E+00 -0.24379397278E+03  0.24379397278E+03  0.00000000000E+00 0.  1.
         25    2    1    2    0    0  0.00000000000E+00  0.00000000000E+00 -0.22777138488E+03  0.25981656068E+03  0.12499936574E+03 0.  0.
        -13    1    3    3    0    0  0.50986148642E+02  0.12848688327E+01 -0.38799898494E+02  0.64083395172E+02  0.10570000000E+00 0. -1.
         13    1    3    3    0    0 -0.50986148642E+02 -0.12848688327E+01 -0.18897148639E+03  0.19573316551E+03  0.10570000000E+00 0. -1.
<mgrwt>
<rscale>  0 0.12499937E+03</rscale>
<asrwt>0</asrwt>
<pdfrwt beam="1">  1       21 0.24650137E-02 0.12499937E+03</pdfrwt>
<pdfrwt beam="2">  1       21 0.37506762E-01 0.12499937E+03</pdfrwt>
<totfact> 0.58967032E+06</totfact>
</mgrwt>
</event>
<event>
 5    1  0.7934596E-005  0.1249976E+03  0.7818608E-02  0.1235073E+00
         21   -1    0    0  502  501  0.00000000000E+00  0.00000000000E+00  0.32770761811E+02  0.32770761811E+02  0.00000000000E+00 0. -1.
         21   -1    0    0  501  502 -0.00000000000E+00 -0.00000000000E+00 -0.11919468651E+03  0.11919468651E+03  0.00000000000E+00 0. -1.
         25    2    1    2    0    0  0.00000000000E+00  0.00000000000E+00 -0.86423924701E+02  0.15196544832E+03  0.12499761087E+03 0.  0.
        -13    1    3    3    0    0  0.21244522075E+02 -0.39176575617E+02 -0.96482704708E+02  0.10627820696E+03  0.10570000000E+00 0. -1.
         13    1    3    3    0    0 -0.21244522075E+02  0.39176575617E+02  0.10058780007E+02  0.45687241359E+02  0.10570000000E+00 0. -1.
<mgrwt>
<rscale>  0 0.12499761E+03</rscale>
<asrwt>0</asrwt>
<pdfrwt beam="1">  1       21 0.50416557E-02 0.12499761E+03</pdfrwt>
<pdfrwt beam="2">  1       21 0.18337644E-01 0.12499761E+03</pdfrwt>
<totfact> 0.70517457E+06</totfact>
</mgrwt>
</event>
<event>
 5    1  0.7934596E-005  0.1249920E+03  0.7818608E-02  0.1235082E+00
         21   -1    0    0  502  501  0.00000000000E+00  0.00000000000E+00  0.99621146514E+02  0.99621146514E+02  0.00000000000E+00 0. -1.
         21   -1    0    0  501  502 -0.00000000000E+00 -0.00000000000E+00 -0.39206016282E+02  0.39206016282E+02  0.00000000000E+00 0. -1.
         25    2    1    2    0    0  0.00000000000E+00  0.00000000000E+00  0.60415130232E+02  0.13882716280E+03  0.12499197242E+03 0.  0.
        -13    1    3    3    0    0 -0.46532987505E+02 -0.15373930824E+02  0.73282533919E+02  0.88159047325E+02  0.10570000000E+00 0.  1.
         13    1    3    3    0    0  0.46532987505E+02  0.15373930824E+02 -0.12867403688E+02  0.50668115470E+02  0.10570000000E+00 0.  1.
<mgrwt>
<rscale>  0 0.12499197E+03</rscale>
<asrwt>0</asrwt>
<pdfrwt beam="1">  1       21 0.15326330E-01 0.12499197E+03</pdfrwt>
<pdfrwt beam="2">  1       21 0.60316948E-02 0.12499197E+03</pdfrwt>
<totfact> 0.72207560E+06</totfact>
</mgrwt>
</event>
<event>
 5    1  0.7934596E-005  0.1250002E+03  0.7818608E-02  0.1235069E+00
         21   -1    0    0  502  501  0.00000000000E+00  0.00000000000E+00  0.34716636523E+03  0.34716636523E+03  0.00000000000E+00 0.  1.
         21   -1    0    0  501  502 -0.00000000000E+00 -0.00000000000E+00 -0.11251850249E+02  0.11251850249E+02  0.00000000000E+00 0.  1.
         25    2    1    2    0    0  0.00000000000E+00  0.00000000000E+00  0.33591451498E+03  0.35841821548E+03  0.12500022325E+03 0.  0.
        -13    1    3    3    0    0  0.47179731395E+02 -0.29361330410E+02  0.85937381622E+02  0.10233894425E+03  0.10570000000E+00 0. -1.
         13    1    3    3    0    0 -0.47179731395E+02  0.29361330410E+02  0.24997713335E+03  0.25607927122E+03  0.10570000000E+00 0. -1.
<mgrwt>
<rscale>  0 0.12500022E+03</rscale>
<asrwt>0</asrwt>
<pdfrwt beam="1">  1       21 0.53410202E-01 0.12500022E+03</pdfrwt>
<pdfrwt beam="2">  1       21 0.17310541E-02 0.12500022E+03</pdfrwt>
<totfact> 0.50922388E+06</totfact>
</mgrwt>
</event>
<event>
 5    1  0.7934596E-005  0.1250004E+03  0.7818608E-02  0.1235069E+00
         21   -1    0    0  502  501  0.00000000000E+00  0.00000000000E+00  0.12343263703E+03  0.12343263703E+03  0.00000000000E+00 0.  1.
         21   -1    0    0  501  502 -0.00000000000E+00 -0.00000000000E+00 -0.31646997362E+02  0.31646997362E+02  0.00000000000E+00 0.  1.
         25    2    1    2    0    0  0.00000000000E+00  0.00000000000E+00  0.91785639669E+02  0.15507963439E+03  0.12500035741E+03 0.  0.
        -13    1    3    3    0    0 -0.21145982112E+02 -0.58574442228E+02  0.52474415679E+02  0.81435209309E+02  0.10570000000E+00 0.  1.
         13    1    3    3    0    0  0.21145982112E+02  0.58574442228E+02  0.39311223990E+02  0.73644425083E+02  0.10570000000E+00 0.  1.
<mgrwt>
<rscale>  0 0.12500036E+03</rscale>
<asrwt>0</asrwt>
<pdfrwt beam="1">  1       21 0.18989636E-01 0.12500036E+03</pdfrwt>
<pdfrwt beam="2">  1       21 0.48687689E-02 0.12500036E+03</pdfrwt>
<totfact> 0.70125125E+06</totfact>
</mgrwt>
</event>
<event>
 5    1  0.7934596E-005  0.1249985E+03  0.7818608E-02  0.1235072E+00
         21   -1    0    0  502  501  0.00000000000E+00  0.00000000000E+00  0.10023235642E+03  0.10023235642E+03  0.00000000000E+00 0. -1.
         21   -1    0    0  501  502 -0.00000000000E+00 -0.00000000000E+00 -0.38971034641E+02  0.38971034641E+02  0.00000000000E+00 0. -1.
         25    2    1    2    0    0  0.00000000000E+00  0.00000000000E+00  0.61261321781E+02  0.13920339106E+03  0.12499853814E+03 0.  0.
        -13    1    3    3    0    0 -0.29203177917E+01 -0.38596182901E+02 -0.24016670977E+02  0.45552225498E+02  0.10570000000E+00 0. -1.
         13    1    3    3    0    0  0.29203177917E+01  0.38596182901E+02  0.85277992758E+02  0.93651165566E+02  0.10570000000E+00 0. -1.
<mgrwt>
<rscale>  0 0.12499854E+03</rscale>
<asrwt>0</asrwt>
<pdfrwt beam="1">  1       21 0.15420362E-01 0.12499854E+03</pdfrwt>
<pdfrwt beam="2">  1       21 0.59955438E-02 0.12499854E+03</pdfrwt>
<totfact> 0.72146162E+06</totfact>
</mgrwt>
</event>
<event>
 5    1  0.7934596E-005  0.1250006E+03  0.7818608E-02  0.1235068E+00
         21   -1    0    0  502  501  0.00000000000E+00  0.00000000000E+00  0.50615021654E+02  0.50615021654E+02  0.00000000000E+00 0.  1.
         21   -1    0    0  501  502 -0.00000000000E+00 -0.00000000000E+00 -0.77176422632E+02  0.77176422632E+02  0.00000000000E+00 0.  1.
         25    2    1    2    0    0  0.00000000000E+00  0.00000000000E+00 -0.26561400979E+02  0.12779144429E+03  0.12500058084E+03 0.  0.
        -13    1    3    3    0    0  0.68131704926E+01 -0.13764745749E+02  0.48655664420E+02  0.51022273277E+02  0.10570000000E+00 0.  1.
         13    1    3    3    0    0 -0.68131704926E+01  0.13764745749E+02 -0.75217065399E+02  0.76769171009E+02  0.10570000000E+00 0.  1.
<mgrwt>
<rscale>  0 0.12500058E+03</rscale>
<asrwt>0</asrwt>
<pdfrwt beam="1">  1       21 0.77869265E-02 0.12500058E+03</pdfrwt>
<pdfrwt beam="2">  1       21 0.11873296E-01 0.12500058E+03</pdfrwt>
<totfact> 0.73660659E+06</totfact>
</mgrwt>
</event>
<event>
 5    1  0.7934596E-005  0.1250065E+03  0.7818608E-02  0.1235059E+00
         21   -1    0    0  502  501  0.00000000000E+00  0.00000000000E+00  0.26338341477E+03  0.26338341477E+03  0.00000000000E+00 0.  1.
         21   -1    0    0  501  502 -0.00000000000E+00 -0.00000000000E+00 -0.14832571827E+02  0.14832571827E+02  0.00000000000E+00 0.  1.
         25    2    1    2    0    0  0.00000000000E+00  0.00000000000E+00  0.24855084294E+03  0.27821598659E+03  0.12500645451E+03 0.  0.
        -13    1    3    3    0    0 -0.84102932788E+01  0.51556881517E+02  0.20065634388E+03  0.20734469990E+03  0.10570000000E+00 0. -1.
         13    1    3    3    0    0  0.84102932788E+01 -0.51556881517E+02  0.47894499055E+02  0.70871286690E+02  0.10570000000E+00 0. -1.
<mgrwt>
<rscale>  0 0.12500645E+03</rscale>
<asrwt>0</asrwt>
<pdfrwt beam="1">  1       21 0.40520522E-01 0.12500645E+03</pdfrwt>
<pdfrwt beam="2">  1       21 0.22819343E-02 0.12500645E+03</pdfrwt>
<totfact> 0.57307228E+06</totfact>
</mgrwt>
</event>
<event>
 5    1  0.7934596E-005  0.1249935E+03  0.7818608E-02  0.1235079E+00
         21   -1    0    0  502  501  0.00000000000E+00  0.00000000000E+00  0.11007535237E+03  0.11007535237E+03  0.00000000000E+00 0.  1.
         21   -1    0    0  501  502 -0.00000000000E+00 -0.00000000000E+00 -0.35483353173E+02  0.35483353173E+02  0.00000000000E+00 0.  1.
         25    2    1    2    0    0  0.00000000000E+00  0.00000000000E+00  0.74591999201E+02  0.14555870555E+03  0.12499348149E+03 0.  0.
        -13    1    3    3    0    0  0.24345708222E+02  0.57375617621E+02  0.42652386804E+02  0.75524249607E+02  0.10570000000E+00 0.  1.
         13    1    3    3    0    0 -0.24345708222E+02 -0.57375617621E+02  0.31939612398E+02  0.70034455940E+02  0.10570000000E+00 0.  1.
<mgrwt>
<rscale>  0 0.12499348E+03</rscale>
<asrwt>0</asrwt>
<pdfrwt beam="1">  1       21 0.16934669E-01 0.12499348E+03</pdfrwt>
<pdfrwt beam="2">  1       21 0.54589775E-02 0.12499348E+03</pdfrwt>
<totfact> 0.71333515E+06</totfact>
</mgrwt>
</event>
<event>
 5    1  0.7934596E-005  0.1249996E+03  0.7818608E-02  0.1235070E+00
         21   -1    0    0  502  501  0.00000000000E+00  0.00000000000E+00  0.35945661110E+03  0.35945661110E+03  0.00000000000E+00 0. -1.
         21   -1    0    0  501  502 -0.00000000000E+00 -0.00000000000E+00 -0.10867028227E+02  0.10867028227E+02  0.00000000000E+00 0. -1.
         25    2    1    2    0    0  0.00000000000E+00  0.00000000000E+00  0.34858958287E+03  0.37032363933E+03  0.12499960223E+03 0.  0.
        -13    1    3    3    0    0 -0.29437644992E+02  0.43068426328E+02  0.27626800467E+03  0.28115029053E+03  0.10570000000E+00 0. -1.
         13    1    3    3    0    0  0.29437644992E+02 -0.43068426328E+02  0.72321578204E+02  0.89173348796E+02  0.10570000000E+00 0. -1.
<mgrwt>
<rscale>  0 0.12499960E+03</rscale>
<asrwt>0</asrwt>
<pdfrwt beam="1">  1       21 0.55301008E-01 0.12499960E+03</pdfrwt>
<pdfrwt beam="2">  1       21 0.16718508E-02 0.12499960E+03</pdfrwt>
<totfact> 0.50072115E+06</totfact>
</mgrwt>
</event>
<event>
 5    1  0.7934596E-005  0.1250020E+03  0.7818608E-02  0.1235066E+00
         21   -1    0    0  502  501  0.00000000000E+00  0.00000000000E+00  0.18639463492E+02  0.18639463492E+02  0.00000000000E+00 0. -1.
         21   -1    0    0  501  502 -0.00000000000E+00 -0.00000000000E+00 -0.20957558934E+03  0.20957558934E+03  0.00000000000E+00 0. -1.
         25    2    1    2    0    0  0.00000000000E+00  0.00000000000E+00 -0.19093612585E+03  0.22821505284E+03  0.12500202473E+03 0.  0.
        -13    1    3    3    0    0 -0.48187526534E+02 -0.11037518551E+02 -0.25648793219E+02  0.55693233838E+02  0.10570000000E+00 0.  1.
         13    1    3    3    0    0  0.48187526534E+02  0.11037518551E+02 -0.16528733263E+03  0.17252181900E+03  0.10570000000E+00 0.  1.
<mgrwt>
<rscale>  0 0.12500202E+03</rscale>
<asrwt>0</asrwt>
<pdfrwt beam="1">  1       21 0.28676097E-02 0.12500202E+03</pdfrwt>
<pdfrwt beam="2">  1       21 0.32242399E-01 0.12500202E+03</pdfrwt>
<totfact> 0.61988893E+06</totfact>
</mgrwt>
</event>
<event>
 4    1  0.7934596E-005  0.1248466E+03  0.7818608E-02  0.1235309E+00
         21   -1    0    0  502  501  0.00000000000E+00  0.00000000000E+00  0.36782727446E+02  0.36782727446E+02  0.00000000000E+00 0. -1.
         21   -1    0    0  501  502 -0.00000000000E+00 -0.00000000000E+00 -0.10593751874E+03  0.10593751874E+03  0.00000000000E+00 0. -1.
        -13    1    1    2    0    0 -0.24309347149E+02 -0.52500194765E+02 -0.77813444153E+01  0.58376153544E+02  0.10570000000E+00 0. -1.
         13    1    1    2    0    0  0.24309347149E+02  0.52500194765E+02 -0.61373446875E+02  0.84344092638E+02  0.10570000000E+00 0. -1.
<mgrwt>
<rscale>  0 0.12484664E+03</rscale>
<asrwt>0</asrwt>
<pdfrwt beam="1">  1       21 0.56588813E-02 0.12484664E+03</pdfrwt>
<pdfrwt beam="2">  1       21 0.16298079E-01 0.12484664E+03</pdfrwt>
<totfact> 0.71966879E+06</totfact>
</mgrwt>
</event>
<event>
 5    1  0.7934596E-005  0.1249998E+03  0.7818608E-02  0.1235070E+00
         21   -1    0    0  502  501  0.00000000000E+00  0.00000000000E+00  0.25425106140E+03  0.25425106140E+03  0.00000000000E+00 0.  1.
         21   -1    0    0  501  502 -0.00000000000E+00 -0.00000000000E+00 -0.15363693726E+02  0.15363693726E+02  0.00000000000E+00 0.  1.
         25    2    1    2    0    0  0.00000000000E+00  0.00000000000E+00  0.23888736768E+03  0.26961475513E+03  0.12499976699E+03 0.  0.
        -13    1    3    3    0    0 -0.16896655262E+02  0.60141526008E+02  0.12360612692E+03  0.13849543637E+03  0.10570000000E+00 0.  1.
         13    1    3    3    0    0  0.16896655262E+02 -0.60141526008E+02  0.11528124076E+03  0.13111931876E+03  0.10570000000E+00 0.  1.
<mgrwt>
<rscale>  0 0.12499977E+03</rscale>
<asrwt>0</asrwt>
<pdfrwt beam="1">  1       21 0.39115545E-01 0.12499977E+03</pdfrwt>
<pdfrwt beam="2">  1       21 0.23636454E-02 0.12499977E+03</pdfrwt>
<totfact> 0.58079420E+06</totfact>
</mgrwt>
</event>
<event>
 5    1  0.7934596E-005  0.1249957E+03  0.7818608E-02  0.1235076E+00
         21   -1    0    0  502  501  0.00000000000E+00  0.00000000000E+00  0.95786662775E+02  0.95786662775E+02  0.00000000000E+00 0.  1.
         21   -1    0    0  501  502 -0.00000000000E+00 -0.00000000000E+00 -0.40777903582E+02  0.40777903582E+02  0.00000000000E+00 0.  1.
         25    2    1    2    0    0  0.00000000000E+00  0.00000000000E+00  0.55008759193E+02  0.13656456636E+03  0.12499566871E+03 0.  0.
        -13    1    3    3    0    0 -0.54846023482E+02  0.59489198963E+01  0.59590754271E+02  0.81206804560E+02  0.10570000000E+00 0.  1.
         13    1    3    3    0    0  0.54846023482E+02 -0.59489198963E+01 -0.45819950778E+01  0.55357761797E+02  0.10570000000E+00 0.  1.
<mgrwt>
<rscale>  0 0.12499567E+03</rscale>
<asrwt>0</asrwt>
<pdfrwt beam="1">  1       21 0.14736410E-01 0.12499567E+03</pdfrwt>
<pdfrwt beam="2">  1       21 0.62735237E-02 0.12499567E+03</pdfrwt>
<totfact> 0.72497977E+06</totfact>
</mgrwt>
</event>
<event>
 5    1  0.7934596E-005  0.1250003E+03  0.7818608E-02  0.1235069E+00
         21   -1    0    0  502  501  0.00000000000E+00  0.00000000000E+00  0.27372377341E+02  0.27372377341E+02  0.00000000000E+00 0.  1.
         21   -1    0    0  501  502 -0.00000000000E+00 -0.00000000000E+00 -0.14270849694E+03  0.14270849694E+03  0.00000000000E+00 0.  1.
         25    2    1    2    0    0  0.00000000000E+00  0.00000000000E+00 -0.11533611960E+03  0.17008087428E+03  0.12500033325E+03 0.  0.
        -13    1    3    3    0    0 -0.13061809786E+02 -0.61068976601E+02 -0.54272204256E+02  0.82737622067E+02  0.10570000000E+00 0. -1.
         13    1    3    3    0    0  0.13061809786E+02  0.61068976601E+02 -0.61063915345E+02  0.87343252216E+02  0.10570000000E+00 0. -1.
<mgrwt>
<rscale>  0 0.12500033E+03</rscale>
<asrwt>0</asrwt>
<pdfrwt beam="1">  1       21 0.42111349E-02 0.12500033E+03</pdfrwt>
<pdfrwt beam="2">  1       21 0.21955154E-01 0.12500033E+03</pdfrwt>
<totfact> 0.68307471E+06</totfact>
</mgrwt>
</event>
<event>
 5    1  0.7934596E-005  0.1249979E+03  0.7818608E-02  0.1235073E+00
         21   -1    0    0  502  501  0.00000000000E+00  0.00000000000E+00  0.19443972183E+03  0.19443972183E+03  0.00000000000E+00 0.  1.
         21   -1    0    0  501  502 -0.00000000000E+00 -0.00000000000E+00 -0.20089102674E+02  0.20089102674E+02  0.00000000000E+00 0.  1.
         25    2    1    2    0    0  0.00000000000E+00  0.00000000000E+00  0.17435061915E+03  0.21452882450E+03  0.12499791255E+03 0.  0.
        -13    1    3    3    0    0 -0.38386291740E+02 -0.49203230738E+02  0.81319103419E+02  0.10250499042E+03  0.10570000000E+00 0.  1.
         13    1    3    3    0    0  0.38386291740E+02  0.49203230738E+02  0.93031515733E+02  0.11202383407E+03  0.10570000000E+00 0.  1.
<mgrwt>
<rscale>  0 0.12499791E+03</rscale>
<asrwt>0</asrwt>
<pdfrwt beam="1">  1       21 0.29913802E-01 0.12499791E+03</pdfrwt>
<pdfrwt beam="2">  1       21 0.30906313E-02 0.12499791E+03</pdfrwt>
<totfact> 0.63389526E+06</totfact>
</mgrwt>
</event>
<event>
 5    1  0.7934596E-005  0.1250009E+03  0.7818608E-02  0.1235068E+00
         21   -1    0    0  502  501  0.00000000000E+00  0.00000000000E+00  0.70617264380E+02  0.70617264380E+02  0.00000000000E+00 0. -1.
         21   -1    0    0  501  502 -0.00000000000E+00 -0.00000000000E+00 -0.55316577155E+02  0.55316577155E+02  0.00000000000E+00 0. -1.
         25    2    1    2    0    0  0.00000000000E+00  0.00000000000E+00  0.15300687225E+02  0.12593384154E+03  0.12500088565E+03 0.  0.
        -13    1    3    3    0    0  0.77304661957E+01 -0.30685061707E+02 -0.46649617566E+02  0.56369593853E+02  0.10570000000E+00 0.  1.
         13    1    3    3    0    0 -0.77304661957E+01  0.30685061707E+02  0.61950304790E+02  0.69564247683E+02  0.10570000000E+00 0.  1.
<mgrwt>
<rscale>  0 0.12500089E+03</rscale>
<asrwt>0</asrwt>
<pdfrwt beam="1">  1       21 0.10864195E-01 0.12500089E+03</pdfrwt>
<pdfrwt beam="2">  1       21 0.85102427E-02 0.12500089E+03</pdfrwt>
<totfact> 0.73913496E+06</totfact>
</mgrwt>
</event>
<event>
 5    1  0.7934596E-005  0.1250140E+03  0.7818608E-02  0.1235047E+00
         21   -1    0    0  502  501  0.00000000000E+00  0.00000000000E+00  0.15272850067E+03  0.15272850067E+03  0.00000000000E+00 0. -1.
         21   -1    0    0  501  502 -0.00000000000E+00 -0.00000000000E+00 -0.25582168011E+02  0.25582168011E+02  0.00000000000E+00 0. -1.
         25    2    1    2    0    0  0.00000000000E+00  0.00000000000E+00  0.12714633266E+03  0.17831066868E+03  0.12501401784E+03 0.  0.
        -13    1    3    3    0    0  0.21518327471E+02  0.45449133467E+02  0.10617239684E+02  0.51394543495E+02  0.10570000000E+00 0. -1.
         13    1    3    3    0    0 -0.21518327471E+02 -0.45449133467E+02  0.11652909297E+03  0.12691612518E+03  0.10570000000E+00 0. -1.
<mgrwt>
<rscale>  0 0.12501402E+03</rscale>
<asrwt>0</asrwt>
<pdfrwt beam="1">  1       21 0.23496692E-01 0.12501402E+03</pdfrwt>
<pdfrwt beam="2">  1       21 0.39357182E-02 0.12501402E+03</pdfrwt>
<totfact> 0.67321919E+06</totfact>
</mgrwt>
</event>
<event>
 5    1  0.7934596E-005  0.1249978E+03  0.7818608E-02  0.1235073E+00
         21   -1    0    0  502  501  0.00000000000E+00  0.00000000000E+00  0.16946202836E+03  0.16946202836E+03  0.00000000000E+00 0. -1.
         21   -1    0    0  501  502 -0.00000000000E+00 -0.00000000000E+00 -0.23050068311E+02  0.23050068311E+02  0.00000000000E+00 0. -1.
         25    2    1    2    0    0  0.00000000000E+00  0.00000000000E+00  0.14641196004E+03  0.19251209667E+03  0.12499778126E+03 0.  0.
        -13    1    3    3    0    0 -0.49091131164E+02  0.37685513650E+02  0.59782752758E+02  0.86047230041E+02  0.10570000000E+00 0. -1.
         13    1    3    3    0    0  0.49091131164E+02 -0.37685513650E+02  0.86629207287E+02  0.10646486663E+03  0.10570000000E+00 0. -1.
<mgrwt>
<rscale>  0 0.12499778E+03</rscale>
<asrwt>0</asrwt>
<pdfrwt beam="1">  1       21 0.26071081E-01 0.12499778E+03</pdfrwt>
<pdfrwt beam="2">  1       21 0.35461645E-02 0.12499778E+03</pdfrwt>
<totfact> 0.65748047E+06</totfact>
</mgrwt>
</event>
<event>
 5    1  0.7934596E-005  0.1250003E+03  0.7818608E-02  0.1235069E+00
         21   -1    0    0  502  501  0.00000000000E+00  0.00000000000E+00  0.70767254906E+02  0.70767254906E+02  0.00000000000E+00 0.  1.
         21   -1    0    0  501  502 -0.00000000000E+00 -0.00000000000E+00 -0.55198855927E+02  0.55198855927E+02  0.00000000000E+00 0.  1.
         25    2    1    2    0    0  0.00000000000E+00  0.00000000000E+00  0.15568398979E+02  0.12596611083E+03  0.12500034413E+03 0.  0.
        -13    1    3    3    0    0 -0.12274933048E+02  0.47152177662E+02  0.47230704573E+02  0.67858326435E+02  0.10570000000E+00 0.  1.
         13    1    3    3    0    0  0.12274933048E+02 -0.47152177662E+02 -0.31662305595E+02  0.58107784398E+02  0.10570000000E+00 0.  1.
<mgrwt>
<rscale>  0 0.12500034E+03</rscale>
<asrwt>0</asrwt>
<pdfrwt beam="1">  1       21 0.10887270E-01 0.12500034E+03</pdfrwt>
<pdfrwt beam="2">  1       21 0.84921317E-02 0.12500034E+03</pdfrwt>
<totfact> 0.73910064E+06</totfact>
</mgrwt>
</event>
<event>
 5    1  0.7934596E-005  0.1250008E+03  0.7818608E-02  0.1235068E+00
         21   -1    0    0  502  501  0.00000000000E+00  0.00000000000E+00  0.31482591552E+03  0.31482591552E+03  0.00000000000E+00 0.  1.
         21   -1    0    0  501  502 -0.00000000000E+00 -0.00000000000E+00 -0.12407807060E+02  0.12407807060E+02  0.00000000000E+00 0.  1.
         25    2    1    2    0    0  0.00000000000E+00  0.00000000000E+00  0.30241810846E+03  0.32723372258E+03  0.12500078747E+03 0.  0.
        -13    1    3    3    0    0  0.17548887862E+02 -0.49607546998E+02  0.23949771798E+03  0.24521019611E+03  0.10570000000E+00 0. -1.
         13    1    3    3    0    0 -0.17548887862E+02  0.49607546998E+02  0.62920390470E+02  0.82023526465E+02  0.10570000000E+00 0. -1.
<mgrwt>
<rscale>  0 0.12500079E+03</rscale>
<asrwt>0</asrwt>
<pdfrwt beam="1">  1       21 0.48434750E-01 0.12500079E+03</pdfrwt>
<pdfrwt beam="2">  1       21 0.19088936E-02 0.12500079E+03</pdfrwt>
<totfact> 0.53263991E+06</totfact>
</mgrwt>
</event>
<event>
 5    1  0.7934596E-005  0.1250003E+03  0.7818608E-02  0.1235069E+00
         21   -1    0    0  502  501  0.00000000000E+00  0.00000000000E+00  0.65222686621E+02  0.65222686621E+02  0.00000000000E+00 0. -1.
         21   -1    0    0  501  502 -0.00000000000E+00 -0.00000000000E+00 -0.59891211841E+02  0.59891211841E+02  0.00000000000E+00 0. -1.
         25    2    1    2    0    0  0.00000000000E+00  0.00000000000E+00  0.53314747793E+01  0.12511389846E+03  0.12500025186E+03 0.  0.
        -13    1    3    3    0    0  0.36528581338E+02 -0.15216343197E+02 -0.45755722316E+02  0.60493567030E+02  0.10570000000E+00 0.  1.
         13    1    3    3    0    0 -0.36528581338E+02  0.15216343197E+02  0.51087197095E+02  0.64620331432E+02  0.10570000000E+00 0.  1.
<mgrwt>
<rscale>  0 0.12500025E+03</rscale>
<asrwt>0</asrwt>
<pdfrwt beam="1">  1       21 0.10034259E-01 0.12500025E+03</pdfrwt>
<pdfrwt beam="2">  1       21 0.92140326E-02 0.12500025E+03</pdfrwt>
<totfact> 0.74027722E+06</totfact>
</mgrwt>
</event>
<event>
 5    1  0.7934596E-005  0.1250066E+03  0.7818608E-02  0.1235059E+00
         21   -1    0    0  502  501  0.00000000000E+00  0.00000000000E+00  0.73399311136E+02  0.73399311136E+02  0.00000000000E+00 0.  1.
         21   -1    0    0  501  502 -0.00000000000E+00 -0.00000000000E+00 -0.53224770753E+02  0.53224770753E+02  0.00000000000E+00 0.  1.
         25    2    1    2    0    0  0.00000000000E+00  0.00000000000E+00  0.20174540383E+02  0.12662408189E+03  0.12500658397E+03 0.  0.
        -13    1    3    3    0    0 -0.45258552124E+02 -0.10162669897E+02  0.52522463152E+02  0.70073081193E+02  0.10570000000E+00 0. -1.
         13    1    3    3    0    0  0.45258552124E+02  0.10162669897E+02 -0.32347922770E+02  0.56551000696E+02  0.10570000000E+00 0. -1.
<mgrwt>
<rscale>  0 0.12500658E+03</rscale>
<asrwt>0</asrwt>
<pdfrwt beam="1">  1       21 0.11292202E-01 0.12500658E+03</pdfrwt>
<pdfrwt beam="2">  1       21 0.81884263E-02 0.12500658E+03</pdfrwt>
<totfact> 0.73808001E+06</totfact>
</mgrwt>
</event>
<event>
 5    1  0.7934596E-005  0.1250018E+03  0.7818608E-02  0.1235067E+00
         21   -1    0    0  502  501  0.00000000000E+00  0.00000000000E+00  0.52387708224E+02  0.52387708224E+02  0.00000000000E+00 0.  1.
         21   -1    0    0  501  502 -0.00000000000E+00 -0.00000000000E+00 -0.74566346619E+02  0.74566346619E+02  0.00000000000E+00 0.  1.
         25    2    1    2    0    0  0.00000000000E+00  0.00000000000E+00 -0.22178638395E+02  0.12695405484E+03  0.12500176015E+03 0.  0.
        -13    1    3    3    0    0 -0.21712162124E+02 -0.18931984113E+01 -0.70581891316E+02  0.73870269653E+02  0.10570000000E+00 0.  1.
         13    1    3    3    0    0  0.21712162124E+02  0.18931984113E+01  0.48403252921E+02  0.53083785190E+02  0.10570000000E+00 0.  1.
<mgrwt>
<rscale>  0 0.12500176E+03</rscale>
<asrwt>0</asrwt>
<pdfrwt beam="1">  1       21 0.80596474E-02 0.12500176E+03</pdfrwt>
<pdfrwt beam="2">  1       21 0.11471746E-01 0.12500176E+03</pdfrwt>
<totfact> 0.73772077E+06</totfact>
</mgrwt>
</event>
<event>
 5    1  0.7934596E-005  0.1250000E+03  0.7818608E-02  0.1235069E+00
         21   -1    0    0  502  501  0.00000000000E+00  0.00000000000E+00  0.45020294343E+02  0.45020294343E+02  0.00000000000E+00 0. -1.
         21   -1    0    0  501  502 -0.00000000000E+00 -0.00000000000E+00 -0.86766389415E+02  0.86766389415E+02  0.00000000000E+00 0. -1.
         25    2    1    2    0    0  0.00000000000E+00  0.00000000000E+00 -0.41746095073E+02  0.13178668376E+03  0.12499997425E+03 0.  0.
        -13    1    3    3    0    0 -0.13711968874E-01  0.52992815032E+02  0.14062093135E+02  0.54826930143E+02  0.10570000000E+00 0. -1.
         13    1    3    3    0    0  0.13711968874E-01 -0.52992815032E+02 -0.55808188208E+02  0.76959753616E+02  0.10570000000E+00 0. -1.
<mgrwt>
<rscale>  0 0.12499997E+03</rscale>
<asrwt>0</asrwt>
<pdfrwt beam="1">  1       21 0.69261993E-02 0.12499997E+03</pdfrwt>
<pdfrwt beam="2">  1       21 0.13348675E-01 0.12499997E+03</pdfrwt>
<totfact> 0.73124903E+06</totfact>
</mgrwt>
</event>
<event>
 5    1  0.7934596E-005  0.1250007E+03  0.7818608E-02  0.1235068E+00
         21   -1    0    0  502  501  0.00000000000E+00  0.00000000000E+00  0.41350217606E+02  0.41350217606E+02  0.00000000000E+00 0. -1.
         21   -1    0    0  501  502 -0.00000000000E+00 -0.00000000000E+00 -0.94468519430E+02  0.94468519430E+02  0.00000000000E+00 0. -1.
         25    2    1    2    0    0  0.00000000000E+00  0.00000000000E+00 -0.53118301824E+02  0.13581873704E+03  0.12500070136E+03 0.  0.
        -13    1    3    3    0    0 -0.45022901155E+02  0.39430473340E+02 -0.46130782008E+02  0.75563774901E+02  0.10570000000E+00 0. -1.
         13    1    3    3    0    0  0.45022901155E+02 -0.39430473340E+02 -0.69875198159E+01  0.60254962135E+02  0.10570000000E+00 0. -1.
<mgrwt>
<rscale>  0 0.12500070E+03</rscale>
<asrwt>0</asrwt>
<pdfrwt beam="1">  1       21 0.63615720E-02 0.12500070E+03</pdfrwt>
<pdfrwt beam="2">  1       21 0.14533618E-01 0.12500070E+03</pdfrwt>
<totfact> 0.72586949E+06</totfact>
</mgrwt>
</event>
<event>
 5    1  0.7934596E-005  0.1250003E+03  0.7818608E-02  0.1235069E+00
         21   -1    0    0  502  501  0.00000000000E+00  0.00000000000E+00  0.15214865495E+03  0.15214865495E+03  0.00000000000E+00 0.  1.
         21   -1    0    0  501  502 -0.00000000000E+00 -0.00000000000E+00 -0.25674045828E+02  0.25674045828E+02  0.00000000000E+00 0.  1.
         25    2    1    2    0    0  0.00000000000E+00  0.00000000000E+00  0.12647460912E+03  0.17782270078E+03  0.12500034464E+03 0.  0.
        -13    1    3    3    0    0 -0.23150858847E+02 -0.40596199955E+02  0.12227422105E+03  0.13090076402E+03  0.10570000000E+00 0. -1.
         13    1    3    3    0    0  0.23150858847E+02  0.40596199955E+02  0.42003880708E+01  0.46921936752E+02  0.10570000000E+00 0. -1.
<mgrwt>
<rscale>  0 0.12500034E+03</rscale>
<asrwt>0</asrwt>
<pdfrwt beam="1">  1       21 0.23407485E-01 0.12500034E+03</pdfrwt>
<pdfrwt beam="2">  1       21 0.39498533E-02 0.12500034E+03</pdfrwt>
<totfact> 0.67401602E+06</totfact>
</mgrwt>
</event>
<event>
 5    1  0.7934596E-005  0.1249801E+03  0.7818608E-02  0.1235100E+00
         21   -1    0    0  502  501  0.00000000000E+00  0.00000000000E+00  0.35384671086E+03  0.35384671086E+03  0.00000000000E+00 0. -1.
         21   -1    0    0  501  502 -0.00000000000E+00 -0.00000000000E+00 -0.11035864496E+02  0.11035864496E+02  0.00000000000E+00 0. -1.
         25    2    1    2    0    0  0.00000000000E+00  0.00000000000E+00  0.34281084636E+03  0.36488257535E+03  0.12498006807E+03 0.  0.
        -13    1    3    3    0    0 -0.60094251726E+02  0.14200751604E+02  0.14340037271E+03  0.15613026133E+03  0.10570000000E+00 0. -1.
         13    1    3    3    0    0  0.60094251726E+02 -0.14200751604E+02  0.19941047365E+03  0.20875231402E+03  0.10570000000E+00 0. -1.
<mgrwt>
<rscale>  0 0.12498007E+03</rscale>
<asrwt>0</asrwt>
<pdfrwt beam="1">  1       21 0.54437947E-01 0.12498007E+03</pdfrwt>
<pdfrwt beam="2">  1       21 0.16978256E-02 0.12498007E+03</pdfrwt>
<totfact> 0.50482933E+06</totfact>
</mgrwt>
</event>
<event>
 5    1  0.7934596E-005  0.1250092E+03  0.7818608E-02  0.1235055E+00
         21   -1    0    0  502  501  0.00000000000E+00  0.00000000000E+00  0.81858954240E+02  0.81858954240E+02  0.00000000000E+00 0.  1.
         21   -1    0    0  501  502 -0.00000000000E+00 -0.00000000000E+00 -0.47726267769E+02  0.47726267769E+02  0.00000000000E+00 0.  1.
         25    2    1    2    0    0  0.00000000000E+00  0.00000000000E+00  0.34132686471E+02  0.12958522201E+03  0.12500915757E+03 0.  0.
        -13    1    3    3    0    0  0.28744096944E+02  0.14896092043E+02  0.72490299575E+02  0.79391255012E+02  0.10570000000E+00 0. -1.
         13    1    3    3    0    0 -0.28744096944E+02 -0.14896092043E+02 -0.38357613104E+02  0.50193966997E+02  0.10570000000E+00 0. -1.
<mgrwt>
<rscale>  0 0.12500916E+03</rscale>
<asrwt>0</asrwt>
<pdfrwt beam="1">  1       21 0.12593685E-01 0.12500916E+03</pdfrwt>
<pdfrwt beam="2">  1       21 0.73425027E-02 0.12500916E+03</pdfrwt>
<totfact> 0.73403239E+06</totfact>
</mgrwt>
</event>
<event>
 5    1  0.7934596E-005  0.1249996E+03  0.7818608E-02  0.1235070E+00
         21   -1    0    0  502  501  0.00000000000E+00  0.00000000000E+00  0.25939768208E+02  0.25939768208E+02  0.00000000000E+00 0. -1.
         21   -1    0    0  501  502 -0.00000000000E+00 -0.00000000000E+00 -0.15058824563E+03  0.15058824563E+03  0.00000000000E+00 0. -1.
         25    2    1    2    0    0  0.00000000000E+00  0.00000000000E+00 -0.12464847742E+03  0.17652801383E+03  0.12499958698E+03 0.  0.
        -13    1    3    3    0    0 -0.41804812235E+02  0.39729873728E+02 -0.96338372634E+02  0.11228178128E+03  0.10570000000E+00 0.  1.
         13    1    3    3    0    0  0.41804812235E+02 -0.39729873728E+02 -0.28310104784E+02  0.64246232557E+02  0.10570000000E+00 0.  1.
<mgrwt>
<rscale>  0 0.12499959E+03</rscale>
<asrwt>0</asrwt>
<pdfrwt beam="1">  1       21 0.39907337E-02 0.12499959E+03</pdfrwt>
<pdfrwt beam="2">  1       21 0.23167422E-01 0.12499959E+03</pdfrwt>
<totfact> 0.67552789E+06</totfact>
</mgrwt>
</event>
<event>
 5    1  0.7934596E-005  0.1250025E+03  0.7818608E-02  0.1235065E+00
         21   -1    0    0  502  501  0.00000000000E+00  0.00000000000E+00  0.25094479594E+03  0.25094479594E+03  0.00000000000E+00 0.  1.
         21   -1    0    0  501  502 -0.00000000000E+00 -0.00000000000E+00 -0.15566783069E+02  0.15566783069E+02  0.00000000000E+00 0.  1.
         25    2    1    2    0    0  0.00000000000E+00  0.00000000000E+00  0.23537801287E+03  0.26651157901E+03  0.12500245119E+03 0.  0.
        -13    1    3    3    0    0  0.47569356270E+02 -0.29811481715E+02  0.59112915840E+02  0.81522488244E+02  0.10570000000E+00 0. -1.
         13    1    3    3    0    0 -0.47569356270E+02  0.29811481715E+02  0.17626509703E+03  0.18498909076E+03  0.10570000000E+00 0. -1.
<mgrwt>
<rscale>  0 0.12500245E+03</rscale>
<asrwt>0</asrwt>
<pdfrwt beam="1">  1       21 0.38606889E-01 0.12500245E+03</pdfrwt>
<pdfrwt beam="2">  1       21 0.23948899E-02 0.12500245E+03</pdfrwt>
<totfact> 0.58353943E+06</totfact>
</mgrwt>
</event>
<event>
 5    1  0.7934596E-005  0.1249990E+03  0.7818608E-02  0.1235071E+00
         21   -1    0    0  502  501  0.00000000000E+00  0.00000000000E+00  0.31050369474E+03  0.31050369474E+03  0.00000000000E+00 0.  1.
         21   -1    0    0  501  502 -0.00000000000E+00 -0.00000000000E+00 -0.12580158179E+02  0.12580158179E+02  0.00000000000E+00 0.  1.
         25    2    1    2    0    0  0.00000000000E+00  0.00000000000E+00  0.29792353656E+03  0.32308385292E+03  0.12499896951E+03 0.  0.
        -13    1    3    3    0    0  0.52580719564E+02  0.11515169235E+02  0.66866020575E+02  0.85839426095E+02  0.10570000000E+00 0.  1.
         13    1    3    3    0    0 -0.52580719564E+02 -0.11515169235E+02  0.23105751599E+03  0.23724442682E+03  0.10570000000E+00 0.  1.
<mgrwt>
<rscale>  0 0.12499897E+03</rscale>
<asrwt>0</asrwt>
<pdfrwt beam="1">  1       21 0.47769793E-01 0.12499897E+03</pdfrwt>
<pdfrwt beam="2">  1       21 0.19354092E-02 0.12499897E+03</pdfrwt>
<totfact> 0.53591252E+06</totfact>
</mgrwt>
</event>
<event>
 5    1  0.7934596E-005  0.1250001E+03  0.7818608E-02  0.1235069E+00
         21   -1    0    0  502  501  0.00000000000E+00  0.00000000000E+00  0.14580747359E+02  0.14580747359E+02  0.00000000000E+00 0. -1.
         21   -1    0    0  501  502 -0.00000000000E+00 -0.00000000000E+00 -0.26790496660E+03  0.26790496660E+03  0.00000000000E+00 0. -1.
         25    2    1    2    0    0  0.00000000000E+00  0.00000000000E+00 -0.25332421924E+03  0.28248571396E+03  0.12500007415E+03 0.  0.
        -13    1    3    3    0    0 -0.39073852202E+01 -0.45765835546E+02 -0.30877553721E+02  0.55346308447E+02  0.10570000000E+00 0. -1.
         13    1    3    3    0    0  0.39073852202E+01  0.45765835546E+02 -0.22244666552E+03  0.22713940551E+03  0.10570000000E+00 0. -1.
<mgrwt>
<rscale>  0 0.12500007E+03</rscale>
<asrwt>0</asrwt>
<pdfrwt beam="1">  1       21 0.22431921E-02 0.12500007E+03</pdfrwt>
<pdfrwt beam="2">  1       21 0.41216146E-01 0.12500007E+03</pdfrwt>
<totfact> 0.56943724E+06</totfact>
</mgrwt>
</event>
<event>
 5    1  0.7934596E-005  0.1250037E+03  0.7818608E-02  0.1235063E+00
         21   -1    0    0  502  501  0.00000000000E+00  0.00000000000E+00  0.60443549669E+03  0.60443549669E+03  0.00000000000E+00 0.  1.
         21   -1    0    0  501  502 -0.00000000000E+00 -0.00000000000E+00 -0.64630291466E+01  0.64630291466E+01  0.00000000000E+00 0.  1.
         25    2    1    2    0    0  0.00000000000E+00  0.00000000000E+00  0.59797246754E+03  0.61089852584E+03  0.12500374766E+03 0.  0.
        -13    1    3    3    0    0 -0.49097298490E+02  0.36165144210E+02  0.23197658994E+03  0.23985748233E+03  0.10570000000E+00 0. -1.
         13    1    3    3    0    0  0.49097298490E+02 -0.36165144210E+02  0.36599587760E+03  0.37104104351E+03  0.10570000000E+00 0. -1.
<mgrwt>
<rscale>  0 0.12500375E+03</rscale>
<asrwt>0</asrwt>
<pdfrwt beam="1">  1       21 0.92990032E-01 0.12500375E+03</pdfrwt>
<pdfrwt beam="2">  1       21 0.99431265E-03 0.12500375E+03</pdfrwt>
<totfact> 0.36600958E+06</totfact>
</mgrwt>
</event>
<event>
 5    1  0.7934596E-005  0.1250012E+03  0.7818608E-02  0.1235067E+00
         21   -1    0    0  502  501  0.00000000000E+00  0.00000000000E+00  0.72290784985E+02  0.72290784985E+02  0.00000000000E+00 0.  1.
         21   -1    0    0  501  502 -0.00000000000E+00 -0.00000000000E+00 -0.54036280834E+02  0.54036280834E+02  0.00000000000E+00 0.  1.
         25    2    1    2    0    0  0.00000000000E+00  0.00000000000E+00  0.18254504151E+02  0.12632706582E+03  0.12500120254E+03 0.  0.
        -13    1    3    3    0    0  0.16117430777E+02 -0.57535351710E+02  0.27658201942E+02  0.65841290831E+02  0.10570000000E+00 0. -1.
         13    1    3    3    0    0 -0.16117430777E+02  0.57535351710E+02 -0.94036977905E+01  0.60485774988E+02  0.10570000000E+00 0. -1.
<mgrwt>
<rscale>  0 0.12500120E+03</rscale>
<asrwt>0</asrwt>
<pdfrwt beam="1">  1       21 0.11121659E-01 0.12500120E+03</pdfrwt>
<pdfrwt beam="2">  1       21 0.83132739E-02 0.12500120E+03</pdfrwt>
<totfact> 0.73858799E+06</totfact>
</mgrwt>
</event>
<event>
 5    1  0.7934596E-005  0.1249994E+03  0.7818608E-02  0.1235070E+00
         21   -1    0    0  502  501  0.00000000000E+00  0.00000000000E+00  0.26281824622E+03  0.26281824622E+03  0.00000000000E+00 0. -1.
         21   -1    0    0  501  502 -0.00000000000E+00 -0.00000000000E+00 -0.14862798734E+02  0.14862798734E+02  0.00000000000E+00 0. -1.
         25    2    1    2    0    0  0.00000000000E+00  0.00000000000E+00  0.24795544748E+03  0.27768104495E+03  0.12499943515E+03 0.  0.
        -13    1    3    3    0    0 -0.55619511491E+02  0.12526010029E+02  0.18086495509E+03  0.18963800816E+03  0.10570000000E+00 0. -1.
         13    1    3    3    0    0  0.55619511491E+02 -0.12526010029E+02  0.67090492395E+02  0.88043036795E+02  0.10570000000E+00 0. -1.
<mgrwt>
<rscale>  0 0.12499944E+03</rscale>
<asrwt>0</asrwt>
<pdfrwt beam="1">  1       21 0.40433573E-01 0.12499944E+03</pdfrwt>
<pdfrwt beam="2">  1       21 0.22865846E-02 0.12499944E+03</pdfrwt>
<totfact> 0.57364330E+06</totfact>
</mgrwt>
</event>
<event>
 5    1  0.7934596E-005  0.1250010E+03  0.7818608E-02  0.1235068E+00
         21   -1    0    0  502  501  0.00000000000E+00  0.00000000000E+00  0.20202557929E+02  0.20202557929E+02  0.00000000000E+00 0.  1.
         21   -1    0    0  501  502 -0.00000000000E+00 -0.00000000000E+00 -0.19335735382E+03  0.19335735382E+03  0.00000000000E+00 0.  1.
         25    2    1    2    0    0  0.00000000000E+00  0.00000000000E+00 -0.17315479589E+03  0.21355991175E+03  0.12500101026E+03 0.  0.
        -13    1    3    3    0    0  0.32169153285E+02 -0.46645970411E+02 -0.13163689144E+03  0.14331428170E+03  0.10570000000E+00 0. -1.
         13    1    3    3    0    0 -0.32169153285E+02  0.46645970411E+02 -0.41517904452E+02  0.70245630051E+02  0.10570000000E+00 0. -1.
<mgrwt>
<rscale>  0 0.12500101E+03</rscale>
<asrwt>0</asrwt>
<pdfrwt beam="1">  1       21 0.31080858E-02 0.12500101E+03</pdfrwt>
<pdfrwt beam="2">  1       21 0.29747286E-01 0.12500101E+03</pdfrwt>
<totfact> 0.63485306E+06</totfact>
</mgrwt>
</event>
<event>
 5    1  0.7934596E-005  0.1250014E+03  0.7818608E-02  0.1235067E+00
         21   -1    0    0  502  501  0.00000000000E+00  0.00000000000E+00  0.61055851351E+02  0.61055851351E+02  0.00000000000E+00 0. -1.
         21   -1    0    0  501  502 -0.00000000000E+00 -0.00000000000E+00 -0.63979694878E+02  0.63979694878E+02  0.00000000000E+00 0. -1.
         25    2    1    2    0    0  0.00000000000E+00  0.00000000000E+00 -0.29238435270E+01  0.12503554623E+03  0.12500135583E+03 0.  0.
        -13    1    3    3    0    0  0.49220652280E+02 -0.38502267313E+02 -0.35420370973E+00  0.62491870127E+02  0.10570000000E+00 0.  1.
         13    1    3    3    0    0 -0.49220652280E+02  0.38502267313E+02 -0.25696398173E+01  0.62543676103E+02  0.10570000000E+00 0.  1.
<mgrwt>
<rscale>  0 0.12500136E+03</rscale>
<asrwt>0</asrwt>
<pdfrwt beam="1">  1       21 0.93932079E-02 0.12500136E+03</pdfrwt>
<pdfrwt beam="2">  1       21 0.98430300E-02 0.12500136E+03</pdfrwt>
<totfact> 0.74036214E+06</totfact>
</mgrwt>
</event>
<event>
 5    1  0.7934596E-005  0.1249997E+03  0.7818608E-02  0.1235070E+00
         21   -1    0    0  502  501  0.00000000000E+00  0.00000000000E+00  0.69281202493E+02  0.69281202493E+02  0.00000000000E+00 0.  1.
         21   -1    0    0  501  502 -0.00000000000E+00 -0.00000000000E+00 -0.56382236545E+02  0.56382236545E+02  0.00000000000E+00 0.  1.
         25    2    1    2    0    0  0.00000000000E+00  0.00000000000E+00  0.12898965949E+02  0.12566343904E+03  0.12499966635E+03 0.  0.
        -13    1    3    3    0    0 -0.37931591086E+02  0.42201559223E+02  0.32788624900E+02  0.65535351517E+02  0.10570000000E+00 0. -1.
         13    1    3    3    0    0  0.37931591086E+02 -0.42201559223E+02 -0.19889658951E+02  0.60128087520E+02  0.10570000000E+00 0. -1.
<mgrwt>
<rscale>  0 0.12499967E+03</rscale>
<asrwt>0</asrwt>
<pdfrwt beam="1">  1       21 0.10658647E-01 0.12499967E+03</pdfrwt>
<pdfrwt beam="2">  1       21 0.86741902E-02 0.12499967E+03</pdfrwt>
<totfact> 0.73953245E+06</totfact>
</mgrwt>
</event>
<event>
 5    1  0.7934596E-005  0.1249988E+03  0.7818608E-02  0.1235071E+00
         21   -1    0    0  502  501  0.00000000000E+00  0.00000000000E+00  0.91163600121E+01  0.91163600121E+01  0.00000000000E+00 0.  1.
         21   -1    0    0  501  502 -0.00000000000E+00 -0.00000000000E+00 -0.42847988662E+03  0.42847988662E+03  0.00000000000E+00 0.  1.
         25    2    1    2    0    0  0.00000000000E+00  0.00000000000E+00 -0.41936352661E+03  0.43759624663E+03  0.12499883046E+03 0.  0.
        -13    1    3    3    0    0  0.32541125312E+02  0.45409571958E+02 -0.30777995717E+03  0.31280899487E+03  0.10570000000E+00 0.  1.
         13    1    3    3    0    0 -0.32541125312E+02 -0.45409571958E+02 -0.11158356944E+03  0.12478725176E+03  0.10570000000E+00 0.  1.
<mgrwt>
<rscale>  0 0.12499883E+03</rscale>
<asrwt>0</asrwt>
<pdfrwt beam="1">  1       21 0.14025170E-02 0.12499883E+03</pdfrwt>
<pdfrwt beam="2">  1       21 0.65919977E-01 0.12499883E+03</pdfrwt>
<totfact> 0.45644999E+06</totfact>
</mgrwt>
</event>
<event>
 5    1  0.7934596E-005  0.1249986E+03  0.7818608E-02  0.1235072E+00
         21   -1    0    0  502  501  0.00000000000E+00  0.00000000000E+00  0.72066871626E+02  0.72066871626E+02  0.00000000000E+00 0. -1.
         21   -1    0    0  501  502 -0.00000000000E+00 -0.00000000000E+00 -0.54201882984E+02  0.54201882984E+02  0.00000000000E+00 0. -1.
         25    2    1    2    0    0  0.00000000000E+00  0.00000000000E+00  0.17864988642E+02  0.12626875461E+03  0.12499856228E+03 0.  0.
        -13    1    3    3    0    0  0.42243900669E+02  0.28671851063E+02  0.45347761154E+02  0.68286549197E+02  0.10570000000E+00 0.  1.
         13    1    3    3    0    0 -0.42243900669E+02 -0.28671851063E+02 -0.27482772513E+02  0.57982205413E+02  0.10570000000E+00 0.  1.
<mgrwt>
<rscale>  0 0.12499856E+03</rscale>
<asrwt>0</asrwt>
<pdfrwt beam="1">  1       21 0.11087211E-01 0.12499856E+03</pdfrwt>
<pdfrwt beam="2">  1       21 0.83387512E-02 0.12499856E+03</pdfrwt>
<totfact> 0.73871777E+06</totfact>
</mgrwt>
</event>
<event>
 5    1  0.7934596E-005  0.1249987E+03  0.7818608E-02  0.1235071E+00
         21   -1    0    0  502  501  0.00000000000E+00  0.00000000000E+00  0.13136193856E+03  0.13136193856E+03  0.00000000000E+00 0. -1.
         21   -1    0    0  501  502 -0.00000000000E+00 -0.00000000000E+00 -0.29735923926E+02  0.29735923926E+02  0.00000000000E+00 0. -1.
         25    2    1    2    0    0  0.00000000000E+00  0.00000000000E+00  0.10162601463E+03  0.16109786248E+03  0.12499869778E+03 0.  0.
        -13    1    3    3    0    0  0.40090117609E+02  0.31764540995E+02  0.45246919627E+01  0.51348686491E+02  0.10570000000E+00 0.  1.
         13    1    3    3    0    0 -0.40090117609E+02 -0.31764540995E+02  0.97101322666E+02  0.10974917599E+03  0.10570000000E+00 0.  1.
<mgrwt>
<rscale>  0 0.12499870E+03</rscale>
<asrwt>0</asrwt>
<pdfrwt beam="1">  1       21 0.20209529E-01 0.12499870E+03</pdfrwt>
<pdfrwt beam="2">  1       21 0.45747576E-02 0.12499870E+03</pdfrwt>
<totfact> 0.69387894E+06</totfact>
</mgrwt>
</event>
<event>
 5    1  0.7934596E-005  0.1250025E+03  0.7818608E-02  0.1235065E+00
         21   -1    0    0  502  501  0.00000000000E+00  0.00000000000E+00  0.13698120307E+02  0.13698120307E+02  0.00000000000E+00 0.  1.
         21   -1    0    0  501  502 -0.00000000000E+00 -0.00000000000E+00 -0.28517842968E+03  0.28517842968E+03  0.00000000000E+00 0.  1.
         25    2    1    2    0    0  0.00000000000E+00  0.00000000000E+00 -0.27148030937E+03  0.29887654998E+03  0.12500253499E+03 0.  0.
        -13    1    3    3    0    0  0.49588898277E+02 -0.23955716579E+02 -0.65076670374E+02  0.85252093162E+02  0.10570000000E+00 0. -1.
         13    1    3    3    0    0 -0.49588898277E+02  0.23955716579E+02 -0.20640363900E+03  0.21362445682E+03  0.10570000000E+00 0. -1.
<mgrwt>
<rscale>  0 0.12500253E+03</rscale>
<asrwt>0</asrwt>
<pdfrwt beam="1">  1       21 0.21074032E-02 0.12500253E+03</pdfrwt>
<pdfrwt beam="2">  1       21 0.43873603E-01 0.12500253E+03</pdfrwt>
<totfact> 0.55546128E+06</totfact>
</mgrwt>
</event>
<event>
 5    1  0.7934596E-005  0.1250107E+03  0.7818608E-02  0.1235053E+00
         21   -1    0    0  502  501  0.00000000000E+00  0.00000000000E+00  0.81979010142E+02  0.81979010142E+02  0.00000000000E+00 0.  1.
         21   -1    0    0  501  502 -0.00000000000E+00 -0.00000000000E+00 -0.47657539526E+02  0.47657539526E+02  0.00000000000E+00 0.  1.
         25    2    1    2    0    0  0.00000000000E+00  0.00000000000E+00  0.34321470616E+02  0.12963654967E+03  0.12501068620E+03 0.  0.
        -13    1    3    3    0    0 -0.26596263342E+02 -0.39058584083E+00 -0.41495490758E+02  0.49288951163E+02  0.10570000000E+00 0.  1.
         13    1    3    3    0    0  0.26596263342E+02  0.39058584083E+00  0.75816961373E+02  0.80347598504E+02  0.10570000000E+00 0.  1.
<mgrwt>
<rscale>  0 0.12501069E+03</rscale>
<asrwt>0</asrwt>
<pdfrwt beam="1">  1       21 0.12612155E-01 0.12501069E+03</pdfrwt>
<pdfrwt beam="2">  1       21 0.73319291E-02 0.12501069E+03</pdfrwt>
<totfact> 0.73393505E+06</totfact>
</mgrwt>
</event>
<event>
 5    1  0.7934596E-005  0.1249997E+03  0.7818608E-02  0.1235070E+00
         21   -1    0    0  502  501  0.00000000000E+00  0.00000000000E+00  0.58608915453E+02  0.58608915453E+02  0.00000000000E+00 0.  1.
         21   -1    0    0  501  502 -0.00000000000E+00 -0.00000000000E+00 -0.66649076568E+02  0.66649076568E+02  0.00000000000E+00 0.  1.
         25    2    1    2    0    0  0.00000000000E+00  0.00000000000E+00 -0.80401611143E+01  0.12525799202E+03  0.12499968150E+03 0.  0.
        -13    1    3    3    0    0 -0.39065971525E+02  0.32535696785E+02  0.32407444586E+02  0.60290756618E+02  0.10570000000E+00 0. -1.
         13    1    3    3    0    0  0.39065971525E+02 -0.32535696785E+02 -0.40447605700E+02  0.64967235403E+02  0.10570000000E+00 0. -1.
<mgrwt>
<rscale>  0 0.12499968E+03</rscale>
<asrwt>0</asrwt>
<pdfrwt beam="1">  1       21 0.90167563E-02 0.12499968E+03</pdfrwt>
<pdfrwt beam="2">  1       21 0.10253704E-01 0.12499968E+03</pdfrwt>
<totfact> 0.74009345E+06</totfact>
</mgrwt>
</event>
<event>
 5    1  0.7934596E-005  0.1250017E+03  0.7818608E-02  0.1235067E+00
         21   -1    0    0  502  501  0.00000000000E+00  0.00000000000E+00  0.90483319392E+02  0.90483319392E+02  0.00000000000E+00 0.  1.
         21   -1    0    0  501  502 -0.00000000000E+00 -0.00000000000E+00 -0.43172112819E+02  0.43172112819E+02  0.00000000000E+00 0.  1.
         25    2    1    2    0    0  0.00000000000E+00  0.00000000000E+00  0.47311206573E+02  0.13365543221E+03  0.12500169716E+03 0.  0.
        -13    1    3    3    0    0  0.20299420732E+02 -0.42495770198E+02 -0.20279011715E+02  0.51275788199E+02  0.10570000000E+00 0.  1.
         13    1    3    3    0    0 -0.20299420732E+02  0.42495770198E+02  0.67590218288E+02  0.82379644012E+02  0.10570000000E+00 0.  1.
<mgrwt>
<rscale>  0 0.12500170E+03</rscale>
<asrwt>0</asrwt>
<pdfrwt beam="1">  1       21 0.13920511E-01 0.12500170E+03</pdfrwt>
<pdfrwt beam="2">  1       21 0.66418635E-02 0.12500170E+03</pdfrwt>
<totfact> 0.72871846E+06</totfact>
</mgrwt>
</event>
<event>
 5    1  0.7934596E-005  0.1250026E+03  0.7818608E-02  0.1235065E+00
         21   -1    0    0  502  501  0.00000000000E+00  0.00000000000E+00  0.10434230598E+03  0.10434230598E+03  0.00000000000E+00 0. -1.
         21   -1    0    0  501  502 -0.00000000000E+00 -0.00000000000E+00 -0.37438413552E+02  0.37438413552E+02  0.00000000000E+00 0. -1.
         25    2    1    2    0    0  0.00000000000E+00  0.00000000000E+00  0.66903892426E+02  0.14178071953E+03  0.12500256641E+03 0.  0.
        -13    1    3    3    0    0 -0.58676591661E+02 -0.13419561121E+01  0.57822055494E+02  0.82390196803E+02  0.10570000000E+00 0.  1.
         13    1    3    3    0    0  0.58676591661E+02  0.13419561121E+01  0.90818369327E+01  0.59390522727E+02  0.10570000000E+00 0.  1.
<mgrwt>
<rscale>  0 0.12500257E+03</rscale>
<asrwt>0</asrwt>
<pdfrwt beam="1">  1       21 0.16052662E-01 0.12500257E+03</pdfrwt>
<pdfrwt beam="2">  1       21 0.57597560E-02 0.12500257E+03</pdfrwt>
<totfact> 0.71802989E+06</totfact>
</mgrwt>
</event>
<event>
 5    1  0.7934596E-005  0.1249906E+03  0.7818608E-02  0.1235084E+00
         21   -1    0    0  502  501  0.00000000000E+00  0.00000000000E+00  0.65996770007E+02  0.65996770007E+02  0.00000000000E+00 0. -1.
         21   -1    0    0  501  502 -0.00000000000E+00 -0.00000000000E+00 -0.59179581407E+02  0.59179581407E+02  0.00000000000E+00 0. -1.
         25    2    1    2    0    0  0.00000000000E+00  0.00000000000E+00  0.68171886000E+01  0.12517635141E+03  0.12499057922E+03 0.  0.
        -13    1    3    3    0    0  0.13363843641E+02 -0.33677150794E+02  0.54404874540E+02  0.65365467554E+02  0.10570000000E+00 0.  1.
         13    1    3    3    0    0 -0.13363843641E+02  0.33677150794E+02 -0.47587685940E+02  0.59810883859E+02  0.10570000000E+00 0.  1.
<mgrwt>
<rscale>  0 0.12499058E+03</rscale>
<asrwt>0</asrwt>
<pdfrwt beam="1">  1       21 0.10153349E-01 0.12499058E+03</pdfrwt>
<pdfrwt beam="2">  1       21 0.91045510E-02 0.12499058E+03</pdfrwt>
<totfact> 0.74037595E+06</totfact>
</mgrwt>
</event>
<event>
 5    1  0.7934596E-005  0.1250007E+03  0.7818608E-02  0.1235068E+00
         21   -1    0    0  502  501  0.00000000000E+00  0.00000000000E+00  0.26133966487E+03  0.26133966487E+03  0.00000000000E+00 0.  1.
         21   -1    0    0  501  502 -0.00000000000E+00 -0.00000000000E+00 -0.14947189291E+02  0.14947189291E+02  0.00000000000E+00 0.  1.
         25    2    1    2    0    0  0.00000000000E+00  0.00000000000E+00  0.24639247558E+03  0.27628685416E+03  0.12500069504E+03 0.  0.
        -13    1    3    3    0    0  0.41423923598E+02  0.42849333519E+02  0.81593844458E+02  0.10104243393E+03  0.10570000000E+00 0.  1.
         13    1    3    3    0    0 -0.41423923598E+02 -0.42849333519E+02  0.16479863112E+03  0.17524442022E+03  0.10570000000E+00 0.  1.
<mgrwt>
<rscale>  0 0.12500070E+03</rscale>
<asrwt>0</asrwt>
<pdfrwt beam="1">  1       21 0.40206099E-01 0.12500070E+03</pdfrwt>
<pdfrwt beam="2">  1       21 0.22995678E-02 0.12500070E+03</pdfrwt>
<totfact> 0.57485253E+06</totfact>
</mgrwt>
</event>
<event>
 5    1  0.7934596E-005  0.1250089E+03  0.7818608E-02  0.1235055E+00
         21   -1    0    0  502  501  0.00000000000E+00  0.00000000000E+00  0.34783341890E+03  0.34783341890E+03  0.00000000000E+00 0. -1.
         21   -1    0    0  501  502 -0.00000000000E+00 -0.00000000000E+00 -0.11231834379E+02  0.11231834379E+02  0.00000000000E+00 0. -1.
         25    2    1    2    0    0  0.00000000000E+00  0.00000000000E+00  0.33660158452E+03  0.35906525328E+03  0.12500891732E+03 0.  0.
        -13    1    3    3    0    0 -0.40601275583E+02 -0.39646936956E+02  0.24355621289E+03  0.25007995361E+03  0.10570000000E+00 0. -1.
         13    1    3    3    0    0  0.40601275583E+02  0.39646936956E+02  0.93045371628E+02  0.10898529966E+03  0.10570000000E+00 0. -1.
<mgrwt>
<rscale>  0 0.12500892E+03</rscale>
<asrwt>0</asrwt>
<pdfrwt beam="1">  1       21 0.53512826E-01 0.12500892E+03</pdfrwt>
<pdfrwt beam="2">  1       21 0.17279748E-02 0.12500892E+03</pdfrwt>
<totfact> 0.50864473E+06</totfact>
</mgrwt>
</event>
<event>
 5    1  0.7934596E-005  0.1250026E+03  0.7818608E-02  0.1235065E+00
         21   -1    0    0  502  501  0.00000000000E+00  0.00000000000E+00  0.34399863800E+02  0.34399863800E+02  0.00000000000E+00 0.  1.
         21   -1    0    0  501  502 -0.00000000000E+00 -0.00000000000E+00 -0.11355888469E+03  0.11355888469E+03  0.00000000000E+00 0.  1.
         25    2    1    2    0    0  0.00000000000E+00  0.00000000000E+00 -0.79159020885E+02  0.14795874849E+03  0.12500256264E+03 0.  0.
        -13    1    3    3    0    0  0.27886488324E+02 -0.41233542952E+02  0.51575645542E+01  0.50044709411E+02  0.10570000000E+00 0. -1.
         13    1    3    3    0    0 -0.27886488324E+02  0.41233542952E+02 -0.84316585439E+02  0.97914039075E+02  0.10570000000E+00 0. -1.
<mgrwt>
<rscale>  0 0.12500256E+03</rscale>
<asrwt>0</asrwt>
<pdfrwt beam="1">  1       21 0.52922867E-02 0.12500256E+03</pdfrwt>
<pdfrwt beam="2">  1       21 0.17470598E-01 0.12500256E+03</pdfrwt>
<totfact> 0.71011937E+06</totfact>
</mgrwt>
</event>
<event>
 5    1  0.7934596E-005  0.1249996E+03  0.7818608E-02  0.1235070E+00
         21   -1    0    0  502  501  0.00000000000E+00  0.00000000000E+00  0.29433989455E+02  0.29433989455E+02  0.00000000000E+00 0.  1.
         21   -1    0    0  501  502 -0.00000000000E+00 -0.00000000000E+00 -0.13271132096E+03  0.13271132096E+03  0.00000000000E+00 0.  1.
         25    2    1    2    0    0  0.00000000000E+00  0.00000000000E+00 -0.10327733151E+03  0.16214531042E+03  0.12499957795E+03 0.  0.
        -13    1    3    3    0    0  0.18014239054E+02  0.20698862904E+02  0.21202269015E+02  0.34677126728E+02  0.10570000000E+00 0. -1.
         13    1    3    3    0    0 -0.18014239054E+02 -0.20698862904E+02 -0.12447960052E+03  0.12746818369E+03  0.10570000000E+00 0. -1.
<mgrwt>
<rscale>  0 0.12499958E+03</rscale>
<asrwt>0</asrwt>
<pdfrwt beam="1">  1       21 0.45283062E-02 0.12499958E+03</pdfrwt>
<pdfrwt beam="2">  1       21 0.20417126E-01 0.12499958E+03</pdfrwt>
<totfact> 0.69259051E+06</totfact>
</mgrwt>
</event>
<event>
 5    1  0.7934596E-005  0.1250005E+03  0.7818608E-02  0.1235068E+00
         21   -1    0    0  502  501  0.00000000000E+00  0.00000000000E+00  0.20116954544E+03  0.20116954544E+03  0.00000000000E+00 0.  1.
         21   -1    0    0  501  502 -0.00000000000E+00 -0.00000000000E+00 -0.19417866946E+02  0.19417866946E+02  0.00000000000E+00 0.  1.
         25    2    1    2    0    0  0.00000000000E+00  0.00000000000E+00  0.18175167849E+03  0.22058741238E+03  0.12500053547E+03 0.  0.
        -13    1    3    3    0    0 -0.51001842046E+02  0.46452799518E+01  0.15409777172E+03  0.16238503915E+03  0.10570000000E+00 0. -1.
         13    1    3    3    0    0  0.51001842046E+02 -0.46452799518E+01  0.27653906772E+02  0.58202373235E+02  0.10570000000E+00 0. -1.
<mgrwt>
<rscale>  0 0.12500054E+03</rscale>
<asrwt>0</asrwt>
<pdfrwt beam="1">  1       21 0.30949159E-01 0.12500054E+03</pdfrwt>
<pdfrwt beam="2">  1       21 0.29873643E-02 0.12500054E+03</pdfrwt>
<totfact> 0.62761696E+06</totfact>
</mgrwt>
</event>
<event>
 5    1  0.7934596E-005  0.1250033E+03  0.7818608E-02  0.1235064E+00
         21   -1    0    0  502  501  0.00000000000E+00  0.00000000000E+00  0.18853909954E+03  0.18853909954E+03  0.00000000000E+00 0. -1.
         21   -1    0    0  501  502 -0.00000000000E+00 -0.00000000000E+00 -0.20719593202E+02  0.20719593202E+02  0.00000000000E+00 0. -1.
         25    2    1    2    0    0  0.00000000000E+00  0.00000000000E+00  0.16781950634E+03  0.20925869274E+03  0.12500325508E+03 0.  0.
        -13    1    3    3    0    0  0.18572166036E+02  0.47441036595E+02  0.23300188530E+02  0.56022203300E+02  0.10570000000E+00 0.  1.
         13    1    3    3    0    0 -0.18572166036E+02 -0.47441036595E+02  0.14451931781E+03  0.15323648944E+03  0.10570000000E+00 0.  1.
<mgrwt>
<rscale>  0 0.12500326E+03</rscale>
<asrwt>0</asrwt>
<pdfrwt beam="1">  1       21 0.29006014E-01 0.12500326E+03</pdfrwt>
<pdfrwt beam="2">  1       21 0.31876299E-02 0.12500326E+03</pdfrwt>
<totfact> 0.63932350E+06</totfact>
</mgrwt>
</event>
<event>
 5    1  0.7934596E-005  0.1249962E+03  0.7818608E-02  0.1235075E+00
         21   -1    0    0  502  501  0.00000000000E+00  0.00000000000E+00  0.15690025144E+02  0.15690025144E+02  0.00000000000E+00 0. -1.
         21   -1    0    0  501  502 -0.00000000000E+00 -0.00000000000E+00 -0.24894883957E+03  0.24894883957E+03  0.00000000000E+00 0. -1.
         25    2    1    2    0    0  0.00000000000E+00  0.00000000000E+00 -0.23325881442E+03  0.26463886471E+03  0.12499621678E+03 0.  0.
        -13    1    3    3    0    0  0.41229283472E+02 -0.17072133397E+02 -0.20927101517E+03  0.21397588770E+03  0.10570000000E+00 0. -1.
         13    1    3    3    0    0 -0.41229283472E+02  0.17072133397E+02 -0.23987799255E+02  0.50662977014E+02  0.10570000000E+00 0. -1.
<mgrwt>
<rscale>  0 0.12499622E+03</rscale>
<asrwt>0</asrwt>
<pdfrwt beam="1">  1       21 0.24138501E-02 0.12499622E+03</pdfrwt>
<pdfrwt beam="2">  1       21 0.38299820E-01 0.12499622E+03</pdfrwt>
<totfact> 0.58532264E+06</totfact>
</mgrwt>
</event>
<event>
 5    1  0.7934596E-005  0.1250017E+03  0.7818608E-02  0.1235067E+00
         21   -1    0    0  502  501  0.00000000000E+00  0.00000000000E+00  0.58236855906E+02  0.58236855906E+02  0.00000000000E+00 0.  1.
         21   -1    0    0  501  502 -0.00000000000E+00 -0.00000000000E+00 -0.67077090525E+02  0.67077090525E+02  0.00000000000E+00 0.  1.
         25    2    1    2    0    0  0.00000000000E+00  0.00000000000E+00 -0.88402346190E+01  0.12531394643E+03  0.12500174168E+03 0.  0.
        -13    1    3    3    0    0 -0.11914575874E+02  0.53329436854E+02  0.25993117765E+02  0.60511480704E+02  0.10570000000E+00 0. -1.
         13    1    3    3    0    0  0.11914575874E+02 -0.53329436854E+02 -0.34833352384E+02  0.64802465726E+02  0.10570000000E+00 0. -1.
<mgrwt>
<rscale>  0 0.12500174E+03</rscale>
<asrwt>0</asrwt>
<pdfrwt beam="1">  1       21 0.89595162E-02 0.12500174E+03</pdfrwt>
<pdfrwt beam="2">  1       21 0.10319552E-01 0.12500174E+03</pdfrwt>
<totfact> 0.73997894E+06</totfact>
</mgrwt>
</event>
<event>
 5    1  0.7934596E-005  0.1250006E+03  0.7818608E-02  0.1235068E+00
         21   -1    0    0  502  501  0.00000000000E+00  0.00000000000E+00  0.82867303603E+02  0.82867303603E+02  0.00000000000E+00 0. -1.
         21   -1    0    0  501  502 -0.00000000000E+00 -0.00000000000E+00 -0.47139033812E+02  0.47139033812E+02  0.00000000000E+00 0. -1.
         25    2    1    2    0    0  0.00000000000E+00  0.00000000000E+00  0.35728269791E+02  0.13000633742E+03  0.12500055402E+03 0.  0.
        -13    1    3    3    0    0  0.51396373687E+02 -0.34406628941E+02  0.27217041644E+02  0.67573529371E+02  0.10570000000E+00 0. -1.
         13    1    3    3    0    0 -0.51396373687E+02  0.34406628941E+02  0.85112281463E+01  0.62432808044E+02  0.10570000000E+00 0. -1.
<mgrwt>
<rscale>  0 0.12500055E+03</rscale>
<asrwt>0</asrwt>
<pdfrwt beam="1">  1       21 0.12748816E-01 0.12500055E+03</pdfrwt>
<pdfrwt beam="2">  1       21 0.72521591E-02 0.12500055E+03</pdfrwt>
<totfact> 0.73363030E+06</totfact>
</mgrwt>
</event>
<event>
 5    1  0.7934596E-005  0.1249959E+03  0.7818608E-02  0.1235076E+00
         21   -1    0    0  502  501  0.00000000000E+00  0.00000000000E+00  0.44061483960E+02  0.44061483960E+02  0.00000000000E+00 0. -1.
         21   -1    0    0  501  502 -0.00000000000E+00 -0.00000000000E+00 -0.88648715162E+02  0.88648715162E+02  0.00000000000E+00 0. -1.
         25    2    1    2    0    0  0.00000000000E+00  0.00000000000E+00 -0.44587231202E+02  0.13271019912E+03  0.12499590299E+03 0.  0.
        -13    1    3    3    0    0  0.15965732853E+01  0.57906592501E+02 -0.47198962768E+02  0.74722658947E+02  0.10570000000E+00 0. -1.
         13    1    3    3    0    0 -0.15965732853E+01 -0.57906592501E+02  0.26117315659E+01  0.57987540175E+02  0.10570000000E+00 0. -1.
<mgrwt>
<rscale>  0 0.12499590E+03</rscale>
<asrwt>0</asrwt>
<pdfrwt beam="1">  1       21 0.67786899E-02 0.12499590E+03</pdfrwt>
<pdfrwt beam="2">  1       21 0.13638264E-01 0.12499590E+03</pdfrwt>
<totfact> 0.73008751E+06</totfact>
</mgrwt>
</event>
<event>
 5    1  0.7934596E-005  0.1249993E+03  0.7818608E-02  0.1235070E+00
         21   -1    0    0  502  501  0.00000000000E+00  0.00000000000E+00  0.68363073161E+02  0.68363073161E+02  0.00000000000E+00 0. -1.
         21   -1    0    0  501  502 -0.00000000000E+00 -0.00000000000E+00 -0.57139082959E+02  0.57139082959E+02  0.00000000000E+00 0. -1.
         25    2    1    2    0    0  0.00000000000E+00  0.00000000000E+00  0.11223990202E+02  0.12550215612E+03  0.12499925294E+03 0.  0.
        -13    1    3    3    0    0  0.34243041080E+02  0.52080362301E+02  0.98453305635E+00  0.62337231874E+02  0.10570000000E+00 0. -1.
         13    1    3    3    0    0 -0.34243041080E+02 -0.52080362301E+02  0.10239457146E+02  0.63164924246E+02  0.10570000000E+00 0. -1.
<mgrwt>
<rscale>  0 0.12499925E+03</rscale>
<asrwt>0</asrwt>
<pdfrwt beam="1">  1       21 0.10517396E-01 0.12499925E+03</pdfrwt>
<pdfrwt beam="2">  1       21 0.87906281E-02 0.12499925E+03</pdfrwt>
<totfact> 0.73976504E+06</totfact>
</mgrwt>
</event>
<event>
 5    1  0.7934596E-005  0.1250026E+03  0.7818608E-02  0.1235065E+00
         21   -1    0    0  502  501  0.00000000000E+00  0.00000000000E+00  0.75127323328E+01  0.75127323328E+01  0.00000000000E+00 0. -1.
         21   -1    0    0  501  502 -0.00000000000E+00 -0.00000000000E+00 -0.51997236513E+03  0.51997236513E+03  0.00000000000E+00 0. -1.
         25    2    1    2    0    0  0.00000000000E+00  0.00000000000E+00 -0.51245963280E+03  0.52748509747E+03  0.12500261117E+03 0.  0.
        -13    1    3    3    0    0  0.57594452249E+02 -0.22956752318E+02 -0.28952839772E+03  0.29609261670E+03  0.10570000000E+00 0. -1.
         13    1    3    3    0    0 -0.57594452249E+02  0.22956752318E+02 -0.22293123508E+03  0.23139248076E+03  0.10570000000E+00 0. -1.
<mgrwt>
<rscale>  0 0.12500261E+03</rscale>
<asrwt>0</asrwt>
<pdfrwt beam="1">  1       21 0.11558050E-02 0.12500261E+03</pdfrwt>
<pdfrwt beam="2">  1       21 0.79995747E-01 0.12500261E+03</pdfrwt>
<totfact> 0.40589034E+06</totfact>
</mgrwt>
</event>
<event>
 5    1  0.7934596E-005  0.1249910E+03  0.7818608E-02  0.1235083E+00
         21   -1    0    0  502  501  0.00000000000E+00  0.00000000000E+00  0.91473193468E+01  0.91473193468E+01  0.00000000000E+00 0.  1.
         21   -1    0    0  501  502 -0.00000000000E+00 -0.00000000000E+00 -0.42697591963E+03  0.42697591963E+03  0.00000000000E+00 0.  1.
         25    2    1    2    0    0  0.00000000000E+00  0.00000000000E+00 -0.41782860028E+03  0.43612323898E+03  0.12499096112E+03 0.  0.
        -13    1    3    3    0    0 -0.62375110683E+01  0.62178443747E+02 -0.20619245578E+03  0.21545395193E+03  0.10570000000E+00 0. -1.
         13    1    3    3    0    0  0.62375110683E+01 -0.62178443747E+02 -0.21163614450E+03  0.22066928704E+03  0.10570000000E+00 0. -1.
<mgrwt>
<rscale>  0 0.12499096E+03</rscale>
<asrwt>0</asrwt>
<pdfrwt beam="1">  1       21 0.14072801E-02 0.12499096E+03</pdfrwt>
<pdfrwt beam="2">  1       21 0.65688595E-01 0.12499096E+03</pdfrwt>
<totfact> 0.45744450E+06</totfact>
</mgrwt>
</event>
<event>
 5    1  0.7934596E-005  0.1250021E+03  0.7818608E-02  0.1235066E+00
         21   -1    0    0  502  501  0.00000000000E+00  0.00000000000E+00  0.39262433792E+02  0.39262433792E+02  0.00000000000E+00 0. -1.
         21   -1    0    0  501  502 -0.00000000000E+00 -0.00000000000E+00 -0.99494117046E+02  0.99494117046E+02  0.00000000000E+00 0. -1.
         25    2    1    2    0    0  0.00000000000E+00  0.00000000000E+00 -0.60231683253E+02  0.13875655084E+03  0.12500209891E+03 0.  0.
        -13    1    3    3    0    0 -0.26344102184E+02  0.19864806708E+02 -0.89039166645E+02  0.94955814117E+02  0.10570000000E+00 0.  1.
         13    1    3    3    0    0  0.26344102184E+02 -0.19864806708E+02  0.28807483392E+02  0.43800736721E+02  0.10570000000E+00 0.  1.
<mgrwt>
<rscale>  0 0.12500210E+03</rscale>
<asrwt>0</asrwt>
<pdfrwt beam="1">  1       21 0.60403744E-02 0.12500210E+03</pdfrwt>
<pdfrwt beam="2">  1       21 0.15306787E-01 0.12500210E+03</pdfrwt>
<totfact> 0.72198195E+06</totfact>
</mgrwt>
</event>
<event>
 5    1  0.7934596E-005  0.1249636E+03  0.7818608E-02  0.1235126E+00
         21   -1    0    0  502  501  0.00000000000E+00  0.00000000000E+00  0.69098865606E+02  0.69098865606E+02  0.00000000000E+00 0. -1.
         21   -1    0    0  501  502 -0.00000000000E+00 -0.00000000000E+00 -0.56498406749E+02  0.56498406749E+02  0.00000000000E+00 0. -1.
         25    2    1    2    0    0  0.00000000000E+00  0.00000000000E+00  0.12600458857E+02  0.12559727236E+03  0.12496360774E+03 0.  0.
        -13    1    3    3    0    0 -0.45338312463E+02 -0.29726949934E+02  0.37517516525E+02  0.65930488759E+02  0.10570000000E+00 0. -1.
         13    1    3    3    0    0  0.45338312463E+02  0.29726949934E+02 -0.24917057667E+02  0.59666783596E+02  0.10570000000E+00 0. -1.
<mgrwt>
<rscale>  0 0.12496361E+03</rscale>
<asrwt>0</asrwt>
<pdfrwt beam="1">  1       21 0.10630595E-01 0.12496361E+03</pdfrwt>
<pdfrwt beam="2">  1       21 0.86920626E-02 0.12496361E+03</pdfrwt>
<totfact> 0.74030495E+06</totfact>
</mgrwt>
</event>
<event>
 5    1  0.7934596E-005  0.1249995E+03  0.7818608E-02  0.1235070E+00
         21   -1    0    0  502  501  0.00000000000E+00  0.00000000000E+00  0.20802755825E+02  0.20802755825E+02  0.00000000000E+00 0. -1.
         21   -1    0    0  501  502 -0.00000000000E+00 -0.00000000000E+00 -0.18777396282E+03  0.18777396282E+03  0.00000000000E+00 0. -1.
         25    2    1    2    0    0  0.00000000000E+00  0.00000000000E+00 -0.16697120700E+03  0.20857671865E+03  0.12499945438E+03 0.  0.
        -13    1    3    3    0    0  0.40034419163E+02 -0.17398196511E+01 -0.16351721603E+03  0.16835579230E+03  0.10570000000E+00 0. -1.
         13    1    3    3    0    0 -0.40034419163E+02  0.17398196511E+01 -0.34539909675E+01  0.40220926348E+02  0.10570000000E+00 0. -1.
<mgrwt>
<rscale>  0 0.12499945E+03</rscale>
<asrwt>0</asrwt>
<pdfrwt beam="1">  1       21 0.32004239E-02 0.12499945E+03</pdfrwt>
<pdfrwt beam="2">  1       21 0.28888302E-01 0.12499945E+03</pdfrwt>
<totfact> 0.64010476E+06</totfact>
</mgrwt>
</event>
<event>
 4    1  0.7934596E-005  0.1247915E+03  0.7818608E-02  0.1235395E+00
         21   -1    0    0  502  501  0.00000000000E+00  0.00000000000E+00  0.52548449847E+02  0.52548449847E+02  0.00000000000E+00 0. -1.
         21   -1    0    0  501  502 -0.00000000000E+00 -0.00000000000E+00 -0.74088407333E+02  0.74088407333E+02  0.00000000000E+00 0. -1.
        -13    1    1    2    0    0 -0.16299448160E+02  0.60218769009E+02 -0.96364866247E+01  0.63125630280E+02  0.10570000000E+00 0.  1.
         13    1    1    2    0    0  0.16299448160E+02 -0.60218769009E+02 -0.11903470862E+02  0.63511226900E+02  0.10570000000E+00 0.  1.
<mgrwt>
<rscale>  0 0.12479152E+03</rscale>
<asrwt>0</asrwt>
<pdfrwt beam="1">  1       21 0.80843768E-02 0.12479152E+03</pdfrwt>
<pdfrwt beam="2">  1       21 0.11398217E-01 0.12479152E+03</pdfrwt>
<totfact> 0.74212803E+06</totfact>
</mgrwt>
</event>
<event>
 5    1  0.7934596E-005  0.1250038E+03  0.7818608E-02  0.1235063E+00
         21   -1    0    0  502  501  0.00000000000E+00  0.00000000000E+00  0.25347546082E+02  0.25347546082E+02  0.00000000000E+00 0. -1.
         21   -1    0    0  501  502 -0.00000000000E+00 -0.00000000000E+00 -0.15411699763E+03  0.15411699763E+03  0.00000000000E+00 0. -1.
         25    2    1    2    0    0  0.00000000000E+00  0.00000000000E+00 -0.12876945155E+03  0.17946454371E+03  0.12500380313E+03 0.  0.
        -13    1    3    3    0    0  0.34910034141E+02 -0.38088048623E+02 -0.13889307646E+02  0.53500784770E+02  0.10570000000E+00 0.  1.
         13    1    3    3    0    0 -0.34910034141E+02  0.38088048623E+02 -0.11488014390E+03  0.12596375894E+03  0.10570000000E+00 0.  1.
<mgrwt>
<rscale>  0 0.12500380E+03</rscale>
<asrwt>0</asrwt>
<pdfrwt beam="1">  1       21 0.38996224E-02 0.12500380E+03</pdfrwt>
<pdfrwt beam="2">  1       21 0.23710308E-01 0.12500380E+03</pdfrwt>
<totfact> 0.67206532E+06</totfact>
</mgrwt>
</event>
<event>
 5    1  0.7934596E-005  0.1250012E+03  0.7818608E-02  0.1235067E+00
         21   -1    0    0  502  501  0.00000000000E+00  0.00000000000E+00  0.24308758023E+03  0.24308758023E+03  0.00000000000E+00 0. -1.
         21   -1    0    0  501  502 -0.00000000000E+00 -0.00000000000E+00 -0.16069614097E+02  0.16069614097E+02  0.00000000000E+00 0. -1.
         25    2    1    2    0    0  0.00000000000E+00  0.00000000000E+00  0.22701796614E+03  0.25915719433E+03  0.12500117769E+03 0.  0.
        -13    1    3    3    0    0 -0.44439008192E+02 -0.28849899118E+02  0.44773394077E+02  0.69367212124E+02  0.10570000000E+00 0.  1.
         13    1    3    3    0    0  0.44439008192E+02  0.28849899118E+02  0.18224457206E+03  0.18978998220E+03  0.10570000000E+00 0.  1.
<mgrwt>
<rscale>  0 0.12500118E+03</rscale>
<asrwt>0</asrwt>
<pdfrwt beam="1">  1       21 0.37398087E-01 0.12500118E+03</pdfrwt>
<pdfrwt beam="2">  1       21 0.24722485E-02 0.12500118E+03</pdfrwt>
<totfact> 0.59024856E+06</totfact>
</mgrwt>
</event>
<event>
 5    1  0.7934596E-005  0.1249990E+03  0.7818608E-02  0.1235071E+00
         21   -1    0    0  502  501  0.00000000000E+00  0.00000000000E+00  0.38147201418E+02  0.38147201418E+02  0.00000000000E+00 0. -1.
         21   -1    0    0  501  502 -0.00000000000E+00 -0.00000000000E+00 -0.10239781053E+03  0.10239781053E+03  0.00000000000E+00 0. -1.
         25    2    1    2    0    0  0.00000000000E+00  0.00000000000E+00 -0.64250609109E+02  0.14054501194E+03  0.12499903844E+03 0.  0.
        -13    1    3    3    0    0 -0.30537951593E+02  0.22864831650E+00  0.29186925817E+02  0.42243420537E+02  0.10570000000E+00 0.  1.
         13    1    3    3    0    0  0.30537951593E+02 -0.22864831650E+00 -0.93437534926E+02  0.98301591407E+02  0.10570000000E+00 0.  1.
<mgrwt>
<rscale>  0 0.12499904E+03</rscale>
<asrwt>0</asrwt>
<pdfrwt beam="1">  1       21 0.58688004E-02 0.12499904E+03</pdfrwt>
<pdfrwt beam="2">  1       21 0.15753509E-01 0.12499904E+03</pdfrwt>
<totfact> 0.71970001E+06</totfact>
</mgrwt>
</event>
<event>
 5    1  0.7934596E-005  0.1250001E+03  0.7818608E-02  0.1235069E+00
         21   -1    0    0  502  501  0.00000000000E+00  0.00000000000E+00  0.10376100514E+03  0.10376100514E+03  0.00000000000E+00 0.  1.
         21   -1    0    0  501  502 -0.00000000000E+00 -0.00000000000E+00 -0.37646695680E+02  0.37646695680E+02  0.00000000000E+00 0.  1.
         25    2    1    2    0    0  0.00000000000E+00  0.00000000000E+00  0.66114309457E+02  0.14140770082E+03  0.12500014374E+03 0.  0.
        -13    1    3    3    0    0  0.18483251530E+02 -0.42369633479E+02 -0.14528868416E+02  0.48455295048E+02  0.10570000000E+00 0. -1.
         13    1    3    3    0    0 -0.18483251530E+02  0.42369633479E+02  0.80643177873E+02  0.92952405769E+02  0.10570000000E+00 0. -1.
<mgrwt>
<rscale>  0 0.12500014E+03</rscale>
<asrwt>0</asrwt>
<pdfrwt beam="1">  1       21 0.15963231E-01 0.12500014E+03</pdfrwt>
<pdfrwt beam="2">  1       21 0.57917994E-02 0.12500014E+03</pdfrwt>
<totfact> 0.71855802E+06</totfact>
</mgrwt>
</event>
<event>
 5    1  0.7934596E-005  0.1249993E+03  0.7818608E-02  0.1235070E+00
         21   -1    0    0  502  501  0.00000000000E+00  0.00000000000E+00  0.25524226377E+03  0.25524226377E+03  0.00000000000E+00 0.  1.
         21   -1    0    0  501  502 -0.00000000000E+00 -0.00000000000E+00 -0.15303906183E+02  0.15303906183E+02  0.00000000000E+00 0.  1.
         25    2    1    2    0    0  0.00000000000E+00  0.00000000000E+00  0.23993835759E+03  0.27054616995E+03  0.12499925854E+03 0.  0.
        -13    1    3    3    0    0  0.56611615990E+02  0.11875639162E+02  0.68737442209E+02  0.89837369755E+02  0.10570000000E+00 0. -1.
         13    1    3    3    0    0 -0.56611615990E+02 -0.11875639162E+02  0.17120091538E+03  0.18070880020E+03  0.10570000000E+00 0. -1.
<mgrwt>
<rscale>  0 0.12499926E+03</rscale>
<asrwt>0</asrwt>
<pdfrwt beam="1">  1       21 0.39268037E-01 0.12499926E+03</pdfrwt>
<pdfrwt beam="2">  1       21 0.23544473E-02 0.12499926E+03</pdfrwt>
<totfact> 0.57997018E+06</totfact>
</mgrwt>
</event>
<event>
 4    1  0.7934596E-005  0.1251859E+03  0.7818608E-02  0.1234779E+00
         21   -1    0    0  502  501  0.00000000000E+00  0.00000000000E+00  0.43180458390E+02  0.43180458390E+02  0.00000000000E+00 0.  1.
         21   -1    0    0  501  502 -0.00000000000E+00 -0.00000000000E+00 -0.90732583929E+02  0.90732583929E+02  0.00000000000E+00 0.  1.
        -13    1    1    2    0    0 -0.10418739343E+02  0.59179033515E+02 -0.50284233326E+01  0.60299289805E+02  0.10570000000E+00 0.  1.
         13    1    1    2    0    0  0.10418739343E+02 -0.59179033515E+02 -0.42523702206E+02  0.73613752513E+02  0.10570000000E+00 0.  1.
<mgrwt>
<rscale>  0 0.12518585E+03</rscale>
<asrwt>0</asrwt>
<pdfrwt beam="1">  1       21 0.66431475E-02 0.12518585E+03</pdfrwt>
<pdfrwt beam="2">  1       21 0.13958859E-01 0.12518585E+03</pdfrwt>
<totfact> 0.72496445E+06</totfact>
</mgrwt>
</event>
<event>
 4    1  0.7934596E-005  0.1250493E+03  0.7818608E-02  0.1234992E+00
         21   -1    0    0  502  501  0.00000000000E+00  0.00000000000E+00  0.15007929933E+02  0.15007929933E+02  0.00000000000E+00 0.  1.
         21   -1    0    0  501  502 -0.00000000000E+00 -0.00000000000E+00 -0.26048435493E+03  0.26048435493E+03  0.00000000000E+00 0.  1.
        -13    1    1    2    0    0 -0.34607581218E+01  0.62092788473E+02 -0.13698656401E+03  0.15044208560E+03  0.10570000000E+00 0. -1.
         13    1    1    2    0    0  0.34607581218E+01 -0.62092788473E+02 -0.10848986099E+03  0.12505019927E+03  0.10570000000E+00 0. -1.
<mgrwt>
<rscale>  0 0.12504929E+03</rscale>
<asrwt>0</asrwt>
<pdfrwt beam="1">  1       21 0.23089121E-02 0.12504929E+03</pdfrwt>
<pdfrwt beam="2">  1       21 0.40074519E-01 0.12504929E+03</pdfrwt>
<totfact> 0.57485081E+06</totfact>
</mgrwt>
</event>
<event>
 4    1  0.7934596E-005  0.1248624E+03  0.7818608E-02  0.1235284E+00
         21   -1    0    0  502  501  0.00000000000E+00  0.00000000000E+00  0.33563286032E+02  0.33563286032E+02  0.00000000000E+00 0.  1.
         21   -1    0    0  501  502 -0.00000000000E+00 -0.00000000000E+00 -0.11612859719E+03  0.11612859719E+03  0.00000000000E+00 0.  1.
        -13    1    1    2    0    0 -0.51611521048E+01 -0.61959123366E+02 -0.48072415973E+02  0.78590958827E+02  0.10570000000E+00 0.  1.
         13    1    1    2    0    0  0.51611521048E+01  0.61959123366E+02 -0.34492895185E+02  0.71100924397E+02  0.10570000000E+00 0.  1.
<mgrwt>
<rscale>  0 0.12486244E+03</rscale>
<asrwt>0</asrwt>
<pdfrwt beam="1">  1       21 0.51635825E-02 0.12486244E+03</pdfrwt>
<pdfrwt beam="2">  1       21 0.17865938E-01 0.12486244E+03</pdfrwt>
<totfact> 0.71046398E+06</totfact>
</mgrwt>
</event>
<event>
 5    1  0.7934596E-005  0.1250031E+03  0.7818608E-02  0.1235064E+00
         21   -1    0    0  502  501  0.00000000000E+00  0.00000000000E+00  0.19540541471E+03  0.19540541471E+03  0.00000000000E+00 0.  1.
         21   -1    0    0  501  502 -0.00000000000E+00 -0.00000000000E+00 -0.19991487357E+02  0.19991487357E+02  0.00000000000E+00 0.  1.
         25    2    1    2    0    0  0.00000000000E+00  0.00000000000E+00  0.17541392736E+03  0.21539690207E+03  0.12500311800E+03 0.  0.
        -13    1    3    3    0    0  0.16658145748E+02 -0.43388744530E+02  0.15698244129E+02  0.49056324902E+02  0.10570000000E+00 0. -1.
         13    1    3    3    0    0 -0.16658145748E+02  0.43388744530E+02  0.15971568323E+03  0.16634057717E+03  0.10570000000E+00 0. -1.
<mgrwt>
<rscale>  0 0.12500312E+03</rscale>
<asrwt>0</asrwt>
<pdfrwt beam="1">  1       21 0.30062370E-01 0.12500312E+03</pdfrwt>
<pdfrwt beam="2">  1       21 0.30756136E-02 0.12500312E+03</pdfrwt>
<totfact> 0.63291166E+06</totfact>
</mgrwt>
</event>
<event>
 5    1  0.7934596E-005  0.1249979E+03  0.7818608E-02  0.1235072E+00
         21   -1    0    0  502  501  0.00000000000E+00  0.00000000000E+00  0.59762310525E+03  0.59762310525E+03  0.00000000000E+00 0.  1.
         21   -1    0    0  501  502 -0.00000000000E+00 -0.00000000000E+00 -0.65360953044E+01  0.65360953044E+01  0.00000000000E+00 0.  1.
         25    2    1    2    0    0  0.00000000000E+00  0.00000000000E+00  0.59108700994E+03  0.60415920055E+03  0.12499794514E+03 0.  0.
        -13    1    3    3    0    0 -0.55770083252E+02  0.28039799412E+02  0.31050182495E+03  0.31671426713E+03  0.10570000000E+00 0. -1.
         13    1    3    3    0    0  0.55770083252E+02 -0.28039799412E+02  0.28058518500E+03  0.28744493342E+03  0.10570000000E+00 0. -1.
<mgrwt>
<rscale>  0 0.12499795E+03</rscale>
<asrwt>0</asrwt>
<pdfrwt beam="1">  1       21 0.91941973E-01 0.12499795E+03</pdfrwt>
<pdfrwt beam="2">  1       21 0.10055536E-02 0.12499795E+03</pdfrwt>
<totfact> 0.36907105E+06</totfact>
</mgrwt>
</event>
<event>
 5    1  0.7934596E-005  0.1249993E+03  0.7818608E-02  0.1235070E+00
         21   -1    0    0  502  501  0.00000000000E+00  0.00000000000E+00  0.14412354760E+03  0.14412354760E+03  0.00000000000E+00 0. -1.
         21   -1    0    0  501  502 -0.00000000000E+00 -0.00000000000E+00 -0.27103180781E+02  0.27103180781E+02  0.00000000000E+00 0. -1.
         25    2    1    2    0    0  0.00000000000E+00  0.00000000000E+00  0.11702036682E+03  0.17122672839E+03  0.12499930505E+03 0.  0.
        -13    1    3    3    0    0  0.25166518429E+01 -0.58748803875E+02  0.87518069659E+02  0.10543803480E+03  0.10570000000E+00 0.  1.
         13    1    3    3    0    0 -0.25166518429E+01  0.58748803875E+02  0.29502297163E+02  0.65788693585E+02  0.10570000000E+00 0.  1.
<mgrwt>
<rscale>  0 0.12499931E+03</rscale>
<asrwt>0</asrwt>
<pdfrwt beam="1">  1       21 0.22172853E-01 0.12499931E+03</pdfrwt>
<pdfrwt beam="2">  1       21 0.41697202E-02 0.12499931E+03</pdfrwt>
<totfact> 0.68173714E+06</totfact>
</mgrwt>
</event>
<event>
 5    1  0.7934596E-005  0.1249987E+03  0.7818608E-02  0.1235071E+00
         21   -1    0    0  502  501  0.00000000000E+00  0.00000000000E+00  0.12782842274E+02  0.12782842274E+02  0.00000000000E+00 0. -1.
         21   -1    0    0  501  502 -0.00000000000E+00 -0.00000000000E+00 -0.30557916226E+03  0.30557916226E+03  0.00000000000E+00 0. -1.
         25    2    1    2    0    0  0.00000000000E+00  0.00000000000E+00 -0.29279631999E+03  0.31836200454E+03  0.12499872373E+03 0.  0.
        -13    1    3    3    0    0  0.45975472434E+02 -0.44571120685E+01 -0.25362778683E+03  0.25779968064E+03  0.10570000000E+00 0. -1.
         13    1    3    3    0    0 -0.45975472434E+02  0.44571120685E+01 -0.39168533158E+02  0.60562323897E+02  0.10570000000E+00 0. -1.
<mgrwt>
<rscale>  0 0.12499872E+03</rscale>
<asrwt>0</asrwt>
<pdfrwt beam="1">  1       21 0.19665911E-02 0.12499872E+03</pdfrwt>
<pdfrwt beam="2">  1       21 0.47012179E-01 0.12499872E+03</pdfrwt>
<totfact> 0.53965129E+06</totfact>
</mgrwt>
</event>
<event>
 5    1  0.7934596E-005  0.1250012E+03  0.7818608E-02  0.1235067E+00
         21   -1    0    0  502  501  0.00000000000E+00  0.00000000000E+00  0.32854700449E+03  0.32854700449E+03  0.00000000000E+00 0.  1.
         21   -1    0    0  501  502 -0.00000000000E+00 -0.00000000000E+00 -0.11889704440E+02  0.11889704440E+02  0.00000000000E+00 0.  1.
         25    2    1    2    0    0  0.00000000000E+00  0.00000000000E+00  0.31665730005E+03  0.34043670893E+03  0.12500122844E+03 0.  0.
        -13    1    3    3    0    0 -0.37516023615E+02 -0.48905186724E+02  0.18651966223E+03  0.19644023235E+03  0.10570000000E+00 0.  1.
         13    1    3    3    0    0  0.37516023615E+02  0.48905186724E+02  0.13013763782E+03  0.14399647657E+03  0.10570000000E+00 0.  1.
<mgrwt>
<rscale>  0 0.12500123E+03</rscale>
<asrwt>0</asrwt>
<pdfrwt beam="1">  1       21 0.50545686E-01 0.12500123E+03</pdfrwt>
<pdfrwt beam="2">  1       21 0.18291855E-02 0.12500123E+03</pdfrwt>
<totfact> 0.52250951E+06</totfact>
</mgrwt>
</event>
<event>
 5    1  0.7934596E-005  0.1249979E+03  0.7818608E-02  0.1235073E+00
         21   -1    0    0  502  501  0.00000000000E+00  0.00000000000E+00  0.75017866763E+02  0.75017866763E+02  0.00000000000E+00 0.  1.
         21   -1    0    0  501  502 -0.00000000000E+00 -0.00000000000E+00 -0.52069185179E+02  0.52069185179E+02  0.00000000000E+00 0.  1.
         25    2    1    2    0    0  0.00000000000E+00  0.00000000000E+00  0.22948681584E+02  0.12708705194E+03  0.12499790712E+03 0.  0.
        -13    1    3    3    0    0 -0.42722040644E+02  0.12745641400E+02  0.56006898818E+02  0.71584970624E+02  0.10570000000E+00 0. -1.
         13    1    3    3    0    0  0.42722040644E+02 -0.12745641400E+02 -0.33058217234E+02  0.55502081318E+02  0.10570000000E+00 0. -1.
<mgrwt>
<rscale>  0 0.12499791E+03</rscale>
<asrwt>0</asrwt>
<pdfrwt beam="1">  1       21 0.11541210E-01 0.12499791E+03</pdfrwt>
<pdfrwt beam="2">  1       21 0.80106439E-02 0.12499791E+03</pdfrwt>
<totfact> 0.73761231E+06</totfact>
</mgrwt>
</event>
<event>
 5    1  0.7934596E-005  0.1249994E+03  0.7818608E-02  0.1235070E+00
         21   -1    0    0  502  501  0.00000000000E+00  0.00000000000E+00  0.14022249904E+03  0.14022249904E+03  0.00000000000E+00 0. -1.
         21   -1    0    0  501  502 -0.00000000000E+00 -0.00000000000E+00 -0.27857251333E+02  0.27857251333E+02  0.00000000000E+00 0. -1.
         25    2    1    2    0    0  0.00000000000E+00  0.00000000000E+00  0.11236524770E+03  0.16807975037E+03  0.12499941437E+03 0.  0.
        -13    1    3    3    0    0 -0.35794391019E+02 -0.23983432466E+02 -0.46951540815E+01  0.43341655548E+02  0.10570000000E+00 0.  1.
         13    1    3    3    0    0  0.35794391019E+02  0.23983432466E+02  0.11706040178E+03  0.12473809482E+03  0.10570000000E+00 0.  1.
<mgrwt>
<rscale>  0 0.12499941E+03</rscale>
<asrwt>0</asrwt>
<pdfrwt beam="1">  1       21 0.21572692E-01 0.12499941E+03</pdfrwt>
<pdfrwt beam="2">  1       21 0.42857311E-02 0.12499941E+03</pdfrwt>
<totfact> 0.68546487E+06</totfact>
</mgrwt>
</event>
<event>
 5    1  0.7934596E-005  0.1250046E+03  0.7818608E-02  0.1235062E+00
         21   -1    0    0  502  501  0.00000000000E+00  0.00000000000E+00  0.23341677539E+03  0.23341677539E+03  0.00000000000E+00 0. -1.
         21   -1    0    0  501  502 -0.00000000000E+00 -0.00000000000E+00 -0.16736328655E+02  0.16736328655E+02  0.00000000000E+00 0. -1.
         25    2    1    2    0    0  0.00000000000E+00  0.00000000000E+00  0.21668044673E+03  0.25015310404E+03  0.12500463778E+03 0.  0.
        -13    1    3    3    0    0 -0.59055227563E+02 -0.19241801983E+02  0.94366252047E+02  0.11297241940E+03  0.10570000000E+00 0.  1.
         13    1    3    3    0    0  0.59055227563E+02  0.19241801983E+02  0.12231419469E+03  0.13718068465E+03  0.10570000000E+00 0.  1.
<mgrwt>
<rscale>  0 0.12500464E+03</rscale>
<asrwt>0</asrwt>
<pdfrwt beam="1">  1       21 0.35910271E-01 0.12500464E+03</pdfrwt>
<pdfrwt beam="2">  1       21 0.25748200E-02 0.12500464E+03</pdfrwt>
<totfact> 0.59856781E+06</totfact>
</mgrwt>
</event>
<event>
 5    1  0.7934596E-005  0.1249980E+03  0.7818608E-02  0.1235072E+00
         21   -1    0    0  502  501  0.00000000000E+00  0.00000000000E+00  0.84967524138E+02  0.84967524138E+02  0.00000000000E+00 0.  1.
         21   -1    0    0  501  502 -0.00000000000E+00 -0.00000000000E+00 -0.45971944430E+02  0.45971944430E+02  0.00000000000E+00 0.  1.
         25    2    1    2    0    0  0.00000000000E+00  0.00000000000E+00  0.38995579708E+02  0.13093946857E+03  0.12499795675E+03 0.  0.
        -13    1    3    3    0    0 -0.50877593806E+02 -0.28707886392E+02 -0.37715639206E+01  0.58539799790E+02  0.10570000000E+00 0.  1.
         13    1    3    3    0    0  0.50877593806E+02  0.28707886392E+02  0.42767143629E+02  0.72399668778E+02  0.10570000000E+00 0.  1.
<mgrwt>
<rscale>  0 0.12499796E+03</rscale>
<asrwt>0</asrwt>
<pdfrwt beam="1">  1       21 0.13071927E-01 0.12499796E+03</pdfrwt>
<pdfrwt beam="2">  1       21 0.70726069E-02 0.12499796E+03</pdfrwt>
<totfact> 0.73242647E+06</totfact>
</mgrwt>
</event>
<event>
 5    1  0.7934596E-005  0.1249969E+03  0.7818608E-02  0.1235074E+00
         21   -1    0    0  502  501  0.00000000000E+00  0.00000000000E+00  0.51890921454E+02  0.51890921454E+02  0.00000000000E+00 0. -1.
         21   -1    0    0  501  502 -0.00000000000E+00 -0.00000000000E+00 -0.75274414172E+02  0.75274414172E+02  0.00000000000E+00 0. -1.
         25    2    1    2    0    0  0.00000000000E+00  0.00000000000E+00 -0.23383492718E+02  0.12716533563E+03  0.12499693937E+03 0.  0.
        -13    1    3    3    0    0 -0.38688838168E+02 -0.48283057527E+02 -0.20674856369E+02  0.65234505450E+02  0.10570000000E+00 0.  1.
         13    1    3    3    0    0  0.38688838168E+02  0.48283057527E+02 -0.27086363491E+01  0.61930830176E+02  0.10570000000E+00 0.  1.
<mgrwt>
<rscale>  0 0.12499694E+03</rscale>
<asrwt>0</asrwt>
<pdfrwt beam="1">  1       21 0.79832188E-02 0.12499694E+03</pdfrwt>
<pdfrwt beam="2">  1       21 0.11580679E-01 0.12499694E+03</pdfrwt>
<totfact> 0.73752408E+06</totfact>
</mgrwt>
</event>
<event>
 5    1  0.7934596E-005  0.1249995E+03  0.7818608E-02  0.1235070E+00
         21   -1    0    0  502  501  0.00000000000E+00  0.00000000000E+00  0.79862063485E+02  0.79862063485E+02  0.00000000000E+00 0. -1.
         21   -1    0    0  501  502 -0.00000000000E+00 -0.00000000000E+00 -0.48912051904E+02  0.48912051904E+02  0.00000000000E+00 0. -1.
         25    2    1    2    0    0  0.00000000000E+00  0.00000000000E+00  0.30950011581E+02  0.12877411539E+03  0.12499947831E+03 0.  0.
        -13    1    3    3    0    0  0.30976138080E+01  0.61627432368E+02  0.25708271190E+02  0.66846555721E+02  0.10570000000E+00 0. -1.
         13    1    3    3    0    0 -0.30976138080E+01 -0.61627432368E+02  0.52417403906E+01  0.61927559668E+02  0.10570000000E+00 0. -1.
<mgrwt>
<rscale>  0 0.12499948E+03</rscale>
<asrwt>0</asrwt>
<pdfrwt beam="1">  1       21 0.12286471E-01 0.12499948E+03</pdfrwt>
<pdfrwt beam="2">  1       21 0.75249310E-02 0.12499948E+03</pdfrwt>
<totfact> 0.73530215E+06</totfact>
</mgrwt>
</event>
<event>
 5    1  0.7934596E-005  0.1250028E+03  0.7818608E-02  0.1235065E+00
         21   -1    0    0  502  501  0.00000000000E+00  0.00000000000E+00  0.40722661410E+02  0.40722661410E+02  0.00000000000E+00 0.  1.
         21   -1    0    0  501  502 -0.00000000000E+00 -0.00000000000E+00 -0.95927503551E+02  0.95927503551E+02  0.00000000000E+00 0.  1.
         25    2    1    2    0    0  0.00000000000E+00  0.00000000000E+00 -0.55204842141E+02  0.13665016496E+03  0.12500277192E+03 0.  0.
        -13    1    3    3    0    0 -0.34351087557E+02 -0.26353896522E+02  0.21674128733E+02  0.48418014283E+02  0.10570000000E+00 0. -1.
         13    1    3    3    0    0  0.34351087557E+02  0.26353896522E+02 -0.76878970874E+02  0.88232150679E+02  0.10570000000E+00 0. -1.
<mgrwt>
<rscale>  0 0.12500277E+03</rscale>
<asrwt>0</asrwt>
<pdfrwt beam="1">  1       21 0.62650249E-02 0.12500277E+03</pdfrwt>
<pdfrwt beam="2">  1       21 0.14758077E-01 0.12500277E+03</pdfrwt>
<totfact> 0.72473586E+06</totfact>
</mgrwt>
</event>
<event>
 5    1  0.7934596E-005  0.1249998E+03  0.7818608E-02  0.1235070E+00
         21   -1    0    0  502  501  0.00000000000E+00  0.00000000000E+00  0.10628587155E+03  0.10628587155E+03  0.00000000000E+00 0.  1.
         21   -1    0    0  501  502 -0.00000000000E+00 -0.00000000000E+00 -0.36752204447E+02  0.36752204447E+02  0.00000000000E+00 0.  1.
         25    2    1    2    0    0  0.00000000000E+00  0.00000000000E+00  0.69533667100E+02  0.14303807599E+03  0.12499984129E+03 0.  0.
        -13    1    3    3    0    0 -0.41079971727E+02  0.24270562963E+02  0.80960594202E+02  0.93974748149E+02  0.10570000000E+00 0.  1.
         13    1    3    3    0    0  0.41079971727E+02 -0.24270562963E+02 -0.11426927103E+02  0.49063327844E+02  0.10570000000E+00 0.  1.
<mgrwt>
<rscale>  0 0.12499984E+03</rscale>
<asrwt>0</asrwt>
<pdfrwt beam="1">  1       21 0.16351672E-01 0.12499984E+03</pdfrwt>
<pdfrwt beam="2">  1       21 0.56541854E-02 0.12499984E+03</pdfrwt>
<totfact> 0.71645423E+06</totfact>
</mgrwt>
</event>
<event>
 5    1  0.7934596E-005  0.1249953E+03  0.7818608E-02  0.1235077E+00
         21   -1    0    0  502  501  0.00000000000E+00  0.00000000000E+00  0.11757332047E+03  0.11757332047E+03  0.00000000000E+00 0.  1.
         21   -1    0    0  501  502 -0.00000000000E+00 -0.00000000000E+00 -0.33221448336E+02  0.33221448336E+02  0.00000000000E+00 0.  1.
         25    2    1    2    0    0  0.00000000000E+00  0.00000000000E+00  0.84351872129E+02  0.15079476880E+03  0.12499529578E+03 0.  0.
        -13    1    3    3    0    0 -0.47351426190E+02 -0.81635583888E+01 -0.60371116992E+01  0.48427875629E+02  0.10570000000E+00 0.  1.
         13    1    3    3    0    0  0.47351426190E+02  0.81635583888E+01  0.90388983828E+02  0.10236689317E+03  0.10570000000E+00 0.  1.
<mgrwt>
<rscale>  0 0.12499530E+03</rscale>
<asrwt>0</asrwt>
<pdfrwt beam="1">  1       21 0.18088203E-01 0.12499530E+03</pdfrwt>
<pdfrwt beam="2">  1       21 0.51109921E-02 0.12499530E+03</pdfrwt>
<totfact> 0.70667968E+06</totfact>
</mgrwt>
</event>
<event>
 5    1  0.7934596E-005  0.1250012E+03  0.7818608E-02  0.1235067E+00
         21   -1    0    0  502  501  0.00000000000E+00  0.00000000000E+00  0.45603941995E+02  0.45603941995E+02  0.00000000000E+00 0. -1.
         21   -1    0    0  501  502 -0.00000000000E+00 -0.00000000000E+00 -0.85657663984E+02  0.85657663984E+02  0.00000000000E+00 0. -1.
         25    2    1    2    0    0  0.00000000000E+00  0.00000000000E+00 -0.40053721990E+02  0.13126160598E+03  0.12500123423E+03 0.  0.
        -13    1    3    3    0    0  0.69502003695E+01  0.45832824083E+02  0.23993554919E+02  0.52198226969E+02  0.10570000000E+00 0.  1.
         13    1    3    3    0    0 -0.69502003695E+01 -0.45832824083E+02 -0.64047276909E+02  0.79063379010E+02  0.10570000000E+00 0.  1.
<mgrwt>
<rscale>  0 0.12500123E+03</rscale>
<asrwt>0</asrwt>
<pdfrwt beam="1">  1       21 0.70159911E-02 0.12500123E+03</pdfrwt>
<pdfrwt beam="2">  1       21 0.13178102E-01 0.12500123E+03</pdfrwt>
<totfact> 0.73193135E+06</totfact>
</mgrwt>
</event>
<event>
 5    1  0.7934596E-005  0.1249999E+03  0.7818608E-02  0.1235070E+00
         21   -1    0    0  502  501  0.00000000000E+00  0.00000000000E+00  0.38161691861E+02  0.38161691861E+02  0.00000000000E+00 0. -1.
         21   -1    0    0  501  502 -0.00000000000E+00 -0.00000000000E+00 -0.10236027356E+03  0.10236027356E+03  0.00000000000E+00 0. -1.
         25    2    1    2    0    0  0.00000000000E+00  0.00000000000E+00 -0.64198581702E+02  0.14052196542E+03  0.12499985950E+03 0.  0.
        -13    1    3    3    0    0  0.17763327678E+02 -0.49581279899E+00  0.35261788247E+02  0.39486535976E+02  0.10570000000E+00 0.  1.
         13    1    3    3    0    0 -0.17763327678E+02  0.49581279899E+00 -0.99460369950E+02  0.10103542945E+03  0.10570000000E+00 0.  1.
<mgrwt>
<rscale>  0 0.12499986E+03</rscale>
<asrwt>0</asrwt>
<pdfrwt beam="1">  1       21 0.58710296E-02 0.12499986E+03</pdfrwt>
<pdfrwt beam="2">  1       21 0.15747734E-01 0.12499986E+03</pdfrwt>
<totfact> 0.71971498E+06</totfact>
</mgrwt>
</event>
<event>
 5    1  0.7934596E-005  0.1250000E+03  0.7818608E-02  0.1235069E+00
         21   -1    0    0  502  501  0.00000000000E+00  0.00000000000E+00  0.23871534634E+02  0.23871534634E+02  0.00000000000E+00 0. -1.
         21   -1    0    0  501  502 -0.00000000000E+00 -0.00000000000E+00 -0.16363620222E+03  0.16363620222E+03  0.00000000000E+00 0. -1.
         25    2    1    2    0    0  0.00000000000E+00  0.00000000000E+00 -0.13976466759E+03  0.18750773685E+03  0.12499995630E+03 0.  0.
        -13    1    3    3    0    0  0.95505035772E+01 -0.47188683703E+02 -0.10100525006E+02  0.49193655750E+02  0.10570000000E+00 0.  1.
         13    1    3    3    0    0 -0.95505035772E+01  0.47188683703E+02 -0.12966414258E+03  0.13831408110E+03  0.10570000000E+00 0.  1.
<mgrwt>
<rscale>  0 0.12499996E+03</rscale>
<asrwt>0</asrwt>
<pdfrwt beam="1">  1       21 0.36725438E-02 0.12499996E+03</pdfrwt>
<pdfrwt beam="2">  1       21 0.25174801E-01 0.12499996E+03</pdfrwt>
<totfact> 0.66300606E+06</totfact>
</mgrwt>
</event>
<event>
 5    1  0.7934596E-005  0.1250022E+03  0.7818608E-02  0.1235066E+00
         21   -1    0    0  502  501  0.00000000000E+00  0.00000000000E+00  0.44688291155E+03  0.44688291155E+03  0.00000000000E+00 0. -1.
         21   -1    0    0  501  502 -0.00000000000E+00 -0.00000000000E+00 -0.87414079824E+01  0.87414079824E+01  0.00000000000E+00 0. -1.
         25    2    1    2    0    0  0.00000000000E+00  0.00000000000E+00  0.43814150356E+03  0.45562431953E+03  0.12500217358E+03 0.  0.
        -13    1    3    3    0    0  0.23898657306E+02 -0.55269366871E+02  0.15802213234E+03  0.16910604429E+03  0.10570000000E+00 0. -1.
         13    1    3    3    0    0 -0.23898657306E+02  0.55269366871E+02  0.28011937123E+03  0.28651827524E+03  0.10570000000E+00 0. -1.
<mgrwt>
<rscale>  0 0.12500217E+03</rscale>
<asrwt>0</asrwt>
<pdfrwt beam="1">  1       21 0.68751199E-01 0.12500217E+03</pdfrwt>
<pdfrwt beam="2">  1       21 0.13448323E-02 0.12500217E+03</pdfrwt>
<totfact> 0.44555216E+06</totfact>
</mgrwt>
</event>
<event>
 5    1  0.7934596E-005  0.1249992E+03  0.7818608E-02  0.1235071E+00
         21   -1    0    0  502  501  0.00000000000E+00  0.00000000000E+00  0.73710120889E+02  0.73710120889E+02  0.00000000000E+00 0.  1.
         21   -1    0    0  501  502 -0.00000000000E+00 -0.00000000000E+00 -0.52994086358E+02  0.52994086358E+02  0.00000000000E+00 0.  1.
         25    2    1    2    0    0  0.00000000000E+00  0.00000000000E+00  0.20716034531E+02  0.12670420725E+03  0.12499920819E+03 0.  0.
        -13    1    3    3    0    0  0.43571598503E+02 -0.44518907445E+02  0.52121565104E+01  0.62510759588E+02  0.10570000000E+00 0.  1.
         13    1    3    3    0    0 -0.43571598503E+02  0.44518907445E+02  0.15503878021E+02  0.64193447659E+02  0.10570000000E+00 0.  1.
<mgrwt>
<rscale>  0 0.12499921E+03</rscale>
<asrwt>0</asrwt>
<pdfrwt beam="1">  1       21 0.11340019E-01 0.12499921E+03</pdfrwt>
<pdfrwt beam="2">  1       21 0.81529364E-02 0.12499921E+03</pdfrwt>
<totfact> 0.73810952E+06</totfact>
</mgrwt>
</event>
<event>
 5    1  0.7934596E-005  0.1250045E+03  0.7818608E-02  0.1235062E+00
         21   -1    0    0  502  501  0.00000000000E+00  0.00000000000E+00  0.22015358622E+03  0.22015358622E+03  0.00000000000E+00 0.  1.
         21   -1    0    0  501  502 -0.00000000000E+00 -0.00000000000E+00 -0.17744565289E+02  0.17744565289E+02  0.00000000000E+00 0.  1.
         25    2    1    2    0    0  0.00000000000E+00  0.00000000000E+00  0.20240902094E+03  0.23789815151E+03  0.12500447487E+03 0.  0.
        -13    1    3    3    0    0  0.36639139158E+01  0.39375834271E+02  0.19331690922E+03  0.19732034653E+03  0.10570000000E+00 0.  1.
         13    1    3    3    0    0 -0.36639139158E+01 -0.39375834271E+02  0.90921117144E+01  0.40577804988E+02  0.10570000000E+00 0.  1.
<mgrwt>
<rscale>  0 0.12500447E+03</rscale>
<asrwt>0</asrwt>
<pdfrwt beam="1">  1       21 0.33869781E-01 0.12500447E+03</pdfrwt>
<pdfrwt beam="2">  1       21 0.27299333E-02 0.12500447E+03</pdfrwt>
<totfact> 0.61029759E+06</totfact>
</mgrwt>
</event>
<event>
 5    1  0.7934596E-005  0.1249952E+03  0.7818608E-02  0.1235077E+00
         21   -1    0    0  502  501  0.00000000000E+00  0.00000000000E+00  0.35352431269E+02  0.35352431269E+02  0.00000000000E+00 0.  1.
         21   -1    0    0  501  502 -0.00000000000E+00 -0.00000000000E+00 -0.11048605810E+03  0.11048605810E+03  0.00000000000E+00 0.  1.
         25    2    1    2    0    0  0.00000000000E+00  0.00000000000E+00 -0.75133626834E+02  0.14583848937E+03  0.12499521231E+03 0.  0.
        -13    1    3    3    0    0  0.48636653957E+02 -0.12916871124E+02  0.56750267086E+01  0.50641749262E+02  0.10570000000E+00 0. -1.
         13    1    3    3    0    0 -0.48636653957E+02  0.12916871124E+02 -0.80808653543E+02  0.95196740110E+02  0.10570000000E+00 0. -1.
<mgrwt>
<rscale>  0 0.12499521E+03</rscale>
<asrwt>0</asrwt>
<pdfrwt beam="1">  1       21 0.54388356E-02 0.12499521E+03</pdfrwt>
<pdfrwt beam="2">  1       21 0.16997855E-01 0.12499521E+03</pdfrwt>
<totfact> 0.71294657E+06</totfact>
</mgrwt>
</event>
<event>
 5    1  0.7934596E-005  0.1250031E+03  0.7818608E-02  0.1235064E+00
         21   -1    0    0  502  501  0.00000000000E+00  0.00000000000E+00  0.21063265529E+03  0.21063265529E+03  0.00000000000E+00 0. -1.
         21   -1    0    0  501  502 -0.00000000000E+00 -0.00000000000E+00 -0.18546236370E+02  0.18546236370E+02  0.00000000000E+00 0. -1.
         25    2    1    2    0    0  0.00000000000E+00  0.00000000000E+00  0.19208641892E+03  0.22917889166E+03  0.12500308816E+03 0.  0.
        -13    1    3    3    0    0 -0.56930691515E+02  0.26148230288E+01  0.48996553163E+02  0.75157263989E+02  0.10570000000E+00 0. -1.
         13    1    3    3    0    0  0.56930691515E+02 -0.26148230288E+01  0.14308986576E+03  0.15402162767E+03  0.10570000000E+00 0. -1.
<mgrwt>
<rscale>  0 0.12500309E+03</rscale>
<asrwt>0</asrwt>
<pdfrwt beam="1">  1       21 0.32405022E-01 0.12500309E+03</pdfrwt>
<pdfrwt beam="2">  1       21 0.28532673E-02 0.12500309E+03</pdfrwt>
<totfact> 0.61890964E+06</totfact>
</mgrwt>
</event>
<event>
 4    1  0.7934596E-005  0.1249517E+03  0.7818608E-02  0.1235145E+00
         21   -1    0    0  502  501  0.00000000000E+00  0.00000000000E+00  0.34779631286E+02  0.34779631286E+02  0.00000000000E+00 0. -1.
         21   -1    0    0  501  502 -0.00000000000E+00 -0.00000000000E+00 -0.11222756443E+03  0.11222756443E+03  0.00000000000E+00 0. -1.
        -13    1    1    2    0    0  0.56036112201E+02  0.12370663305E+02 -0.96628602690E+01  0.58193309085E+02  0.10570000000E+00 0. -1.
         13    1    1    2    0    0 -0.56036112201E+02 -0.12370663305E+02 -0.67785072874E+02  0.88813886630E+02  0.10570000000E+00 0. -1.
<mgrwt>
<rscale>  0 0.12495172E+03</rscale>
<asrwt>0</asrwt>
<pdfrwt beam="1">  1       21 0.53507126E-02 0.12495172E+03</pdfrwt>
<pdfrwt beam="2">  1       21 0.17265779E-01 0.12495172E+03</pdfrwt>
<totfact> 0.71224721E+06</totfact>
</mgrwt>
</event>
<event>
 5    1  0.7934596E-005  0.1249944E+03  0.7818608E-02  0.1235078E+00
         21   -1    0    0  502  501  0.00000000000E+00  0.00000000000E+00  0.27702461095E+02  0.27702461095E+02  0.00000000000E+00 0. -1.
         21   -1    0    0  501  502 -0.00000000000E+00 -0.00000000000E+00 -0.14099476202E+03  0.14099476202E+03  0.00000000000E+00 0. -1.
         25    2    1    2    0    0  0.00000000000E+00  0.00000000000E+00 -0.11329230092E+03  0.16869722311E+03  0.12499443043E+03 0.  0.
        -13    1    3    3    0    0  0.50669073012E+02  0.28520943973E+02 -0.87572935749E+02  0.10511816900E+03  0.10570000000E+00 0.  1.
         13    1    3    3    0    0 -0.50669073012E+02 -0.28520943973E+02 -0.25719365175E+02  0.63579054118E+02  0.10570000000E+00 0.  1.
<mgrwt>
<rscale>  0 0.12499443E+03</rscale>
<asrwt>0</asrwt>
<pdfrwt beam="1">  1       21 0.42619171E-02 0.12499443E+03</pdfrwt>
<pdfrwt beam="2">  1       21 0.21691502E-01 0.12499443E+03</pdfrwt>
<totfact> 0.68481784E+06</totfact>
</mgrwt>
</event>
<event>
 5    1  0.7934596E-005  0.1250017E+03  0.7818608E-02  0.1235067E+00
         21   -1    0    0  502  501  0.00000000000E+00  0.00000000000E+00  0.65644708274E+02  0.65644708274E+02  0.00000000000E+00 0.  1.
         21   -1    0    0  501  502 -0.00000000000E+00 -0.00000000000E+00 -0.59507523052E+02  0.59507523052E+02  0.00000000000E+00 0.  1.
         25    2    1    2    0    0  0.00000000000E+00  0.00000000000E+00  0.61371852224E+01  0.12515223133E+03  0.12500166384E+03 0.  0.
        -13    1    3    3    0    0  0.22237333816E+02 -0.54470710273E+02 -0.18046749686E+02  0.61540666552E+02  0.10570000000E+00 0. -1.
         13    1    3    3    0    0 -0.22237333816E+02  0.54470710273E+02  0.24183934908E+02  0.63611564774E+02  0.10570000000E+00 0. -1.
<mgrwt>
<rscale>  0 0.12500166E+03</rscale>
<asrwt>0</asrwt>
<pdfrwt beam="1">  1       21 0.10099186E-01 0.12500166E+03</pdfrwt>
<pdfrwt beam="2">  1       21 0.91550036E-02 0.12500166E+03</pdfrwt>
<totfact> 0.74019873E+06</totfact>
</mgrwt>
</event>
<event>
 5    1  0.7934596E-005  0.1249997E+03  0.7818608E-02  0.1235070E+00
         21   -1    0    0  502  501  0.00000000000E+00  0.00000000000E+00  0.80313470101E+02  0.80313470101E+02  0.00000000000E+00 0. -1.
         21   -1    0    0  501  502 -0.00000000000E+00 -0.00000000000E+00 -0.48637294553E+02  0.48637294553E+02  0.00000000000E+00 0. -1.
         25    2    1    2    0    0  0.00000000000E+00  0.00000000000E+00  0.31676175547E+02  0.12895076465E+03  0.12499967843E+03 0.  0.
        -13    1    3    3    0    0 -0.50972186338E+02 -0.32706808417E+01 -0.21319274396E+02  0.55347843377E+02  0.10570000000E+00 0. -1.
         13    1    3    3    0    0  0.50972186338E+02  0.32706808417E+01  0.52995449944E+02  0.73602921277E+02  0.10570000000E+00 0. -1.
<mgrwt>
<rscale>  0 0.12499968E+03</rscale>
<asrwt>0</asrwt>
<pdfrwt beam="1">  1       21 0.12355918E-01 0.12499968E+03</pdfrwt>
<pdfrwt beam="2">  1       21 0.74826607E-02 0.12499968E+03</pdfrwt>
<totfact> 0.73506097E+06</totfact>
</mgrwt>
</event>
<event>
 5    1  0.7934596E-005  0.1249990E+03  0.7818608E-02  0.1235071E+00
         21   -1    0    0  502  501  0.00000000000E+00  0.00000000000E+00  0.83645421445E+02  0.83645421445E+02  0.00000000000E+00 0.  1.
         21   -1    0    0  501  502 -0.00000000000E+00 -0.00000000000E+00 -0.46699373119E+02  0.46699373119E+02  0.00000000000E+00 0.  1.
         25    2    1    2    0    0  0.00000000000E+00  0.00000000000E+00  0.36946048326E+02  0.13034479456E+03  0.12499901993E+03 0.  0.
        -13    1    3    3    0    0  0.58139065278E+02  0.22596117689E+02  0.14375319558E+02  0.64010908686E+02  0.10570000000E+00 0.  1.
         13    1    3    3    0    0 -0.58139065278E+02 -0.22596117689E+02  0.22570728768E+02  0.66333885877E+02  0.10570000000E+00 0.  1.
<mgrwt>
<rscale>  0 0.12499902E+03</rscale>
<asrwt>0</asrwt>
<pdfrwt beam="1">  1       21 0.12868526E-01 0.12499902E+03</pdfrwt>
<pdfrwt beam="2">  1       21 0.71845190E-02 0.12499902E+03</pdfrwt>
<totfact> 0.73320703E+06</totfact>
</mgrwt>
</event>
<event>
 5    1  0.7934596E-005  0.1250014E+03  0.7818608E-02  0.1235067E+00
         21   -1    0    0  502  501  0.00000000000E+00  0.00000000000E+00  0.33273015707E+02  0.33273015707E+02  0.00000000000E+00 0. -1.
         21   -1    0    0  501  502 -0.00000000000E+00 -0.00000000000E+00 -0.11740252320E+03  0.11740252320E+03  0.00000000000E+00 0. -1.
         25    2    1    2    0    0  0.00000000000E+00  0.00000000000E+00 -0.84129507492E+02  0.15067553891E+03  0.12500137597E+03 0.  0.
        -13    1    3    3    0    0 -0.61448897443E+02 -0.29974924554E+01 -0.28785038372E+02  0.67923056208E+02  0.10570000000E+00 0.  1.
         13    1    3    3    0    0  0.61448897443E+02  0.29974924554E+01 -0.55344469120E+02  0.82752482698E+02  0.10570000000E+00 0.  1.
<mgrwt>
<rscale>  0 0.12500138E+03</rscale>
<asrwt>0</asrwt>
<pdfrwt beam="1">  1       21 0.51189255E-02 0.12500138E+03</pdfrwt>
<pdfrwt beam="2">  1       21 0.18061927E-01 0.12500138E+03</pdfrwt>
<totfact> 0.70671969E+06</totfact>
</mgrwt>
</event>
<event>
 5    1  0.7934596E-005  0.1250001E+03  0.7818608E-02  0.1235069E+00
         21   -1    0    0  502  501  0.00000000000E+00  0.00000000000E+00  0.19238733031E+02  0.19238733031E+02  0.00000000000E+00 0.  1.
         21   -1    0    0  501  502 -0.00000000000E+00 -0.00000000000E+00 -0.20304108790E+03  0.20304108790E+03  0.00000000000E+00 0.  1.
         25    2    1    2    0    0  0.00000000000E+00  0.00000000000E+00 -0.18380235487E+03  0.22227982094E+03  0.12500005255E+03 0.  0.
        -13    1    3    3    0    0 -0.22465700369E+02  0.43222855770E+02 -0.22269617660E+02  0.53561833400E+02  0.10570000000E+00 0. -1.
         13    1    3    3    0    0  0.22465700369E+02 -0.43222855770E+02 -0.16153273721E+03  0.16871798754E+03  0.10570000000E+00 0. -1.
<mgrwt>
<rscale>  0 0.12500005E+03</rscale>
<asrwt>0</asrwt>
<pdfrwt beam="1">  1       21 0.29598052E-02 0.12500005E+03</pdfrwt>
<pdfrwt beam="2">  1       21 0.31237090E-01 0.12500005E+03</pdfrwt>
<totfact> 0.62590182E+06</totfact>
</mgrwt>
</event>
<event>
 5    1  0.7934596E-005  0.1249997E+03  0.7818608E-02  0.1235070E+00
         21   -1    0    0  502  501  0.00000000000E+00  0.00000000000E+00  0.24558642721E+02  0.24558642721E+02  0.00000000000E+00 0. -1.
         21   -1    0    0  501  502 -0.00000000000E+00 -0.00000000000E+00 -0.15905729476E+03  0.15905729476E+03  0.00000000000E+00 0. -1.
         25    2    1    2    0    0  0.00000000000E+00  0.00000000000E+00 -0.13449865204E+03  0.18361593748E+03  0.12499970039E+03 0.  0.
        -13    1    3    3    0    0  0.57894046996E+02  0.11534565814E+02 -0.37093162598E+02  0.69718582674E+02  0.10570000000E+00 0.  1.
         13    1    3    3    0    0 -0.57894046996E+02 -0.11534565814E+02 -0.97405489441E+02  0.11389735481E+03  0.10570000000E+00 0.  1.
<mgrwt>
<rscale>  0 0.12499970E+03</rscale>
<asrwt>0</asrwt>
<pdfrwt beam="1">  1       21 0.37782529E-02 0.12499970E+03</pdfrwt>
<pdfrwt beam="2">  1       21 0.24470352E-01 0.12499970E+03</pdfrwt>
<totfact> 0.66739637E+06</totfact>
</mgrwt>
</event>
<event>
 5    1  0.7934596E-005  0.1250101E+03  0.7818608E-02  0.1235053E+00
         21   -1    0    0  502  501  0.00000000000E+00  0.00000000000E+00  0.16308786289E+03  0.16308786289E+03  0.00000000000E+00 0. -1.
         21   -1    0    0  501  502 -0.00000000000E+00 -0.00000000000E+00 -0.23955695949E+02  0.23955695949E+02  0.00000000000E+00 0. -1.
         25    2    1    2    0    0  0.00000000000E+00  0.00000000000E+00  0.13913216694E+03  0.18704355884E+03  0.12501013169E+03 0.  0.
        -13    1    3    3    0    0  0.10169657638E+02  0.56471494605E+02  0.32478343143E+02  0.65934100321E+02  0.10570000000E+00 0. -1.
         13    1    3    3    0    0 -0.10169657638E+02 -0.56471494605E+02  0.10665382380E+03  0.12110945852E+03  0.10570000000E+00 0. -1.
<mgrwt>
<rscale>  0 0.12501013E+03</rscale>
<asrwt>0</asrwt>
<pdfrwt beam="1">  1       21 0.25090440E-01 0.12501013E+03</pdfrwt>
<pdfrwt beam="2">  1       21 0.36854918E-02 0.12501013E+03</pdfrwt>
<totfact> 0.66335525E+06</totfact>
</mgrwt>
</event>
<event>
 5    1  0.7934596E-005  0.1249978E+03  0.7818608E-02  0.1235073E+00
         21   -1    0    0  502  501  0.00000000000E+00  0.00000000000E+00  0.21273150339E+02  0.21273150339E+02  0.00000000000E+00 0.  1.
         21   -1    0    0  501  502 -0.00000000000E+00 -0.00000000000E+00 -0.18361702048E+03  0.18361702048E+03  0.00000000000E+00 0.  1.
         25    2    1    2    0    0  0.00000000000E+00  0.00000000000E+00 -0.16234387014E+03  0.20489017082E+03  0.12499779969E+03 0.  0.
        -13    1    3    3    0    0  0.12031705208E+02 -0.61323573759E+02 -0.82599671846E+02  0.10357634667E+03  0.10570000000E+00 0. -1.
         13    1    3    3    0    0 -0.12031705208E+02  0.61323573759E+02 -0.79744198293E+02  0.10131382414E+03  0.10570000000E+00 0. -1.
<mgrwt>
<rscale>  0 0.12499780E+03</rscale>
<asrwt>0</asrwt>
<pdfrwt beam="1">  1       21 0.32727922E-02 0.12499780E+03</pdfrwt>
<pdfrwt beam="2">  1       21 0.28248773E-01 0.12499780E+03</pdfrwt>
<totfact> 0.64404776E+06</totfact>
</mgrwt>
</event>
<event>
 5    1  0.7934596E-005  0.1250006E+03  0.7818608E-02  0.1235068E+00
         21   -1    0    0  502  501  0.00000000000E+00  0.00000000000E+00  0.37633265831E+02  0.37633265831E+02  0.00000000000E+00 0. -1.
         21   -1    0    0  501  502 -0.00000000000E+00 -0.00000000000E+00 -0.10379877658E+03  0.10379877658E+03  0.00000000000E+00 0. -1.
         25    2    1    2    0    0  0.00000000000E+00  0.00000000000E+00 -0.66165510748E+02  0.14143204241E+03  0.12500059123E+03 0.  0.
        -13    1    3    3    0    0 -0.41530069793E+02 -0.38549272572E+02 -0.62921386886E+02  0.84675292813E+02  0.10570000000E+00 0.  1.
         13    1    3    3    0    0  0.41530069793E+02  0.38549272572E+02 -0.32441238620E+01  0.56756749598E+02  0.10570000000E+00 0.  1.
<mgrwt>
<rscale>  0 0.12500059E+03</rscale>
<asrwt>0</asrwt>
<pdfrwt beam="1">  1       21 0.57897333E-02 0.12500059E+03</pdfrwt>
<pdfrwt beam="2">  1       21 0.15969042E-01 0.12500059E+03</pdfrwt>
<totfact> 0.71851823E+06</totfact>
</mgrwt>
</event>
<event>
 5    1  0.7934596E-005  0.1249993E+03  0.7818608E-02  0.1235070E+00
         21   -1    0    0  502  501  0.00000000000E+00  0.00000000000E+00  0.41389264524E+02  0.41389264524E+02  0.00000000000E+00 0.  1.
         21   -1    0    0  501  502 -0.00000000000E+00 -0.00000000000E+00 -0.94377298771E+02  0.94377298771E+02  0.00000000000E+00 0.  1.
         25    2    1    2    0    0  0.00000000000E+00  0.00000000000E+00 -0.52988034247E+02  0.13576656330E+03  0.12499931174E+03 0.  0.
        -13    1    3    3    0    0 -0.62592085129E+01 -0.45340494830E+02  0.19730812511E+02  0.49842294263E+02  0.10570000000E+00 0. -1.
         13    1    3    3    0    0  0.62592085129E+01  0.45340494830E+02 -0.72718846757E+02  0.85924269033E+02  0.10570000000E+00 0. -1.
<mgrwt>
<rscale>  0 0.12499931E+03</rscale>
<asrwt>0</asrwt>
<pdfrwt beam="1">  1       21 0.63675792E-02 0.12499931E+03</pdfrwt>
<pdfrwt beam="2">  1       21 0.14519584E-01 0.12499931E+03</pdfrwt>
<totfact> 0.72596407E+06</totfact>
</mgrwt>
</event>
<event>
 5    1  0.7934596E-005  0.1250013E+03  0.7818608E-02  0.1235067E+00
         21   -1    0    0  502  501  0.00000000000E+00  0.00000000000E+00  0.34426374781E+03  0.34426374781E+03  0.00000000000E+00 0.  1.
         21   -1    0    0  501  502 -0.00000000000E+00 -0.00000000000E+00 -0.11346906542E+02  0.11346906542E+02  0.00000000000E+00 0.  1.
         25    2    1    2    0    0  0.00000000000E+00  0.00000000000E+00  0.33291684126E+03  0.35561065435E+03  0.12500125715E+03 0.  0.
        -13    1    3    3    0    0  0.64755435862E+01 -0.53211449760E+02  0.25788975576E+03  0.26340183816E+03  0.10570000000E+00 0.  1.
         13    1    3    3    0    0 -0.64755435862E+01  0.53211449760E+02  0.75027085508E+02  0.92208816187E+02  0.10570000000E+00 0.  1.
<mgrwt>
<rscale>  0 0.12500126E+03</rscale>
<asrwt>0</asrwt>
<pdfrwt beam="1">  1       21 0.52963646E-01 0.12500126E+03</pdfrwt>
<pdfrwt beam="2">  1       21 0.17456782E-02 0.12500126E+03</pdfrwt>
<totfact> 0.51125114E+06</totfact>
</mgrwt>
</event>
<event>
 5    1  0.7934596E-005  0.1250017E+03  0.7818608E-02  0.1235067E+00
         21   -1    0    0  502  501  0.00000000000E+00  0.00000000000E+00  0.49443393481E+03  0.49443393481E+03  0.00000000000E+00 0.  1.
         21   -1    0    0  501  502 -0.00000000000E+00 -0.00000000000E+00 -0.79006653635E+01  0.79006653635E+01  0.00000000000E+00 0.  1.
         25    2    1    2    0    0  0.00000000000E+00  0.00000000000E+00  0.48653326945E+03  0.50233460017E+03  0.12500171300E+03 0.  0.
        -13    1    3    3    0    0  0.55969759172E+02 -0.22735310308E+02  0.17886358374E+03  0.18879009782E+03  0.10570000000E+00 0. -1.
         13    1    3    3    0    0 -0.55969759172E+02  0.22735310308E+02  0.30766968571E+03  0.31354450235E+03  0.10570000000E+00 0. -1.
<mgrwt>
<rscale>  0 0.12500171E+03</rscale>
<asrwt>0</asrwt>
<pdfrwt beam="1">  1       21 0.76066735E-01 0.12500171E+03</pdfrwt>
<pdfrwt beam="2">  1       21 0.12154874E-02 0.12500171E+03</pdfrwt>
<totfact> 0.41915963E+06</totfact>
</mgrwt>
</event>
<event>
 5    1  0.7934596E-005  0.1250022E+03  0.7818608E-02  0.1235066E+00
         21   -1    0    0  502  501  0.00000000000E+00  0.00000000000E+00  0.36795535293E+02  0.36795535293E+02  0.00000000000E+00 0.  1.
         21   -1    0    0  501  502 -0.00000000000E+00 -0.00000000000E+00 -0.10616470760E+03  0.10616470760E+03  0.00000000000E+00 0.  1.
         25    2    1    2    0    0  0.00000000000E+00  0.00000000000E+00 -0.69369172306E+02  0.14296024289E+03  0.12500219591E+03 0.  0.
        -13    1    3    3    0    0 -0.42752550615E+01  0.61836727809E+02 -0.43856537510E+02  0.75930664206E+02  0.10570000000E+00 0. -1.
         13    1    3    3    0    0  0.42752550615E+01 -0.61836727809E+02 -0.25512634796E+02  0.67029578685E+02  0.10570000000E+00 0. -1.
<mgrwt>
<rscale>  0 0.12500220E+03</rscale>
<asrwt>0</asrwt>
<pdfrwt beam="1">  1       21 0.56608516E-02 0.12500220E+03</pdfrwt>
<pdfrwt beam="2">  1       21 0.16333032E-01 0.12500220E+03</pdfrwt>
<totfact> 0.71651164E+06</totfact>
</mgrwt>
</event>
<event>
 5    1  0.7934596E-005  0.1250002E+03  0.7818608E-02  0.1235069E+00
         21   -1    0    0  502  501  0.00000000000E+00  0.00000000000E+00  0.24491039128E+03  0.24491039128E+03  0.00000000000E+00 0.  1.
         21   -1    0    0  501  502 -0.00000000000E+00 -0.00000000000E+00 -0.15949763554E+02  0.15949763554E+02  0.00000000000E+00 0.  1.
         25    2    1    2    0    0  0.00000000000E+00  0.00000000000E+00  0.22896062773E+03  0.26086015484E+03  0.12500020533E+03 0.  0.
        -13    1    3    3    0    0  0.49470544267E+02  0.28698030022E+02  0.16708205442E+03  0.17659936512E+03  0.10570000000E+00 0. -1.
         13    1    3    3    0    0 -0.49470544267E+02 -0.28698030022E+02  0.61878573309E+02  0.84260789722E+02  0.10570000000E+00 0. -1.
<mgrwt>
<rscale>  0 0.12500021E+03</rscale>
<asrwt>0</asrwt>
<pdfrwt beam="1">  1       21 0.37678519E-01 0.12500021E+03</pdfrwt>
<pdfrwt beam="2">  1       21 0.24538100E-02 0.12500021E+03</pdfrwt>
<totfact> 0.58870219E+06</totfact>
</mgrwt>
</event>
<event>
 5    1  0.7934596E-005  0.1250000E+03  0.7818608E-02  0.1235069E+00
         21   -1    0    0  502  501  0.00000000000E+00  0.00000000000E+00  0.15108876800E+03  0.15108876800E+03  0.00000000000E+00 0. -1.
         21   -1    0    0  501  502 -0.00000000000E+00 -0.00000000000E+00 -0.25854018048E+02  0.25854018048E+02  0.00000000000E+00 0. -1.
         25    2    1    2    0    0  0.00000000000E+00  0.00000000000E+00  0.12523474996E+03  0.17694278605E+03  0.12500002776E+03 0.  0.
        -13    1    3    3    0    0  0.52901774831E+02  0.32010406300E+02  0.49722986381E+02  0.79345134942E+02  0.10570000000E+00 0.  1.
         13    1    3    3    0    0 -0.52901774831E+02 -0.32010406300E+02  0.75511763574E+02  0.97597651110E+02  0.10570000000E+00 0.  1.
<mgrwt>
<rscale>  0 0.12500003E+03</rscale>
<asrwt>0</asrwt>
<pdfrwt beam="1">  1       21 0.23244425E-01 0.12500003E+03</pdfrwt>
<pdfrwt beam="2">  1       21 0.39775413E-02 0.12500003E+03</pdfrwt>
<totfact> 0.67503945E+06</totfact>
</mgrwt>
</event>
<event>
 5    1  0.7934596E-005  0.1249994E+03  0.7818608E-02  0.1235070E+00
         21   -1    0    0  502  501  0.00000000000E+00  0.00000000000E+00  0.41352429157E+02  0.41352429157E+02  0.00000000000E+00 0. -1.
         21   -1    0    0  501  502 -0.00000000000E+00 -0.00000000000E+00 -0.94461568485E+02  0.94461568485E+02  0.00000000000E+00 0. -1.
         25    2    1    2    0    0  0.00000000000E+00  0.00000000000E+00 -0.53109139328E+02  0.13581399764E+03  0.12499944510E+03 0.  0.
        -13    1    3    3    0    0  0.51880062383E+01  0.58676634011E+02 -0.38585532163E+01  0.59031876075E+02  0.10570000000E+00 0. -1.
         13    1    3    3    0    0 -0.51880062383E+01 -0.58676634011E+02 -0.49250586111E+02  0.76782121567E+02  0.10570000000E+00 0. -1.
<mgrwt>
<rscale>  0 0.12499945E+03</rscale>
<asrwt>0</asrwt>
<pdfrwt beam="1">  1       21 0.63619122E-02 0.12499945E+03</pdfrwt>
<pdfrwt beam="2">  1       21 0.14532549E-01 0.12499945E+03</pdfrwt>
<totfact> 0.72589900E+06</totfact>
</mgrwt>
</event>
<event>
 5    1  0.7934596E-005  0.1249984E+03  0.7818608E-02  0.1235072E+00
         21   -1    0    0  502  501  0.00000000000E+00  0.00000000000E+00  0.12637067860E+02  0.12637067860E+02  0.00000000000E+00 0.  1.
         21   -1    0    0  501  502 -0.00000000000E+00 -0.00000000000E+00 -0.30910269926E+03  0.30910269926E+03  0.00000000000E+00 0.  1.
         25    2    1    2    0    0  0.00000000000E+00  0.00000000000E+00 -0.29646563140E+03  0.32173976712E+03  0.12499842857E+03 0.  0.
        -13    1    3    3    0    0 -0.21633305811E+02 -0.55639320321E+02 -0.10060382982E+03  0.11698237317E+03  0.10570000000E+00 0. -1.
         13    1    3    3    0    0  0.21633305811E+02  0.55639320321E+02 -0.19586180158E+03  0.20475739395E+03  0.10570000000E+00 0. -1.
<mgrwt>
<rscale>  0 0.12499843E+03</rscale>
<asrwt>0</asrwt>
<pdfrwt beam="1">  1       21 0.19441643E-02 0.12499843E+03</pdfrwt>
<pdfrwt beam="2">  1       21 0.47554262E-01 0.12499843E+03</pdfrwt>
<totfact> 0.53697879E+06</totfact>
</mgrwt>
</event>
<event>
 5    1  0.7934596E-005  0.1249993E+03  0.7818608E-02  0.1235070E+00
         21   -1    0    0  502  501  0.00000000000E+00  0.00000000000E+00  0.15666136776E+02  0.15666136776E+02  0.00000000000E+00 0.  1.
         21   -1    0    0  501  502 -0.00000000000E+00 -0.00000000000E+00 -0.24934077786E+03  0.24934077786E+03  0.00000000000E+00 0.  1.
         25    2    1    2    0    0  0.00000000000E+00  0.00000000000E+00 -0.23367464109E+03  0.26500691464E+03  0.12499930768E+03 0.  0.
        -13    1    3    3    0    0 -0.54523554763E+02 -0.28139262792E+02 -0.91613028266E+02  0.11026148128E+03  0.10570000000E+00 0.  1.
         13    1    3    3    0    0  0.54523554763E+02  0.28139262792E+02 -0.14206161282E+03  0.15474543335E+03  0.10570000000E+00 0.  1.
<mgrwt>
<rscale>  0 0.12499931E+03</rscale>
<asrwt>0</asrwt>
<pdfrwt beam="1">  1       21 0.24101749E-02 0.12499931E+03</pdfrwt>
<pdfrwt beam="2">  1       21 0.38360120E-01 0.12499931E+03</pdfrwt>
<totfact> 0.58494398E+06</totfact>
</mgrwt>
</event>
<event>
 5    1  0.7934596E-005  0.1250020E+03  0.7818608E-02  0.1235066E+00
         21   -1    0    0  502  501  0.00000000000E+00  0.00000000000E+00  0.82619651162E+02  0.82619651162E+02  0.00000000000E+00 0. -1.
         21   -1    0    0  501  502 -0.00000000000E+00 -0.00000000000E+00 -0.47281417609E+02  0.47281417609E+02  0.00000000000E+00 0. -1.
         25    2    1    2    0    0  0.00000000000E+00  0.00000000000E+00  0.35338233552E+02  0.12990106877E+03  0.12500198765E+03 0.  0.
        -13    1    3    3    0    0  0.61548162496E+02  0.23048034911E+01  0.28709749870E+02  0.67954023691E+02  0.10570000000E+00 0. -1.
         13    1    3    3    0    0 -0.61548162496E+02 -0.23048034911E+01  0.66284836825E+01  0.61947045080E+02  0.10570000000E+00 0. -1.
<mgrwt>
<rscale>  0 0.12500199E+03</rscale>
<asrwt>0</asrwt>
<pdfrwt beam="1">  1       21 0.12710716E-01 0.12500199E+03</pdfrwt>
<pdfrwt beam="2">  1       21 0.72740643E-02 0.12500199E+03</pdfrwt>
<totfact> 0.73374416E+06</totfact>
</mgrwt>
</event>
<event>
 5    1  0.7934596E-005  0.1249999E+03  0.7818608E-02  0.1235069E+00
         21   -1    0    0  502  501  0.00000000000E+00  0.00000000000E+00  0.44807395811E+02  0.44807395811E+02  0.00000000000E+00 0. -1.
         21   -1    0    0  501  502 -0.00000000000E+00 -0.00000000000E+00 -0.87178554093E+02  0.87178554093E+02  0.00000000000E+00 0. -1.
         25    2    1    2    0    0  0.00000000000E+00  0.00000000000E+00 -0.42371158282E+02  0.13198594990E+03  0.12499990367E+03 0.  0.
        -13    1    3    3    0    0 -0.45665764636E+02  0.33054618150E+02  0.73089927802E+01  0.56845425399E+02  0.10570000000E+00 0.  1.
         13    1    3    3    0    0  0.45665764636E+02 -0.33054618150E+02 -0.49680151062E+02  0.75140524505E+02  0.10570000000E+00 0.  1.
<mgrwt>
<rscale>  0 0.12499990E+03</rscale>
<asrwt>0</asrwt>
<pdfrwt beam="1">  1       21 0.68934456E-02 0.12499990E+03</pdfrwt>
<pdfrwt beam="2">  1       21 0.13412085E-01 0.12499990E+03</pdfrwt>
<totfact> 0.73098293E+06</totfact>
</mgrwt>
</event>
<event>
 5    1  0.7934596E-005  0.1250007E+03  0.7818608E-02  0.1235068E+00
         21   -1    0    0  502  501  0.00000000000E+00  0.00000000000E+00  0.61046179243E+02  0.61046179243E+02  0.00000000000E+00 0. -1.
         21   -1    0    0  501  502 -0.00000000000E+00 -0.00000000000E+00 -0.63989120095E+02  0.63989120095E+02  0.00000000000E+00 0. -1.
         25    2    1    2    0    0  0.00000000000E+00  0.00000000000E+00 -0.29429408522E+01  0.12503529934E+03  0.12500066072E+03 0.  0.
        -13    1    3    3    0    0 -0.30127684101E+02  0.54537534839E+02 -0.63982862359E+01  0.62633611542E+02  0.10570000000E+00 0. -1.
         13    1    3    3    0    0  0.30127684101E+02 -0.54537534839E+02  0.34553453838E+01  0.62401687796E+02  0.10570000000E+00 0. -1.
<mgrwt>
<rscale>  0 0.12500066E+03</rscale>
<asrwt>0</asrwt>
<pdfrwt beam="1">  1       21 0.93917198E-02 0.12500066E+03</pdfrwt>
<pdfrwt beam="2">  1       21 0.98444801E-02 0.12500066E+03</pdfrwt>
<totfact> 0.74037563E+06</totfact>
</mgrwt>
</event>
<event>
 4    1  0.7934596E-005  0.1249352E+03  0.7818608E-02  0.1235171E+00
         21   -1    0    0  502  501  0.00000000000E+00  0.00000000000E+00  0.83500347810E+02  0.83500347810E+02  0.00000000000E+00 0. -1.
         21   -1    0    0  501  502 -0.00000000000E+00 -0.00000000000E+00 -0.46732762111E+02  0.46732762111E+02  0.00000000000E+00 0. -1.
        -13    1    1    2    0    0 -0.40661636795E+02  0.21945443375E+02 -0.25437158220E+02  0.52744965471E+02  0.10570000000E+00 0. -1.
         13    1    1    2    0    0  0.40661636795E+02 -0.21945443375E+02  0.62204743919E+02  0.77488144450E+02  0.10570000000E+00 0. -1.
<mgrwt>
<rscale>  0 0.12493521E+03</rscale>
<asrwt>0</asrwt>
<pdfrwt beam="1">  1       21 0.12846207E-01 0.12493521E+03</pdfrwt>
<pdfrwt beam="2">  1       21 0.71896558E-02 0.12493521E+03</pdfrwt>
<totfact> 0.73455199E+06</totfact>
</mgrwt>
</event>
<event>
 5    1  0.7934596E-005  0.1249962E+03  0.7818608E-02  0.1235075E+00
         21   -1    0    0  502  501  0.00000000000E+00  0.00000000000E+00  0.42854785387E+03  0.42854785387E+03  0.00000000000E+00 0. -1.
         21   -1    0    0  501  502 -0.00000000000E+00 -0.00000000000E+00 -0.91145280836E+01  0.91145280836E+01  0.00000000000E+00 0. -1.
         25    2    1    2    0    0  0.00000000000E+00  0.00000000000E+00  0.41943332578E+03  0.43766238195E+03  0.12499618313E+03 0.  0.
        -13    1    3    3    0    0 -0.35595541609E+02  0.42656367580E+02  0.10948883293E+03  0.12277794584E+03  0.10570000000E+00 0. -1.
         13    1    3    3    0    0  0.35595541609E+02 -0.42656367580E+02  0.30994449286E+03  0.31488443611E+03  0.10570000000E+00 0. -1.
<mgrwt>
<rscale>  0 0.12499618E+03</rscale>
<asrwt>0</asrwt>
<pdfrwt beam="1">  1       21 0.65930423E-01 0.12499618E+03</pdfrwt>
<pdfrwt beam="2">  1       21 0.14022354E-02 0.12499618E+03</pdfrwt>
<totfact> 0.45643964E+06</totfact>
</mgrwt>
</event>
<event>
 5    1  0.7934596E-005  0.1249979E+03  0.7818608E-02  0.1235073E+00
         21   -1    0    0  502  501  0.00000000000E+00  0.00000000000E+00  0.81258813988E+02  0.81258813988E+02  0.00000000000E+00 0.  1.
         21   -1    0    0  501  502 -0.00000000000E+00 -0.00000000000E+00 -0.48070105402E+02  0.48070105402E+02  0.00000000000E+00 0.  1.
         25    2    1    2    0    0  0.00000000000E+00  0.00000000000E+00  0.33188708586E+02  0.12932891939E+03  0.12499791604E+03 0.  0.
        -13    1    3    3    0    0 -0.20765399536E+01  0.46738041740E+02 -0.26282462799E+02  0.53661304374E+02  0.10570000000E+00 0.  1.
         13    1    3    3    0    0  0.20765399536E+01 -0.46738041740E+02  0.59471171385E+02  0.75667615016E+02  0.10570000000E+00 0.  1.
<mgrwt>
<rscale>  0 0.12499792E+03</rscale>
<asrwt>0</asrwt>
<pdfrwt beam="1">  1       21 0.12501356E-01 0.12499792E+03</pdfrwt>
<pdfrwt beam="2">  1       21 0.73954008E-02 0.12499792E+03</pdfrwt>
<totfact> 0.73458653E+06</totfact>
</mgrwt>
</event>
<event>
 5    1  0.7934596E-005  0.1250006E+03  0.7818608E-02  0.1235068E+00
         21   -1    0    0  502  501  0.00000000000E+00  0.00000000000E+00  0.10910346729E+02  0.10910346729E+02  0.00000000000E+00 0. -1.
         21   -1    0    0  501  502 -0.00000000000E+00 -0.00000000000E+00 -0.35803491531E+03  0.35803491531E+03  0.00000000000E+00 0. -1.
         25    2    1    2    0    0  0.00000000000E+00  0.00000000000E+00 -0.34712456859E+03  0.36894526204E+03  0.12500056107E+03 0.  0.
        -13    1    3    3    0    0  0.59764459591E+02  0.15439531471E+02 -0.20249711902E+03  0.21169615997E+03  0.10570000000E+00 0.  1.
         13    1    3    3    0    0 -0.59764459591E+02 -0.15439531471E+02 -0.14462744956E+03  0.15724910207E+03  0.10570000000E+00 0.  1.
<mgrwt>
<rscale>  0 0.12500056E+03</rscale>
<asrwt>0</asrwt>
<pdfrwt beam="1">  1       21 0.16785150E-02 0.12500056E+03</pdfrwt>
<pdfrwt beam="2">  1       21 0.55082292E-01 0.12500056E+03</pdfrwt>
<totfact> 0.50168284E+06</totfact>
</mgrwt>
</event>
<event>
 5    1  0.7934596E-005  0.1250008E+03  0.7818608E-02  0.1235068E+00
         21   -1    0    0  502  501  0.00000000000E+00  0.00000000000E+00  0.15574800752E+03  0.15574800752E+03  0.00000000000E+00 0.  1.
         21   -1    0    0  501  502 -0.00000000000E+00 -0.00000000000E+00 -0.25080904388E+02  0.25080904388E+02  0.00000000000E+00 0.  1.
         25    2    1    2    0    0  0.00000000000E+00  0.00000000000E+00  0.13066710314E+03  0.18082891191E+03  0.12500081416E+03 0.  0.
        -13    1    3    3    0    0  0.60243490445E+02 -0.27872248032E+01  0.89070626311E+02  0.10756688341E+03  0.10570000000E+00 0. -1.
         13    1    3    3    0    0 -0.60243490445E+02  0.27872248032E+01  0.41596476826E+02  0.73262028500E+02  0.10570000000E+00 0. -1.
<mgrwt>
<rscale>  0 0.12500081E+03</rscale>
<asrwt>0</asrwt>
<pdfrwt beam="1">  1       21 0.23961231E-01 0.12500081E+03</pdfrwt>
<pdfrwt beam="2">  1       21 0.38586008E-02 0.12500081E+03</pdfrwt>
<totfact> 0.67055189E+06</totfact>
</mgrwt>
</event>
<event>
 5    1  0.7934596E-005  0.1249996E+03  0.7818608E-02  0.1235070E+00
         21   -1    0    0  502  501  0.00000000000E+00  0.00000000000E+00  0.17627972315E+03  0.17627972315E+03  0.00000000000E+00 0. -1.
         21   -1    0    0  501  502 -0.00000000000E+00 -0.00000000000E+00 -0.22159225193E+02  0.22159225193E+02  0.00000000000E+00 0. -1.
         25    2    1    2    0    0  0.00000000000E+00  0.00000000000E+00  0.15412049795E+03  0.19843894834E+03  0.12499955331E+03 0.  0.
        -13    1    3    3    0    0 -0.46461551714E+02 -0.41273759994E+02  0.87592066053E+02  0.10739916322E+03  0.10570000000E+00 0.  1.
         13    1    3    3    0    0  0.46461551714E+02  0.41273759994E+02  0.66528431901E+02  0.91039785124E+02  0.10570000000E+00 0.  1.
<mgrwt>
<rscale>  0 0.12499955E+03</rscale>
<asrwt>0</asrwt>
<pdfrwt beam="1">  1       21 0.27119957E-01 0.12499955E+03</pdfrwt>
<pdfrwt beam="2">  1       21 0.34091117E-02 0.12499955E+03</pdfrwt>
<totfact> 0.65097328E+06</totfact>
</mgrwt>
</event>
<event>
 5    1  0.7934596E-005  0.1250022E+03  0.7818608E-02  0.1235066E+00
         21   -1    0    0  502  501  0.00000000000E+00  0.00000000000E+00  0.16536615331E+03  0.16536615331E+03  0.00000000000E+00 0.  1.
         21   -1    0    0  501  502 -0.00000000000E+00 -0.00000000000E+00 -0.23622641027E+02  0.23622641027E+02  0.00000000000E+00 0.  1.
         25    2    1    2    0    0  0.00000000000E+00  0.00000000000E+00  0.14174351228E+03  0.18898879434E+03  0.12500216442E+03 0.  0.
        -13    1    3    3    0    0  0.24003998388E+02 -0.41571352124E+02  0.10358512222E+02  0.49108850566E+02  0.10570000000E+00 0.  1.
         13    1    3    3    0    0 -0.24003998388E+02  0.41571352124E+02  0.13138500006E+03  0.13987994377E+03  0.10570000000E+00 0.  1.
<mgrwt>
<rscale>  0 0.12500216E+03</rscale>
<asrwt>0</asrwt>
<pdfrwt beam="1">  1       21 0.25440946E-01 0.12500216E+03</pdfrwt>
<pdfrwt beam="2">  1       21 0.36342526E-02 0.12500216E+03</pdfrwt>
<totfact> 0.66131399E+06</totfact>
</mgrwt>
</event>
<event>
 5    1  0.7934596E-005  0.1249992E+03  0.7818608E-02  0.1235070E+00
         21   -1    0    0  502  501  0.00000000000E+00  0.00000000000E+00  0.15992179511E+03  0.15992179511E+03  0.00000000000E+00 0.  1.
         21   -1    0    0  501  502 -0.00000000000E+00 -0.00000000000E+00 -0.24425697348E+02  0.24425697348E+02  0.00000000000E+00 0.  1.
         25    2    1    2    0    0  0.00000000000E+00  0.00000000000E+00  0.13549609776E+03  0.18434749246E+03  0.12499922186E+03 0.  0.
        -13    1    3    3    0    0 -0.16270228938E+02 -0.57722098953E+02  0.41797243766E+02  0.73099807224E+02  0.10570000000E+00 0. -1.
         13    1    3    3    0    0  0.16270228938E+02  0.57722098953E+02  0.93698853996E+02  0.11124768523E+03  0.10570000000E+00 0. -1.
<mgrwt>
<rscale>  0 0.12499922E+03</rscale>
<asrwt>0</asrwt>
<pdfrwt beam="1">  1       21 0.24603352E-01 0.12499922E+03</pdfrwt>
<pdfrwt beam="2">  1       21 0.37577997E-02 0.12499922E+03</pdfrwt>
<totfact> 0.66657587E+06</totfact>
</mgrwt>
</event>
<event>
 5    1  0.7934596E-005  0.1249992E+03  0.7818608E-02  0.1235070E+00
         21   -1    0    0  502  501  0.00000000000E+00  0.00000000000E+00  0.28224797656E+03  0.28224797656E+03  0.00000000000E+00 0. -1.
         21   -1    0    0  501  502 -0.00000000000E+00 -0.00000000000E+00 -0.13839613664E+02  0.13839613664E+02  0.00000000000E+00 0. -1.
         25    2    1    2    0    0  0.00000000000E+00  0.00000000000E+00  0.26840836290E+03  0.29608759022E+03  0.12499924724E+03 0.  0.
        -13    1    3    3    0    0 -0.51467386005E+02 -0.30434353106E+02  0.17730243536E+03  0.18711308460E+03  0.10570000000E+00 0.  1.
         13    1    3    3    0    0  0.51467386005E+02  0.30434353106E+02  0.91105927532E+02  0.10897450562E+03  0.10570000000E+00 0.  1.
<mgrwt>
<rscale>  0 0.12499925E+03</rscale>
<asrwt>0</asrwt>
<pdfrwt beam="1">  1       21 0.43422761E-01 0.12499925E+03</pdfrwt>
<pdfrwt beam="2">  1       21 0.21291715E-02 0.12499925E+03</pdfrwt>
<totfact> 0.55783942E+06</totfact>
</mgrwt>
</event>
<event>
 5    1  0.7934596E-005  0.1249997E+03  0.7818608E-02  0.1235070E+00
         21   -1    0    0  502  501  0.00000000000E+00  0.00000000000E+00  0.96665399462E+01  0.96665399462E+01  0.00000000000E+00 0. -1.
         21   -1    0    0  501  502 -0.00000000000E+00 -0.00000000000E+00 -0.40409826673E+03  0.40409826673E+03  0.00000000000E+00 0. -1.
         25    2    1    2    0    0  0.00000000000E+00  0.00000000000E+00 -0.39443172679E+03  0.41376480668E+03  0.12499971260E+03 0.  0.
        -13    1    3    3    0    0 -0.31993028735E+02  0.51780864235E+02 -0.24419273080E+03  0.25166428578E+03  0.10570000000E+00 0.  1.
         13    1    3    3    0    0  0.31993028735E+02 -0.51780864235E+02 -0.15023899599E+03  0.16210052090E+03  0.10570000000E+00 0.  1.
<mgrwt>
<rscale>  0 0.12499971E+03</rscale>
<asrwt>0</asrwt>
<pdfrwt beam="1">  1       21 0.14871597E-02 0.12499971E+03</pdfrwt>
<pdfrwt beam="2">  1       21 0.62168978E-01 0.12499971E+03</pdfrwt>
<totfact> 0.47141882E+06</totfact>
</mgrwt>
</event>
<event>
 5    1  0.7934596E-005  0.1250001E+03  0.7818608E-02  0.1235069E+00
         21   -1    0    0  502  501  0.00000000000E+00  0.00000000000E+00  0.12939285345E+03  0.12939285345E+03  0.00000000000E+00 0. -1.
         21   -1    0    0  501  502 -0.00000000000E+00 -0.00000000000E+00 -0.30189106232E+02  0.30189106232E+02  0.00000000000E+00 0. -1.
         25    2    1    2    0    0  0.00000000000E+00  0.00000000000E+00  0.99203747218E+02  0.15958195968E+03  0.12500007358E+03 0.  0.
        -13    1    3    3    0    0  0.24411316546E+02  0.92870208773E+01  0.12209162070E+03  0.12485405941E+03  0.10570000000E+00 0. -1.
         13    1    3    3    0    0 -0.24411316546E+02 -0.92870208773E+01 -0.22887873486E+02  0.34727900274E+02  0.10570000000E+00 0. -1.
<mgrwt>
<rscale>  0 0.12500007E+03</rscale>
<asrwt>0</asrwt>
<pdfrwt beam="1">  1       21 0.19906593E-01 0.12500007E+03</pdfrwt>
<pdfrwt beam="2">  1       21 0.46444780E-02 0.12500007E+03</pdfrwt>
<totfact> 0.69570482E+06</totfact>
</mgrwt>
</event>
<event>
 5    1  0.7934596E-005  0.1250038E+03  0.7818608E-02  0.1235063E+00
         21   -1    0    0  502  501  0.00000000000E+00  0.00000000000E+00  0.28022236297E+03  0.28022236297E+03  0.00000000000E+00 0.  1.
         21   -1    0    0  501  502 -0.00000000000E+00 -0.00000000000E+00 -0.13940675121E+02  0.13940675121E+02  0.00000000000E+00 0.  1.
         25    2    1    2    0    0  0.00000000000E+00  0.00000000000E+00  0.26628168785E+03  0.29416303810E+03  0.12500382273E+03 0.  0.
        -13    1    3    3    0    0 -0.35192440712E+02 -0.29483542083E+02  0.33337971201E+02  0.56738158529E+02  0.10570000000E+00 0.  1.
         13    1    3    3    0    0  0.35192440712E+02  0.29483542083E+02  0.23294371665E+03  0.23742487957E+03  0.10570000000E+00 0.  1.
<mgrwt>
<rscale>  0 0.12500382E+03</rscale>
<asrwt>0</asrwt>
<pdfrwt beam="1">  1       21 0.43111128E-01 0.12500382E+03</pdfrwt>
<pdfrwt beam="2">  1       21 0.21447195E-02 0.12500382E+03</pdfrwt>
<totfact> 0.55939390E+06</totfact>
</mgrwt>
</event>
<event>
 5    1  0.7934596E-005  0.1249988E+03  0.7818608E-02  0.1235071E+00
         21   -1    0    0  502  501  0.00000000000E+00  0.00000000000E+00  0.35909191326E+02  0.35909191326E+02  0.00000000000E+00 0.  1.
         21   -1    0    0  501  502 -0.00000000000E+00 -0.00000000000E+00 -0.10877931543E+03  0.10877931543E+03  0.00000000000E+00 0.  1.
         25    2    1    2    0    0  0.00000000000E+00  0.00000000000E+00 -0.72870124107E+02  0.14468850676E+03  0.12499883600E+03 0.  0.
        -13    1    3    3    0    0  0.19094103947E+02  0.55948128779E+02 -0.59912676105E+02  0.84168389851E+02  0.10570000000E+00 0.  1.
         13    1    3    3    0    0 -0.19094103947E+02 -0.55948128779E+02 -0.12957448001E+02  0.60520116909E+02  0.10570000000E+00 0.  1.
<mgrwt>
<rscale>  0 0.12499884E+03</rscale>
<asrwt>0</asrwt>
<pdfrwt beam="1">  1       21 0.55244911E-02 0.12499884E+03</pdfrwt>
<pdfrwt beam="2">  1       21 0.16735279E-01 0.12499884E+03</pdfrwt>
<totfact> 0.71435104E+06</totfact>
</mgrwt>
</event>
<event>
 5    1  0.7934596E-005  0.1249997E+03  0.7818608E-02  0.1235070E+00
         21   -1    0    0  502  501  0.00000000000E+00  0.00000000000E+00  0.95999182861E+02  0.95999182861E+02  0.00000000000E+00 0. -1.
         21   -1    0    0  501  502 -0.00000000000E+00 -0.00000000000E+00 -0.40690238405E+02  0.40690238405E+02  0.00000000000E+00 0. -1.
         25    2    1    2    0    0  0.00000000000E+00  0.00000000000E+00  0.55308944456E+02  0.13668942127E+03  0.12499967420E+03 0.  0.
        -13    1    3    3    0    0 -0.32158768408E+02  0.22519015391E+02  0.80832815604E+02  0.89862381955E+02  0.10570000000E+00 0.  1.
         13    1    3    3    0    0  0.32158768408E+02 -0.22519015391E+02 -0.25523871148E+02  0.46827039311E+02  0.10570000000E+00 0.  1.
<mgrwt>
<rscale>  0 0.12499967E+03</rscale>
<asrwt>0</asrwt>
<pdfrwt beam="1">  1       21 0.14769105E-01 0.12499967E+03</pdfrwt>
<pdfrwt beam="2">  1       21 0.62600367E-02 0.12499967E+03</pdfrwt>
<totfact> 0.72474148E+06</totfact>
</mgrwt>
</event>
<event>
 5    1  0.7934596E-005  0.1250007E+03  0.7818608E-02  0.1235068E+00
         21   -1    0    0  502  501  0.00000000000E+00  0.00000000000E+00  0.12039334805E+03  0.12039334805E+03  0.00000000000E+00 0. -1.
         21   -1    0    0  501  502 -0.00000000000E+00 -0.00000000000E+00 -0.32446070769E+02  0.32446070769E+02  0.00000000000E+00 0. -1.
         25    2    1    2    0    0  0.00000000000E+00  0.00000000000E+00  0.87947277286E+02  0.15283941882E+03  0.12500065745E+03 0.  0.
        -13    1    3    3    0    0 -0.56729572292E+02 -0.26221771478E+02  0.43149559471E+02  0.75945515515E+02  0.10570000000E+00 0. -1.
         13    1    3    3    0    0  0.56729572292E+02  0.26221771478E+02  0.44797717815E+02  0.76893903307E+02  0.10570000000E+00 0. -1.
<mgrwt>
<rscale>  0 0.12500066E+03</rscale>
<asrwt>0</asrwt>
<pdfrwt beam="1">  1       21 0.18522053E-01 0.12500066E+03</pdfrwt>
<pdfrwt beam="2">  1       21 0.49917033E-02 0.12500066E+03</pdfrwt>
<totfact> 0.70403136E+06</totfact>
</mgrwt>
</event>
<event>
 5    1  0.7934596E-005  0.1250003E+03  0.7818608E-02  0.1235069E+00
         21   -1    0    0  502  501  0.00000000000E+00  0.00000000000E+00  0.31472540604E+03  0.31472540604E+03  0.00000000000E+00 0. -1.
         21   -1    0    0  501  502 -0.00000000000E+00 -0.00000000000E+00 -0.12411674413E+02  0.12411674413E+02  0.00000000000E+00 0. -1.
         25    2    1    2    0    0  0.00000000000E+00  0.00000000000E+00  0.30231373163E+03  0.32713708046E+03  0.12500030831E+03 0.  0.
        -13    1    3    3    0    0 -0.45718310345E+02  0.41170402154E+02  0.17995582172E+03  0.19018221488E+03  0.10570000000E+00 0. -1.
         13    1    3    3    0    0  0.45718310345E+02 -0.41170402154E+02  0.12235790991E+03  0.13695486558E+03  0.10570000000E+00 0. -1.
<mgrwt>
<rscale>  0 0.12500031E+03</rscale>
<asrwt>0</asrwt>
<pdfrwt beam="1">  1       21 0.48419287E-01 0.12500031E+03</pdfrwt>
<pdfrwt beam="2">  1       21 0.19094886E-02 0.12500031E+03</pdfrwt>
<totfact> 0.53272159E+06</totfact>
</mgrwt>
</event>
<event>
 4    1  0.7934596E-005  0.1250672E+03  0.7818608E-02  0.1234964E+00
         21   -1    0    0  502  501  0.00000000000E+00  0.00000000000E+00  0.11482559492E+03  0.11482559492E+03  0.00000000000E+00 0.  1.
         21   -1    0    0  501  502 -0.00000000000E+00 -0.00000000000E+00 -0.34055574041E+02  0.34055574041E+02  0.00000000000E+00 0.  1.
        -13    1    1    2    0    0 -0.20522872746E+02 -0.28148586200E+02 -0.21435057698E+02  0.40902372569E+02  0.10570000000E+00 0.  1.
         13    1    1    2    0    0  0.20522872746E+02  0.28148586200E+02  0.10220507858E+03  0.10797879639E+03  0.10570000000E+00 0.  1.
<mgrwt>
<rscale>  0 0.12506721E+03</rscale>
<asrwt>0</asrwt>
<pdfrwt beam="1">  1       21 0.17665476E-01 0.12506721E+03</pdfrwt>
<pdfrwt beam="2">  1       21 0.52393191E-02 0.12506721E+03</pdfrwt>
<totfact> 0.70778857E+06</totfact>
</mgrwt>
</event>
<event>
 5    1  0.7934596E-005  0.1249999E+03  0.7818608E-02  0.1235069E+00
         21   -1    0    0  502  501  0.00000000000E+00  0.00000000000E+00  0.13662605989E+02  0.13662605989E+02  0.00000000000E+00 0.  1.
         21   -1    0    0  501  502 -0.00000000000E+00 -0.00000000000E+00 -0.28590781771E+03  0.28590781771E+03  0.00000000000E+00 0.  1.
         25    2    1    2    0    0  0.00000000000E+00  0.00000000000E+00 -0.27224521172E+03  0.29957042370E+03  0.12499993380E+03 0.  0.
        -13    1    3    3    0    0  0.31420232548E+02  0.54021186949E+02 -0.13409607336E+03  0.14794352881E+03  0.10570000000E+00 0.  1.
         13    1    3    3    0    0 -0.31420232548E+02 -0.54021186949E+02 -0.13814913836E+03  0.15162689489E+03  0.10570000000E+00 0.  1.
<mgrwt>
<rscale>  0 0.12499993E+03</rscale>
<asrwt>0</asrwt>
<pdfrwt beam="1">  1       21 0.21019395E-02 0.12499993E+03</pdfrwt>
<pdfrwt beam="2">  1       21 0.43985817E-01 0.12499993E+03</pdfrwt>
<totfact> 0.55491985E+06</totfact>
</mgrwt>
</event>
<event>
 5    1  0.7934596E-005  0.1249969E+03  0.7818608E-02  0.1235074E+00
         21   -1    0    0  502  501  0.00000000000E+00  0.00000000000E+00  0.11384722475E+03  0.11384722475E+03  0.00000000000E+00 0. -1.
         21   -1    0    0  501  502 -0.00000000000E+00 -0.00000000000E+00 -0.34309606398E+02  0.34309606398E+02  0.00000000000E+00 0. -1.
         25    2    1    2    0    0  0.00000000000E+00  0.00000000000E+00  0.79537618353E+02  0.14815683115E+03  0.12499685549E+03 0.  0.
        -13    1    3    3    0    0 -0.33523462704E+02  0.12691949565E+02 -0.20914215315E+02  0.41500888065E+02  0.10570000000E+00 0.  1.
         13    1    3    3    0    0  0.33523462704E+02 -0.12691949565E+02  0.10045183367E+03  0.10665594308E+03  0.10570000000E+00 0.  1.
<mgrwt>
<rscale>  0 0.12499686E+03</rscale>
<asrwt>0</asrwt>
<pdfrwt beam="1">  1       21 0.17514958E-01 0.12499686E+03</pdfrwt>
<pdfrwt beam="2">  1       21 0.52784010E-02 0.12499686E+03</pdfrwt>
<totfact> 0.70997195E+06</totfact>
</mgrwt>
</event>
<event>
 5    1  0.7934596E-005  0.1249970E+03  0.7818608E-02  0.1235074E+00
         21   -1    0    0  502  501  0.00000000000E+00  0.00000000000E+00  0.70850364126E+02  0.70850364126E+02  0.00000000000E+00 0. -1.
         21   -1    0    0  501  502 -0.00000000000E+00 -0.00000000000E+00 -0.55131121808E+02  0.55131121808E+02  0.00000000000E+00 0. -1.
         25    2    1    2    0    0  0.00000000000E+00  0.00000000000E+00  0.15719242318E+02  0.12598148593E+03  0.12499696084E+03 0.  0.
        -13    1    3    3    0    0 -0.46747122440E+02  0.14170062597E+02  0.47153421229E+02  0.67893596432E+02  0.10570000000E+00 0.  1.
         13    1    3    3    0    0  0.46747122440E+02 -0.14170062597E+02 -0.31434178911E+02  0.58087889501E+02  0.10570000000E+00 0.  1.
<mgrwt>
<rscale>  0 0.12499696E+03</rscale>
<asrwt>0</asrwt>
<pdfrwt beam="1">  1       21 0.10900056E-01 0.12499696E+03</pdfrwt>
<pdfrwt beam="2">  1       21 0.84817110E-02 0.12499696E+03</pdfrwt>
<totfact> 0.73914322E+06</totfact>
</mgrwt>
</event>
<event>
 5    1  0.7934596E-005  0.1250013E+03  0.7818608E-02  0.1235067E+00
         21   -1    0    0  502  501  0.00000000000E+00  0.00000000000E+00  0.29533929307E+02  0.29533929307E+02  0.00000000000E+00 0.  1.
         21   -1    0    0  501  502 -0.00000000000E+00 -0.00000000000E+00 -0.13226588118E+03  0.13226588118E+03  0.00000000000E+00 0.  1.
         25    2    1    2    0    0  0.00000000000E+00  0.00000000000E+00 -0.10273195187E+03  0.16179981048E+03  0.12500129894E+03 0.  0.
        -13    1    3    3    0    0  0.26796458925E+02 -0.29247308233E+02  0.11152482995E+02  0.41204906252E+02  0.10570000000E+00 0. -1.
         13    1    3    3    0    0 -0.26796458925E+02  0.29247308233E+02 -0.11388443487E+03  0.12059490423E+03  0.10570000000E+00 0. -1.
<mgrwt>
<rscale>  0 0.12500130E+03</rscale>
<asrwt>0</asrwt>
<pdfrwt beam="1">  1       21 0.45436813E-02 0.12500130E+03</pdfrwt>
<pdfrwt beam="2">  1       21 0.20348597E-01 0.12500130E+03</pdfrwt>
<totfact> 0.69297956E+06</totfact>
</mgrwt>
</event>
<event>
 4    1  0.7934596E-005  0.1251875E+03  0.7818608E-02  0.1234777E+00
         21   -1    0    0  502  501  0.00000000000E+00  0.00000000000E+00  0.25815798844E+02  0.25815798844E+02  0.00000000000E+00 0. -1.
         21   -1    0    0  501  502 -0.00000000000E+00 -0.00000000000E+00 -0.15176662356E+03  0.15176662356E+03  0.00000000000E+00 0. -1.
        -13    1    1    2    0    0 -0.57027219623E+02 -0.96257644186E+01 -0.96937513452E+02  0.11287892543E+03  0.10570000000E+00 0. -1.
         13    1    1    2    0    0  0.57027219623E+02  0.96257644186E+01 -0.29013311269E+02  0.64703496983E+02  0.10570000000E+00 0. -1.
<mgrwt>
<rscale>  0 0.12518749E+03</rscale>
<asrwt>0</asrwt>
<pdfrwt beam="1">  1       21 0.39716613E-02 0.12518749E+03</pdfrwt>
<pdfrwt beam="2">  1       21 0.23348711E-01 0.12518749E+03</pdfrwt>
<totfact> 0.67110216E+06</totfact>
</mgrwt>
</event>
<event>
 5    1  0.7934596E-005  0.1249974E+03  0.7818608E-02  0.1235073E+00
         21   -1    0    0  502  501  0.00000000000E+00  0.00000000000E+00  0.21360062385E+02  0.21360062385E+02  0.00000000000E+00 0. -1.
         21   -1    0    0  501  502 -0.00000000000E+00 -0.00000000000E+00 -0.18286864173E+03  0.18286864173E+03  0.00000000000E+00 0. -1.
         25    2    1    2    0    0  0.00000000000E+00  0.00000000000E+00 -0.16150857935E+03  0.20422870412E+03  0.12499736950E+03 0.  0.
        -13    1    3    3    0    0 -0.46408457745E+02  0.39252745295E+02 -0.10451852920E+03  0.12090763864E+03  0.10570000000E+00 0.  1.
         13    1    3    3    0    0  0.46408457745E+02 -0.39252745295E+02 -0.56990050150E+02  0.83321065476E+02  0.10570000000E+00 0.  1.
<mgrwt>
<rscale>  0 0.12499737E+03</rscale>
<asrwt>0</asrwt>
<pdfrwt beam="1">  1       21 0.32861635E-02 0.12499737E+03</pdfrwt>
<pdfrwt beam="2">  1       21 0.28133637E-01 0.12499737E+03</pdfrwt>
<totfact> 0.64476196E+06</totfact>
</mgrwt>
</event>
<event>
 5    1  0.7934596E-005  0.1249988E+03  0.7818608E-02  0.1235071E+00
         21   -1    0    0  502  501  0.00000000000E+00  0.00000000000E+00  0.14477679895E+03  0.14477679895E+03  0.00000000000E+00 0.  1.
         21   -1    0    0  501  502 -0.00000000000E+00 -0.00000000000E+00 -0.26980683699E+02  0.26980683699E+02  0.00000000000E+00 0.  1.
         25    2    1    2    0    0  0.00000000000E+00  0.00000000000E+00  0.11779611525E+03  0.17175748265E+03  0.12499883231E+03 0.  0.
        -13    1    3    3    0    0 -0.47564739467E+02  0.10770945815E+02  0.51904767567E+01  0.49044570910E+02  0.10570000000E+00 0. -1.
         13    1    3    3    0    0  0.47564739467E+02 -0.10770945815E+02  0.11260563850E+03  0.12271291174E+03  0.10570000000E+00 0. -1.
<mgrwt>
<rscale>  0 0.12499883E+03</rscale>
<asrwt>0</asrwt>
<pdfrwt beam="1">  1       21 0.22273353E-01 0.12499883E+03</pdfrwt>
<pdfrwt beam="2">  1       21 0.41508745E-02 0.12499883E+03</pdfrwt>
<totfact> 0.68111923E+06</totfact>
</mgrwt>
</event>
<event>
 5    1  0.7934596E-005  0.1249979E+03  0.7818608E-02  0.1235073E+00
         21   -1    0    0  502  501  0.00000000000E+00  0.00000000000E+00  0.14408897666E+03  0.14408897666E+03  0.00000000000E+00 0. -1.
         21   -1    0    0  501  502 -0.00000000000E+00 -0.00000000000E+00 -0.27109056559E+02  0.27109056559E+02  0.00000000000E+00 0. -1.
         25    2    1    2    0    0  0.00000000000E+00  0.00000000000E+00  0.11697992010E+03  0.17119803322E+03  0.12499785947E+03 0.  0.
        -13    1    3    3    0    0 -0.37919725110E+02 -0.19266411503E+02  0.12120849654E+03  0.12845470397E+03  0.10570000000E+00 0. -1.
         13    1    3    3    0    0  0.37919725110E+02  0.19266411503E+02 -0.42285764384E+01  0.42743329255E+02  0.10570000000E+00 0. -1.
<mgrwt>
<rscale>  0 0.12499786E+03</rscale>
<asrwt>0</asrwt>
<pdfrwt beam="1">  1       21 0.22167534E-01 0.12499786E+03</pdfrwt>
<pdfrwt beam="2">  1       21 0.41706242E-02 0.12499786E+03</pdfrwt>
<totfact> 0.68179603E+06</totfact>
</mgrwt>
</event>
<event>
 5    1  0.7934596E-005  0.1249993E+03  0.7818608E-02  0.1235070E+00
         21   -1    0    0  502  501  0.00000000000E+00  0.00000000000E+00  0.41748424576E+02  0.41748424576E+02  0.00000000000E+00 0.  1.
         21   -1    0    0  501  502 -0.00000000000E+00 -0.00000000000E+00 -0.93565311671E+02  0.93565311671E+02  0.00000000000E+00 0.  1.
         25    2    1    2    0    0  0.00000000000E+00  0.00000000000E+00 -0.51816887095E+02  0.13531373625E+03  0.12499926971E+03 0.  0.
        -13    1    3    3    0    0  0.55815629074E+02  0.19488320494E+02 -0.47854817277E+02  0.76060987330E+02  0.10570000000E+00 0. -1.
         13    1    3    3    0    0 -0.55815629074E+02 -0.19488320494E+02 -0.39620698179E+01  0.59252748917E+02  0.10570000000E+00 0. -1.
<mgrwt>
<rscale>  0 0.12499927E+03</rscale>
<asrwt>0</asrwt>
<pdfrwt beam="1">  1       21 0.64228345E-02 0.12499927E+03</pdfrwt>
<pdfrwt beam="2">  1       21 0.14394663E-01 0.12499927E+03</pdfrwt>
<totfact> 0.72656311E+06</totfact>
</mgrwt>
</event>
<event>
 5    1  0.7934596E-005  0.1249993E+03  0.7818608E-02  0.1235070E+00
         21   -1    0    0  502  501  0.00000000000E+00  0.00000000000E+00  0.22278291932E+03  0.22278291932E+03  0.00000000000E+00 0.  1.
         21   -1    0    0  501  502 -0.00000000000E+00 -0.00000000000E+00 -0.17533698208E+02  0.17533698208E+02  0.00000000000E+00 0.  1.
         25    2    1    2    0    0  0.00000000000E+00  0.00000000000E+00  0.20524922111E+03  0.24031661753E+03  0.12499933557E+03 0.  0.
        -13    1    3    3    0    0 -0.38800796542E+02  0.33581686890E+02  0.17121834773E+03  0.17874273489E+03  0.10570000000E+00 0. -1.
         13    1    3    3    0    0  0.38800796542E+02 -0.33581686890E+02  0.34030873385E+02  0.61573882634E+02  0.10570000000E+00 0. -1.
<mgrwt>
<rscale>  0 0.12499934E+03</rscale>
<asrwt>0</asrwt>
<pdfrwt beam="1">  1       21 0.34274293E-01 0.12499934E+03</pdfrwt>
<pdfrwt beam="2">  1       21 0.26974922E-02 0.12499934E+03</pdfrwt>
<totfact> 0.60803058E+06</totfact>
</mgrwt>
</event>
<event>
 5    1  0.7934596E-005  0.1249946E+03  0.7818608E-02  0.1235078E+00
         21   -1    0    0  502  501  0.00000000000E+00  0.00000000000E+00  0.12648825023E+03  0.12648825023E+03  0.00000000000E+00 0. -1.
         21   -1    0    0  501  502 -0.00000000000E+00 -0.00000000000E+00 -0.30879648507E+02  0.30879648507E+02  0.00000000000E+00 0. -1.
         25    2    1    2    0    0  0.00000000000E+00  0.00000000000E+00  0.95608601723E+02  0.15736789874E+03  0.12499460320E+03 0.  0.
        -13    1    3    3    0    0  0.52383264078E+02  0.33819221043E+02  0.53168792860E+02  0.81943137443E+02  0.10570000000E+00 0. -1.
         13    1    3    3    0    0 -0.52383264078E+02 -0.33819221043E+02  0.42439808864E+02  0.75424761294E+02  0.10570000000E+00 0. -1.
<mgrwt>
<rscale>  0 0.12499460E+03</rscale>
<asrwt>0</asrwt>
<pdfrwt beam="1">  1       21 0.19459731E-01 0.12499460E+03</pdfrwt>
<pdfrwt beam="2">  1       21 0.47507152E-02 0.12499460E+03</pdfrwt>
<totfact> 0.69852135E+06</totfact>
</mgrwt>
</event>
<event>
 5    1  0.7934596E-005  0.1249983E+03  0.7818608E-02  0.1235072E+00
         21   -1    0    0  502  501  0.00000000000E+00  0.00000000000E+00  0.57343124895E+02  0.57343124895E+02  0.00000000000E+00 0. -1.
         21   -1    0    0  501  502 -0.00000000000E+00 -0.00000000000E+00 -0.68118831160E+02  0.68118831160E+02  0.00000000000E+00 0. -1.
         25    2    1    2    0    0  0.00000000000E+00  0.00000000000E+00 -0.10775706265E+02  0.12546195605E+03  0.12499834628E+03 0.  0.
        -13    1    3    3    0    0 -0.27377798178E+02  0.32297595237E+02  0.40755005132E+02  0.58767849263E+02  0.10570000000E+00 0.  1.
         13    1    3    3    0    0  0.27377798178E+02 -0.32297595237E+02 -0.51530711397E+02  0.66694106792E+02  0.10570000000E+00 0.  1.
<mgrwt>
<rscale>  0 0.12499835E+03</rscale>
<asrwt>0</asrwt>
<pdfrwt beam="1">  1       21 0.88220193E-02 0.12499835E+03</pdfrwt>
<pdfrwt beam="2">  1       21 0.10479820E-01 0.12499835E+03</pdfrwt>
<totfact> 0.73983839E+06</totfact>
</mgrwt>
</event>
<event>
 5    1  0.7934596E-005  0.1249993E+03  0.7818608E-02  0.1235070E+00
         21   -1    0    0  502  501  0.00000000000E+00  0.00000000000E+00  0.15026690134E+03  0.15026690134E+03  0.00000000000E+00 0.  1.
         21   -1    0    0  501  502 -0.00000000000E+00 -0.00000000000E+00 -0.25995115490E+02  0.25995115490E+02  0.00000000000E+00 0.  1.
         25    2    1    2    0    0  0.00000000000E+00  0.00000000000E+00  0.12427178585E+03  0.17626201683E+03  0.12499928727E+03 0.  0.
        -13    1    3    3    0    0  0.43364228633E+02  0.37965944036E+02  0.28049703661E+02  0.64098878925E+02  0.10570000000E+00 0. -1.
         13    1    3    3    0    0 -0.43364228633E+02 -0.37965944036E+02  0.96222082187E+02  0.11216313790E+03  0.10570000000E+00 0. -1.
<mgrwt>
<rscale>  0 0.12499929E+03</rscale>
<asrwt>0</asrwt>
<pdfrwt beam="1">  1       21 0.23117984E-01 0.12499929E+03</pdfrwt>
<pdfrwt beam="2">  1       21 0.39992486E-02 0.12499929E+03</pdfrwt>
<totfact> 0.67584177E+06</totfact>
</mgrwt>
</event>
<event>
 5    1  0.7934596E-005  0.1249984E+03  0.7818608E-02  0.1235072E+00
         21   -1    0    0  502  501  0.00000000000E+00  0.00000000000E+00  0.22886864298E+02  0.22886864298E+02  0.00000000000E+00 0. -1.
         21   -1    0    0  501  502 -0.00000000000E+00 -0.00000000000E+00 -0.17067210220E+03  0.17067210220E+03  0.00000000000E+00 0. -1.
         25    2    1    2    0    0  0.00000000000E+00  0.00000000000E+00 -0.14778523791E+03  0.19355896650E+03  0.12499838787E+03 0.  0.
        -13    1    3    3    0    0 -0.43916106730E+02  0.35502228962E+01 -0.14253307578E+03  0.14918752419E+03  0.10570000000E+00 0.  1.
         13    1    3    3    0    0  0.43916106730E+02 -0.35502228962E+01 -0.52521621314E+01  0.44371442308E+02  0.10570000000E+00 0.  1.
<mgrwt>
<rscale>  0 0.12499839E+03</rscale>
<asrwt>0</asrwt>
<pdfrwt beam="1">  1       21 0.35210562E-02 0.12499839E+03</pdfrwt>
<pdfrwt beam="2">  1       21 0.26257246E-01 0.12499839E+03</pdfrwt>
<totfact> 0.65631766E+06</totfact>
</mgrwt>
</event>
<event>
 5    1  0.7934596E-005  0.1250019E+03  0.7818608E-02  0.1235066E+00
         21   -1    0    0  502  501  0.00000000000E+00  0.00000000000E+00  0.64769468163E+02  0.64769468163E+02  0.00000000000E+00 0.  1.
         21   -1    0    0  501  502 -0.00000000000E+00 -0.00000000000E+00 -0.60311923421E+02  0.60311923421E+02  0.00000000000E+00 0.  1.
         25    2    1    2    0    0  0.00000000000E+00  0.00000000000E+00  0.44575447424E+01  0.12508139158E+03  0.12500193925E+03 0.  0.
        -13    1    3    3    0    0  0.26281921785E+02  0.70563750931E+01 -0.54072683426E+02  0.60534272174E+02  0.10570000000E+00 0.  1.
         13    1    3    3    0    0 -0.26281921785E+02 -0.70563750931E+01  0.58530228169E+02  0.64547119410E+02  0.10570000000E+00 0.  1.
<mgrwt>
<rscale>  0 0.12500194E+03</rscale>
<asrwt>0</asrwt>
<pdfrwt beam="1">  1       21 0.99645336E-02 0.12500194E+03</pdfrwt>
<pdfrwt beam="2">  1       21 0.92787574E-02 0.12500194E+03</pdfrwt>
<totfact> 0.74028918E+06</totfact>
</mgrwt>
</event>
<event>
 5    1  0.7934596E-005  0.1249977E+03  0.7818608E-02  0.1235073E+00
         21   -1    0    0  502  501  0.00000000000E+00  0.00000000000E+00  0.10431911187E+03  0.10431911187E+03  0.00000000000E+00 0. -1.
         21   -1    0    0  501  502 -0.00000000000E+00 -0.00000000000E+00 -0.37443830424E+02  0.37443830424E+02  0.00000000000E+00 0. -1.
         25    2    1    2    0    0  0.00000000000E+00  0.00000000000E+00  0.66875281443E+02  0.14176294229E+03  0.12499771414E+03 0.  0.
        -13    1    3    3    0    0  0.58947610772E+02 -0.18586062220E+02  0.43944886737E+02  0.75838161682E+02  0.10570000000E+00 0. -1.
         13    1    3    3    0    0 -0.58947610772E+02  0.18586062220E+02  0.22930394706E+02  0.65924780609E+02  0.10570000000E+00 0. -1.
<mgrwt>
<rscale>  0 0.12499771E+03</rscale>
<asrwt>0</asrwt>
<pdfrwt beam="1">  1       21 0.16049094E-01 0.12499771E+03</pdfrwt>
<pdfrwt beam="2">  1       21 0.57605893E-02 0.12499771E+03</pdfrwt>
<totfact> 0.71814169E+06</totfact>
</mgrwt>
</event>
<event>
 5    1  0.7934596E-005  0.1249973E+03  0.7818608E-02  0.1235074E+00
         21   -1    0    0  502  501  0.00000000000E+00  0.00000000000E+00  0.10013429165E+02  0.10013429165E+02  0.00000000000E+00 0. -1.
         21   -1    0    0  501  502 -0.00000000000E+00 -0.00000000000E+00 -0.39008398751E+03  0.39008398751E+03  0.00000000000E+00 0. -1.
         25    2    1    2    0    0  0.00000000000E+00  0.00000000000E+00 -0.38007055835E+03  0.40009741668E+03  0.12499725400E+03 0.  0.
        -13    1    3    3    0    0  0.45168150767E+02  0.40667813359E+02 -0.14342643284E+03  0.15577286573E+03  0.10570000000E+00 0. -1.
         13    1    3    3    0    0 -0.45168150767E+02 -0.40667813359E+02 -0.23664412551E+03  0.24432455095E+03  0.10570000000E+00 0. -1.
<mgrwt>
<rscale>  0 0.12499725E+03</rscale>
<asrwt>0</asrwt>
<pdfrwt beam="1">  1       21 0.15405275E-02 0.12499725E+03</pdfrwt>
<pdfrwt beam="2">  1       21 0.60012923E-01 0.12499725E+03</pdfrwt>
<totfact> 0.48038186E+06</totfact>
</mgrwt>
</event>
<event>
 5    1  0.7934596E-005  0.1249957E+03  0.7818608E-02  0.1235076E+00
         21   -1    0    0  502  501  0.00000000000E+00  0.00000000000E+00  0.97507711795E+02  0.97507711795E+02  0.00000000000E+00 0. -1.
         21   -1    0    0  501  502 -0.00000000000E+00 -0.00000000000E+00 -0.40058200944E+02  0.40058200944E+02  0.00000000000E+00 0. -1.
         25    2    1    2    0    0  0.00000000000E+00  0.00000000000E+00  0.57449510851E+02  0.13756591274E+03  0.12499573613E+03 0.  0.
        -13    1    3    3    0    0  0.50636385072E+02  0.65865404364E+01  0.68383992954E+02  0.85345226421E+02  0.10570000000E+00 0.  1.
         13    1    3    3    0    0 -0.50636385072E+02 -0.65865404364E+01 -0.10934482103E+02  0.52220686317E+02  0.10570000000E+00 0.  1.
<mgrwt>
<rscale>  0 0.12499574E+03</rscale>
<asrwt>0</asrwt>
<pdfrwt beam="1">  1       21 0.15001186E-01 0.12499574E+03</pdfrwt>
<pdfrwt beam="2">  1       21 0.61628002E-02 0.12499574E+03</pdfrwt>
<totfact> 0.72366344E+06</totfact>
</mgrwt>
</event>
<event>
 5    1  0.7934596E-005  0.1249929E+03  0.7818608E-02  0.1235080E+00
         21   -1    0    0  502  501  0.00000000000E+00  0.00000000000E+00  0.29185256632E+02  0.29185256632E+02  0.00000000000E+00 0. -1.
         21   -1    0    0  501  502 -0.00000000000E+00 -0.00000000000E+00 -0.13382803859E+03  0.13382803859E+03  0.00000000000E+00 0. -1.
         25    2    1    2    0    0  0.00000000000E+00  0.00000000000E+00 -0.10464278196E+03  0.16301329522E+03  0.12499289021E+03 0.  0.
        -13    1    3    3    0    0 -0.40385320055E+02  0.47276239301E+02 -0.44095991410E+02  0.76226534155E+02  0.10570000000E+00 0.  1.
         13    1    3    3    0    0  0.40385320055E+02 -0.47276239301E+02 -0.60546790547E+02  0.86786761066E+02  0.10570000000E+00 0.  1.
<mgrwt>
<rscale>  0 0.12499289E+03</rscale>
<asrwt>0</asrwt>
<pdfrwt beam="1">  1       21 0.44900395E-02 0.12499289E+03</pdfrwt>
<pdfrwt beam="2">  1       21 0.20588929E-01 0.12499289E+03</pdfrwt>
<totfact> 0.69165663E+06</totfact>
</mgrwt>
</event>
<event>
 5    1  0.7934596E-005  0.1250000E+03  0.7818608E-02  0.1235069E+00
         21   -1    0    0  502  501  0.00000000000E+00  0.00000000000E+00  0.31865598761E+02  0.31865598761E+02  0.00000000000E+00 0.  1.
         21   -1    0    0  501  502 -0.00000000000E+00 -0.00000000000E+00 -0.12258525305E+03  0.12258525305E+03  0.00000000000E+00 0.  1.
         25    2    1    2    0    0  0.00000000000E+00  0.00000000000E+00 -0.90719654293E+02  0.15445085182E+03  0.12500003981E+03 0.  0.
        -13    1    3    3    0    0 -0.31611514077E+02  0.46539392296E+02 -0.11724122512E+02  0.57468853118E+02  0.10570000000E+00 0.  1.
         13    1    3    3    0    0  0.31611514077E+02 -0.46539392296E+02 -0.78995531781E+02  0.96981998698E+02  0.10570000000E+00 0.  1.
<mgrwt>
<rscale>  0 0.12500004E+03</rscale>
<asrwt>0</asrwt>
<pdfrwt beam="1">  1       21 0.49023998E-02 0.12500004E+03</pdfrwt>
<pdfrwt beam="2">  1       21 0.18859270E-01 0.12500004E+03</pdfrwt>
<totfact> 0.70203904E+06</totfact>
</mgrwt>
</event>
<event>
 5    1  0.7934596E-005  0.1250007E+03  0.7818608E-02  0.1235068E+00
         21   -1    0    0  502  501  0.00000000000E+00  0.00000000000E+00  0.45999974928E+02  0.45999974928E+02  0.00000000000E+00 0.  1.
         21   -1    0    0  501  502 -0.00000000000E+00 -0.00000000000E+00 -0.84919522515E+02  0.84919522515E+02  0.00000000000E+00 0.  1.
         25    2    1    2    0    0  0.00000000000E+00  0.00000000000E+00 -0.38919547586E+02  0.13091949744E+03  0.12500073450E+03 0.  0.
        -13    1    3    3    0    0 -0.37523400968E+01  0.15569955751E+02  0.43814209700E+02  0.46649755866E+02  0.10570000000E+00 0.  1.
         13    1    3    3    0    0  0.37523400968E+01 -0.15569955751E+02 -0.82733757286E+02  0.84269741577E+02  0.10570000000E+00 0.  1.
<mgrwt>
<rscale>  0 0.12500073E+03</rscale>
<asrwt>0</asrwt>
<pdfrwt beam="1">  1       21 0.70769193E-02 0.12500073E+03</pdfrwt>
<pdfrwt beam="2">  1       21 0.13064542E-01 0.12500073E+03</pdfrwt>
<totfact> 0.73240149E+06</totfact>
</mgrwt>
</event>
<event>
 5    1  0.7934596E-005  0.1249797E+03  0.7818608E-02  0.1235101E+00
         21   -1    0    0  502  501  0.00000000000E+00  0.00000000000E+00  0.31183409198E+03  0.31183409198E+03  0.00000000000E+00 0.  1.
         21   -1    0    0  501  502 -0.00000000000E+00 -0.00000000000E+00 -0.12522630562E+02  0.12522630562E+02  0.00000000000E+00 0.  1.
         25    2    1    2    0    0  0.00000000000E+00  0.00000000000E+00  0.29931146142E+03  0.32435672255E+03  0.12497972844E+03 0.  0.
        -13    1    3    3    0    0  0.34166309761E+02 -0.33829448744E+02  0.46065459337E+02  0.66586830841E+02  0.10570000000E+00 0.  1.
         13    1    3    3    0    0 -0.34166309761E+02  0.33829448744E+02  0.25324600208E+03  0.25776989170E+03  0.10570000000E+00 0.  1.
<mgrwt>
<rscale>  0 0.12497973E+03</rscale>
<asrwt>0</asrwt>
<pdfrwt beam="1">  1       21 0.47974470E-01 0.12497973E+03</pdfrwt>
<pdfrwt beam="2">  1       21 0.19265588E-02 0.12497973E+03</pdfrwt>
<totfact> 0.53517100E+06</totfact>
</mgrwt>
</event>
<event>
 5    1  0.7934596E-005  0.1249963E+03  0.7818608E-02  0.1235075E+00
         21   -1    0    0  502  501  0.00000000000E+00  0.00000000000E+00  0.42831550193E+03  0.42831550193E+03  0.00000000000E+00 0.  1.
         21   -1    0    0  501  502 -0.00000000000E+00 -0.00000000000E+00 -0.91194947114E+01  0.91194947114E+01  0.00000000000E+00 0.  1.
         25    2    1    2    0    0  0.00000000000E+00  0.00000000000E+00  0.41919600722E+03  0.43743499664E+03  0.12499633522E+03 0.  0.
        -13    1    3    3    0    0  0.10343553183E+02  0.54896780766E+02  0.30767152794E+03  0.31270181628E+03  0.10570000000E+00 0. -1.
         13    1    3    3    0    0 -0.10343553183E+02 -0.54896780766E+02  0.11152447928E+03  0.12473318036E+03  0.10570000000E+00 0. -1.
<mgrwt>
<rscale>  0 0.12499634E+03</rscale>
<asrwt>0</asrwt>
<pdfrwt beam="1">  1       21 0.65894677E-01 0.12499634E+03</pdfrwt>
<pdfrwt beam="2">  1       21 0.14029995E-02 0.12499634E+03</pdfrwt>
<totfact> 0.45657737E+06</totfact>
</mgrwt>
</event>
<event>
 5    1  0.7934596E-005  0.1250040E+03  0.7818608E-02  0.1235063E+00
         21   -1    0    0  502  501  0.00000000000E+00  0.00000000000E+00  0.10787021701E+03  0.10787021701E+03  0.00000000000E+00 0.  1.
         21   -1    0    0  501  502 -0.00000000000E+00 -0.00000000000E+00 -0.36214821241E+02  0.36214821241E+02  0.00000000000E+00 0.  1.
         25    2    1    2    0    0  0.00000000000E+00  0.00000000000E+00  0.71655395766E+02  0.14408503825E+03  0.12500400995E+03 0.  0.
        -13    1    3    3    0    0 -0.29169205175E+02  0.12747767252E+02  0.97825995963E+02  0.10287509300E+03  0.10570000000E+00 0. -1.
         13    1    3    3    0    0  0.29169205175E+02 -0.12747767252E+02 -0.26170600197E+02  0.41209945251E+02  0.10570000000E+00 0. -1.
<mgrwt>
<rscale>  0 0.12500401E+03</rscale>
<asrwt>0</asrwt>
<pdfrwt beam="1">  1       21 0.16595418E-01 0.12500401E+03</pdfrwt>
<pdfrwt beam="2">  1       21 0.55715110E-02 0.12500401E+03</pdfrwt>
<totfact> 0.71503095E+06</totfact>
</mgrwt>
</event>
<event>
 5    1  0.7934596E-005  0.1249994E+03  0.7818608E-02  0.1235070E+00
         21   -1    0    0  502  501  0.00000000000E+00  0.00000000000E+00  0.97231035435E+02  0.97231035435E+02  0.00000000000E+00 0. -1.
         21   -1    0    0  501  502 -0.00000000000E+00 -0.00000000000E+00 -0.40174522539E+02  0.40174522539E+02  0.00000000000E+00 0. -1.
         25    2    1    2    0    0  0.00000000000E+00  0.00000000000E+00  0.57056512896E+02  0.13740555797E+03  0.12499936679E+03 0.  0.
        -13    1    3    3    0    0 -0.27094410747E+02 -0.54301673236E+02  0.44959027362E+02  0.75525519685E+02  0.10570000000E+00 0.  1.
         13    1    3    3    0    0  0.27094410747E+02  0.54301673236E+02  0.12097485534E+02  0.61880038289E+02  0.10570000000E+00 0.  1.
<mgrwt>
<rscale>  0 0.12499937E+03</rscale>
<asrwt>0</asrwt>
<pdfrwt beam="1">  1       21 0.14958621E-01 0.12499937E+03</pdfrwt>
<pdfrwt beam="2">  1       21 0.61806958E-02 0.12499937E+03</pdfrwt>
<totfact> 0.72380668E+06</totfact>
</mgrwt>
</event>
<event>
 5    1  0.7934596E-005  0.1249987E+03  0.7818608E-02  0.1235071E+00
         21   -1    0    0  502  501  0.00000000000E+00  0.00000000000E+00  0.31805736646E+02  0.31805736646E+02  0.00000000000E+00 0. -1.
         21   -1    0    0  501  502 -0.00000000000E+00 -0.00000000000E+00 -0.12281333712E+03  0.12281333712E+03  0.00000000000E+00 0. -1.
         25    2    1    2    0    0  0.00000000000E+00  0.00000000000E+00 -0.91007600479E+02  0.15461907377E+03  0.12499869851E+03 0.  0.
        -13    1    3    3    0    0 -0.39590350647E+02  0.40689109191E+02 -0.77834727443E+02  0.96339272572E+02  0.10570000000E+00 0. -1.
         13    1    3    3    0    0  0.39590350647E+02 -0.40689109191E+02 -0.13172873035E+02  0.58279801197E+02  0.10570000000E+00 0. -1.
<mgrwt>
<rscale>  0 0.12499870E+03</rscale>
<asrwt>0</asrwt>
<pdfrwt beam="1">  1       21 0.48931903E-02 0.12499870E+03</pdfrwt>
<pdfrwt beam="2">  1       21 0.18894359E-01 0.12499870E+03</pdfrwt>
<totfact> 0.70185358E+06</totfact>
</mgrwt>
</event>
<event>
 5    1  0.7934596E-005  0.1250006E+03  0.7818608E-02  0.1235068E+00
         21   -1    0    0  502  501  0.00000000000E+00  0.00000000000E+00  0.21655611544E+02  0.21655611544E+02  0.00000000000E+00 0.  1.
         21   -1    0    0  501  502 -0.00000000000E+00 -0.00000000000E+00 -0.18038234100E+03  0.18038234100E+03  0.00000000000E+00 0.  1.
         25    2    1    2    0    0  0.00000000000E+00  0.00000000000E+00 -0.15872672946E+03  0.20203795254E+03  0.12500063850E+03 0.  0.
        -13    1    3    3    0    0  0.38581360484E+02  0.23794554183E+01 -0.15874462343E+03  0.16338313813E+03  0.10570000000E+00 0.  1.
         13    1    3    3    0    0 -0.38581360484E+02 -0.23794554183E+01  0.17893971923E-01  0.38654814416E+02  0.10570000000E+00 0.  1.
<mgrwt>
<rscale>  0 0.12500064E+03</rscale>
<asrwt>0</asrwt>
<pdfrwt beam="1">  1       21 0.33316325E-02 0.12500064E+03</pdfrwt>
<pdfrwt beam="2">  1       21 0.27751130E-01 0.12500064E+03</pdfrwt>
<totfact> 0.64706047E+06</totfact>
</mgrwt>
</event>
<event>
 5    1  0.7934596E-005  0.1250059E+03  0.7818608E-02  0.1235060E+00
         21   -1    0    0  502  501  0.00000000000E+00  0.00000000000E+00  0.35990329895E+02  0.35990329895E+02  0.00000000000E+00 0. -1.
         21   -1    0    0  501  502 -0.00000000000E+00 -0.00000000000E+00 -0.10854639694E+03  0.10854639694E+03  0.00000000000E+00 0. -1.
         25    2    1    2    0    0  0.00000000000E+00  0.00000000000E+00 -0.72556067045E+02  0.14453672683E+03  0.12500593002E+03 0.  0.
        -13    1    3    3    0    0  0.45779794002E+01 -0.60664599654E+02 -0.52851335326E+02  0.80588003851E+02  0.10570000000E+00 0. -1.
         13    1    3    3    0    0 -0.45779794002E+01  0.60664599654E+02 -0.19704731718E+02  0.63948722983E+02  0.10570000000E+00 0. -1.
<mgrwt>
<rscale>  0 0.12500593E+03</rscale>
<asrwt>0</asrwt>
<pdfrwt beam="1">  1       21 0.55369739E-02 0.12500593E+03</pdfrwt>
<pdfrwt beam="2">  1       21 0.16699445E-01 0.12500593E+03</pdfrwt>
<totfact> 0.71441649E+06</totfact>
</mgrwt>
</event>
<event>
 5    1  0.7934596E-005  0.1249969E+03  0.7818608E-02  0.1235074E+00
         21   -1    0    0  502  501  0.00000000000E+00  0.00000000000E+00  0.32348950243E+03  0.32348950243E+03  0.00000000000E+00 0.  1.
         21   -1    0    0  501  502 -0.00000000000E+00 -0.00000000000E+00 -0.12074758629E+02  0.12074758629E+02  0.00000000000E+00 0.  1.
         25    2    1    2    0    0  0.00000000000E+00  0.00000000000E+00  0.31141474380E+03  0.33556426106E+03  0.12499692254E+03 0.  0.
        -13    1    3    3    0    0  0.87389007371E+01 -0.55090237347E+02  0.80025830600E+02  0.97547154611E+02  0.10570000000E+00 0.  1.
         13    1    3    3    0    0 -0.87389007371E+01  0.55090237347E+02  0.23138891320E+03  0.23801710645E+03  0.10570000000E+00 0.  1.
<mgrwt>
<rscale>  0 0.12499692E+03</rscale>
<asrwt>0</asrwt>
<pdfrwt beam="1">  1       21 0.49767609E-01 0.12499692E+03</pdfrwt>
<pdfrwt beam="2">  1       21 0.18576554E-02 0.12499692E+03</pdfrwt>
<totfact> 0.52626613E+06</totfact>
</mgrwt>
</event>
<event>
 5    1  0.7934596E-005  0.1250026E+03  0.7818608E-02  0.1235065E+00
         21   -1    0    0  502  501  0.00000000000E+00  0.00000000000E+00  0.16594491398E+02  0.16594491398E+02  0.00000000000E+00 0.  1.
         21   -1    0    0  501  502 -0.00000000000E+00 -0.00000000000E+00 -0.23540408437E+03  0.23540408437E+03  0.00000000000E+00 0.  1.
         25    2    1    2    0    0  0.00000000000E+00  0.00000000000E+00 -0.21880959298E+03  0.25199857577E+03  0.12500257682E+03 0.  0.
        -13    1    3    3    0    0  0.31296492239E+02 -0.53584253772E+02 -0.94365074629E+02  0.11294034337E+03  0.10570000000E+00 0.  1.
         13    1    3    3    0    0 -0.31296492239E+02  0.53584253772E+02 -0.12444451835E+03  0.13905823240E+03  0.10570000000E+00 0.  1.
<mgrwt>
<rscale>  0 0.12500258E+03</rscale>
<asrwt>0</asrwt>
<pdfrwt beam="1">  1       21 0.25529988E-02 0.12500258E+03</pdfrwt>
<pdfrwt beam="2">  1       21 0.36216011E-01 0.12500258E+03</pdfrwt>
<totfact> 0.59686659E+06</totfact>
</mgrwt>
</event>
<event>
 5    1  0.7934596E-005  0.1249990E+03  0.7818608E-02  0.1235071E+00
         21   -1    0    0  502  501  0.00000000000E+00  0.00000000000E+00  0.21418671299E+02  0.21418671299E+02  0.00000000000E+00 0. -1.
         21   -1    0    0  501  502 -0.00000000000E+00 -0.00000000000E+00 -0.18237312942E+03  0.18237312942E+03  0.00000000000E+00 0. -1.
         25    2    1    2    0    0  0.00000000000E+00  0.00000000000E+00 -0.16095445812E+03  0.20379180072E+03  0.12499904180E+03 0.  0.
        -13    1    3    3    0    0 -0.46676515304E+02 -0.36343685945E+02 -0.47601642479E+02  0.75930811455E+02  0.10570000000E+00 0. -1.
         13    1    3    3    0    0  0.46676515304E+02  0.36343685945E+02 -0.11335281564E+03  0.12786098926E+03  0.10570000000E+00 0. -1.
<mgrwt>
<rscale>  0 0.12499904E+03</rscale>
<asrwt>0</asrwt>
<pdfrwt beam="1">  1       21 0.32951802E-02 0.12499904E+03</pdfrwt>
<pdfrwt beam="2">  1       21 0.28057405E-01 0.12499904E+03</pdfrwt>
<totfact> 0.64520251E+06</totfact>
</mgrwt>
</event>
<event>
 5    1  0.7934596E-005  0.1249993E+03  0.7818608E-02  0.1235070E+00
         21   -1    0    0  502  501  0.00000000000E+00  0.00000000000E+00  0.15738352589E+03  0.15738352589E+03  0.00000000000E+00 0. -1.
         21   -1    0    0  501  502 -0.00000000000E+00 -0.00000000000E+00 -0.24819675182E+02  0.24819675182E+02  0.00000000000E+00 0. -1.
         25    2    1    2    0    0  0.00000000000E+00  0.00000000000E+00  0.13256385070E+03  0.18220320107E+03  0.12499932786E+03 0.  0.
        -13    1    3    3    0    0  0.46871209917E+02  0.23690786921E+02  0.11567039083E+03  0.12703469680E+03  0.10570000000E+00 0. -1.
         13    1    3    3    0    0 -0.46871209917E+02 -0.23690786921E+02  0.16893459874E+02  0.55168504267E+02  0.10570000000E+00 0. -1.
<mgrwt>
<rscale>  0 0.12499933E+03</rscale>
<asrwt>0</asrwt>
<pdfrwt beam="1">  1       21 0.24212850E-01 0.12499933E+03</pdfrwt>
<pdfrwt beam="2">  1       21 0.38184117E-02 0.12499933E+03</pdfrwt>
<totfact> 0.66900828E+06</totfact>
</mgrwt>
</event>
<event>
 5    1  0.7934596E-005  0.1249986E+03  0.7818608E-02  0.1235071E+00
         21   -1    0    0  502  501  0.00000000000E+00  0.00000000000E+00  0.39437437703E+02  0.39437437703E+02  0.00000000000E+00 0. -1.
         21   -1    0    0  501  502 -0.00000000000E+00 -0.00000000000E+00 -0.99047063579E+02  0.99047063579E+02  0.00000000000E+00 0. -1.
         25    2    1    2    0    0  0.00000000000E+00  0.00000000000E+00 -0.59609625875E+02  0.13848450128E+03  0.12499859839E+03 0.  0.
        -13    1    3    3    0    0  0.85133845584E+01 -0.60678088257E+02 -0.16152897745E+02  0.63365885058E+02  0.10570000000E+00 0. -1.
         13    1    3    3    0    0 -0.85133845584E+01  0.60678088257E+02 -0.43456728131E+02  0.75118616224E+02  0.10570000000E+00 0. -1.
<mgrwt>
<rscale>  0 0.12499860E+03</rscale>
<asrwt>0</asrwt>
<pdfrwt beam="1">  1       21 0.60672981E-02 0.12499860E+03</pdfrwt>
<pdfrwt beam="2">  1       21 0.15238010E-01 0.12499860E+03</pdfrwt>
<totfact> 0.72240356E+06</totfact>
</mgrwt>
</event>
<event>
 5    1  0.7934596E-005  0.1249998E+03  0.7818608E-02  0.1235070E+00
         21   -1    0    0  502  501  0.00000000000E+00  0.00000000000E+00  0.36422901625E+02  0.36422901625E+02  0.00000000000E+00 0. -1.
         21   -1    0    0  501  502 -0.00000000000E+00 -0.00000000000E+00 -0.10724674676E+03  0.10724674676E+03  0.00000000000E+00 0. -1.
         25    2    1    2    0    0  0.00000000000E+00  0.00000000000E+00 -0.70823845139E+02  0.14366964839E+03  0.12499980331E+03 0.  0.
        -13    1    3    3    0    0 -0.34776686451E+02  0.33877288488E+01 -0.94971922057E+02  0.10119571028E+03  0.10570000000E+00 0.  1.
         13    1    3    3    0    0  0.34776686451E+02 -0.33877288488E+01  0.24148076918E+02  0.42473938110E+02  0.10570000000E+00 0.  1.
<mgrwt>
<rscale>  0 0.12499980E+03</rscale>
<asrwt>0</asrwt>
<pdfrwt beam="1">  1       21 0.56035233E-02 0.12499980E+03</pdfrwt>
<pdfrwt beam="2">  1       21 0.16499499E-01 0.12499980E+03</pdfrwt>
<totfact> 0.71564147E+06</totfact>
</mgrwt>
</event>
<event>
 5    1  0.7934596E-005  0.1250013E+03  0.7818608E-02  0.1235067E+00
         21   -1    0    0  502  501  0.00000000000E+00  0.00000000000E+00  0.25256130892E+03  0.25256130892E+03  0.00000000000E+00 0. -1.
         21   -1    0    0  501  502 -0.00000000000E+00 -0.00000000000E+00 -0.15466870385E+02  0.15466870385E+02  0.00000000000E+00 0. -1.
         25    2    1    2    0    0  0.00000000000E+00  0.00000000000E+00  0.23709443854E+03  0.26802817931E+03  0.12500132846E+03 0.  0.
        -13    1    3    3    0    0  0.22078631494E+02 -0.57613471461E+02  0.13994027995E+03  0.15293812863E+03  0.10570000000E+00 0.  1.
         13    1    3    3    0    0 -0.22078631494E+02  0.57613471461E+02  0.97154158584E+02  0.11509005068E+03  0.10570000000E+00 0.  1.
<mgrwt>
<rscale>  0 0.12500133E+03</rscale>
<asrwt>0</asrwt>
<pdfrwt beam="1">  1       21 0.38855583E-01 0.12500133E+03</pdfrwt>
<pdfrwt beam="2">  1       21 0.23795187E-02 0.12500133E+03</pdfrwt>
<totfact> 0.58219224E+06</totfact>
</mgrwt>
</event>
<event>
 5    1  0.7934596E-005  0.1250030E+03  0.7818608E-02  0.1235065E+00
         21   -1    0    0  502  501  0.00000000000E+00  0.00000000000E+00  0.14668147585E+02  0.14668147585E+02  0.00000000000E+00 0. -1.
         21   -1    0    0  501  502 -0.00000000000E+00 -0.00000000000E+00 -0.26632106099E+03  0.26632106099E+03  0.00000000000E+00 0. -1.
         25    2    1    2    0    0  0.00000000000E+00  0.00000000000E+00 -0.25165291341E+03  0.28098920858E+03  0.12500298600E+03 0.  0.
        -13    1    3    3    0    0 -0.16653817830E+02  0.56547996696E+02 -0.79138027583E+02  0.98680616946E+02  0.10570000000E+00 0.  1.
         13    1    3    3    0    0  0.16653817830E+02 -0.56547996696E+02 -0.17251488583E+03  0.18230859163E+03  0.10570000000E+00 0.  1.
<mgrwt>
<rscale>  0 0.12500299E+03</rscale>
<asrwt>0</asrwt>
<pdfrwt beam="1">  1       21 0.22566383E-02 0.12500299E+03</pdfrwt>
<pdfrwt beam="2">  1       21 0.40972467E-01 0.12500299E+03</pdfrwt>
<totfact> 0.57069714E+06</totfact>
</mgrwt>
</event>
<event>
 5    1  0.7934596E-005  0.1250032E+03  0.7818608E-02  0.1235064E+00
         21   -1    0    0  502  501  0.00000000000E+00  0.00000000000E+00  0.41034209510E+02  0.41034209510E+02  0.00000000000E+00 0. -1.
         21   -1    0    0  501  502 -0.00000000000E+00 -0.00000000000E+00 -0.95199866497E+02  0.95199866497E+02  0.00000000000E+00 0. -1.
         25    2    1    2    0    0  0.00000000000E+00  0.00000000000E+00 -0.54165656987E+02  0.13623407601E+03  0.12500322023E+03 0.  0.
        -13    1    3    3    0    0 -0.28820971559E+02 -0.54083572034E+02 -0.13701289274E+02  0.62796637377E+02  0.10570000000E+00 0.  1.
         13    1    3    3    0    0  0.28820971559E+02  0.54083572034E+02 -0.40464367713E+02  0.73437438630E+02  0.10570000000E+00 0.  1.
<mgrwt>
<rscale>  0 0.12500322E+03</rscale>
<asrwt>0</asrwt>
<pdfrwt beam="1">  1       21 0.63129554E-02 0.12500322E+03</pdfrwt>
<pdfrwt beam="2">  1       21 0.14646133E-01 0.12500322E+03</pdfrwt>
<totfact> 0.72527526E+06</totfact>
</mgrwt>
</event>
<event>
 5    1  0.7934596E-005  0.1249993E+03  0.7818608E-02  0.1235070E+00
         21   -1    0    0  502  501  0.00000000000E+00  0.00000000000E+00  0.41484034115E+02  0.41484034115E+02  0.00000000000E+00 0.  1.
         21   -1    0    0  501  502 -0.00000000000E+00 -0.00000000000E+00 -0.94161656544E+02  0.94161656544E+02  0.00000000000E+00 0.  1.
         25    2    1    2    0    0  0.00000000000E+00  0.00000000000E+00 -0.52677622429E+02  0.13564569066E+03  0.12499928596E+03 0.  0.
        -13    1    3    3    0    0 -0.14846300341E+02  0.56321198861E+01  0.39258547555E+02  0.42348295560E+02  0.10570000000E+00 0. -1.
         13    1    3    3    0    0  0.14846300341E+02 -0.56321198861E+01 -0.91936169985E+02  0.93297395098E+02  0.10570000000E+00 0. -1.
<mgrwt>
<rscale>  0 0.12499929E+03</rscale>
<asrwt>0</asrwt>
<pdfrwt beam="1">  1       21 0.63821591E-02 0.12499929E+03</pdfrwt>
<pdfrwt beam="2">  1       21 0.14486409E-01 0.12499929E+03</pdfrwt>
<totfact> 0.72612413E+06</totfact>
</mgrwt>
</event>
<event>
 5    1  0.7934596E-005  0.1249982E+03  0.7818608E-02  0.1235072E+00
         21   -1    0    0  502  501  0.00000000000E+00  0.00000000000E+00  0.13732334484E+03  0.13732334484E+03  0.00000000000E+00 0. -1.
         21   -1    0    0  501  502 -0.00000000000E+00 -0.00000000000E+00 -0.28444800525E+02  0.28444800525E+02  0.00000000000E+00 0. -1.
         25    2    1    2    0    0  0.00000000000E+00  0.00000000000E+00  0.10887854431E+03  0.16576814536E+03  0.12499816241E+03 0.  0.
        -13    1    3    3    0    0  0.57763388779E+02 -0.97086961943E+01  0.25528392477E+02  0.63895053486E+02  0.10570000000E+00 0.  1.
         13    1    3    3    0    0 -0.57763388779E+02  0.97086961943E+01  0.83350151836E+02  0.10187309188E+03  0.10570000000E+00 0.  1.
<mgrwt>
<rscale>  0 0.12499816E+03</rscale>
<asrwt>0</asrwt>
<pdfrwt beam="1">  1       21 0.21126668E-01 0.12499816E+03</pdfrwt>
<pdfrwt beam="2">  1       21 0.43761232E-02 0.12499816E+03</pdfrwt>
<totfact> 0.68824683E+06</totfact>
</mgrwt>
</event>
<event>
 5    1  0.7934596E-005  0.1249998E+03  0.7818608E-02  0.1235070E+00
         21   -1    0    0  502  501  0.00000000000E+00  0.00000000000E+00  0.56091618951E+02  0.56091618951E+02  0.00000000000E+00 0. -1.
         21   -1    0    0  501  502 -0.00000000000E+00 -0.00000000000E+00 -0.69640286132E+02  0.69640286132E+02  0.00000000000E+00 0. -1.
         25    2    1    2    0    0  0.00000000000E+00  0.00000000000E+00 -0.13548667181E+02  0.12573190508E+03  0.12499978229E+03 0.  0.
        -13    1    3    3    0    0  0.12544150776E+02  0.32859674816E+02  0.45191701133E+02  0.57266176505E+02  0.10570000000E+00 0. -1.
         13    1    3    3    0    0 -0.12544150776E+02 -0.32859674816E+02 -0.58740368314E+02  0.68465728579E+02  0.10570000000E+00 0. -1.
<mgrwt>
<rscale>  0 0.12499978E+03</rscale>
<asrwt>0</asrwt>
<pdfrwt beam="1">  1       21 0.86294799E-02 0.12499978E+03</pdfrwt>
<pdfrwt beam="2">  1       21 0.10713890E-01 0.12499978E+03</pdfrwt>
<totfact> 0.73943520E+06</totfact>
</mgrwt>
</event>
<event>
 5    1  0.7934596E-005  0.1249975E+03  0.7818608E-02  0.1235073E+00
         21   -1    0    0  502  501  0.00000000000E+00  0.00000000000E+00  0.19377667007E+03  0.19377667007E+03  0.00000000000E+00 0.  1.
         21   -1    0    0  501  502 -0.00000000000E+00 -0.00000000000E+00 -0.20157705155E+02  0.20157705155E+02  0.00000000000E+00 0.  1.
         25    2    1    2    0    0  0.00000000000E+00  0.00000000000E+00  0.17361896491E+03  0.21393437522E+03  0.12499748767E+03 0.  0.
        -13    1    3    3    0    0  0.60278749954E+02 -0.95337581938E+01  0.10987752891E+03  0.12568811707E+03  0.10570000000E+00 0.  1.
         13    1    3    3    0    0 -0.60278749954E+02  0.95337581938E+01  0.63741436002E+02  0.88246258150E+02  0.10570000000E+00 0.  1.
<mgrwt>
<rscale>  0 0.12499749E+03</rscale>
<asrwt>0</asrwt>
<pdfrwt beam="1">  1       21 0.29811794E-01 0.12499749E+03</pdfrwt>
<pdfrwt beam="2">  1       21 0.31011855E-02 0.12499749E+03</pdfrwt>
<totfact> 0.63451989E+06</totfact>
</mgrwt>
</event>
<event>
 5    1  0.7934596E-005  0.1250028E+03  0.7818608E-02  0.1235065E+00
         21   -1    0    0  502  501  0.00000000000E+00  0.00000000000E+00  0.40014696849E+03  0.40014696849E+03  0.00000000000E+00 0. -1.
         21   -1    0    0  501  502 -0.00000000000E+00 -0.00000000000E+00 -0.97624777977E+01  0.97624777977E+01  0.00000000000E+00 0. -1.
         25    2    1    2    0    0  0.00000000000E+00  0.00000000000E+00  0.39038449069E+03  0.40990944629E+03  0.12500281430E+03 0.  0.
        -13    1    3    3    0    0  0.52116696486E+02 -0.16130624926E+02  0.95186397531E+02  0.10971239019E+03  0.10570000000E+00 0.  1.
         13    1    3    3    0    0 -0.52116696486E+02  0.16130624926E+02  0.29519809316E+03  0.30019705610E+03  0.10570000000E+00 0.  1.
<mgrwt>
<rscale>  0 0.12500281E+03</rscale>
<asrwt>0</asrwt>
<pdfrwt beam="1">  1       21 0.61561060E-01 0.12500281E+03</pdfrwt>
<pdfrwt beam="2">  1       21 0.15019200E-02 0.12500281E+03</pdfrwt>
<totfact> 0.47387613E+06</totfact>
</mgrwt>
</event>
<event>
 5    1  0.7934596E-005  0.1249904E+03  0.7818608E-02  0.1235084E+00
         21   -1    0    0  502  501  0.00000000000E+00  0.00000000000E+00  0.40978168475E+02  0.40978168475E+02  0.00000000000E+00 0.  1.
         21   -1    0    0  501  502 -0.00000000000E+00 -0.00000000000E+00 -0.95310548222E+02  0.95310548222E+02  0.00000000000E+00 0.  1.
         25    2    1    2    0    0  0.00000000000E+00  0.00000000000E+00 -0.54332379747E+02  0.13628871670E+03  0.12499042687E+03 0.  0.
        -13    1    3    3    0    0 -0.42087897896E+02 -0.39019018977E+02 -0.19651844269E+00  0.57392724132E+02  0.10570000000E+00 0.  1.
         13    1    3    3    0    0  0.42087897896E+02  0.39019018977E+02 -0.54135861304E+02  0.78895992566E+02  0.10570000000E+00 0.  1.
<mgrwt>
<rscale>  0 0.12499043E+03</rscale>
<asrwt>0</asrwt>
<pdfrwt beam="1">  1       21 0.63043337E-02 0.12499043E+03</pdfrwt>
<pdfrwt beam="2">  1       21 0.14663161E-01 0.12499043E+03</pdfrwt>
<totfact> 0.72543993E+06</totfact>
</mgrwt>
</event>
<event>
 5    1  0.7934596E-005  0.1249982E+03  0.7818608E-02  0.1235072E+00
         21   -1    0    0  502  501  0.00000000000E+00  0.00000000000E+00  0.34539501624E+02  0.34539501624E+02  0.00000000000E+00 0. -1.
         21   -1    0    0  501  502 -0.00000000000E+00 -0.00000000000E+00 -0.11309193460E+03  0.11309193460E+03  0.00000000000E+00 0. -1.
         25    2    1    2    0    0  0.00000000000E+00  0.00000000000E+00 -0.78552432978E+02  0.14763143623E+03  0.12499822493E+03 0.  0.
        -13    1    3    3    0    0  0.61011615327E+02  0.13336428137E+02 -0.36419504094E+02  0.72295705068E+02  0.10570000000E+00 0. -1.
         13    1    3    3    0    0 -0.61011615327E+02 -0.13336428137E+02 -0.42132928884E+02  0.75335731158E+02  0.10570000000E+00 0. -1.
<mgrwt>
<rscale>  0 0.12499822E+03</rscale>
<asrwt>0</asrwt>
<pdfrwt beam="1">  1       21 0.53137695E-02 0.12499822E+03</pdfrwt>
<pdfrwt beam="2">  1       21 0.17398759E-01 0.12499822E+03</pdfrwt>
<totfact> 0.71061230E+06</totfact>
</mgrwt>
</event>
<event>
 5    1  0.7934596E-005  0.1250014E+03  0.7818608E-02  0.1235067E+00
         21   -1    0    0  502  501  0.00000000000E+00  0.00000000000E+00  0.22793272411E+03  0.22793272411E+03  0.00000000000E+00 0. -1.
         21   -1    0    0  501  502 -0.00000000000E+00 -0.00000000000E+00 -0.17138119076E+02  0.17138119076E+02  0.00000000000E+00 0. -1.
         25    2    1    2    0    0  0.00000000000E+00  0.00000000000E+00  0.21079460504E+03  0.24507084319E+03  0.12500141067E+03 0.  0.
        -13    1    3    3    0    0 -0.50773452306E+02 -0.15613750700E+02  0.16996427079E+03  0.17807188769E+03  0.10570000000E+00 0. -1.
         13    1    3    3    0    0  0.50773452306E+02  0.15613750700E+02  0.40830334252E+02  0.66998955497E+02  0.10570000000E+00 0. -1.
<mgrwt>
<rscale>  0 0.12500141E+03</rscale>
<asrwt>0</asrwt>
<pdfrwt beam="1">  1       21 0.35066571E-01 0.12500141E+03</pdfrwt>
<pdfrwt beam="2">  1       21 0.26366339E-02 0.12500141E+03</pdfrwt>
<totfact> 0.60343245E+06</totfact>
</mgrwt>
</event>
<event>
 5    1  0.7934596E-005  0.1250004E+03  0.7818608E-02  0.1235069E+00
         21   -1    0    0  502  501  0.00000000000E+00  0.00000000000E+00  0.11398529981E+03  0.11398529981E+03  0.00000000000E+00 0. -1.
         21   -1    0    0  501  502 -0.00000000000E+00 -0.00000000000E+00 -0.34270010912E+02  0.34270010912E+02  0.00000000000E+00 0. -1.
         25    2    1    2    0    0  0.00000000000E+00  0.00000000000E+00  0.79715288900E+02  0.14825531072E+03  0.12500043949E+03 0.  0.
        -13    1    3    3    0    0  0.37707004296E+01  0.41834595959E+02  0.94748475319E+02  0.10364186581E+03  0.10570000000E+00 0.  1.
         13    1    3    3    0    0 -0.37707004296E+01 -0.41834595959E+02 -0.15033186419E+02  0.44613444915E+02  0.10570000000E+00 0.  1.
<mgrwt>
<rscale>  0 0.12500044E+03</rscale>
<asrwt>0</asrwt>
<pdfrwt beam="1">  1       21 0.17536200E-01 0.12500044E+03</pdfrwt>
<pdfrwt beam="2">  1       21 0.52723094E-02 0.12500044E+03</pdfrwt>
<totfact> 0.70978265E+06</totfact>
</mgrwt>
</event>
<event>
 5    1  0.7934596E-005  0.1250227E+03  0.7818608E-02  0.1235034E+00
         21   -1    0    0  502  501  0.00000000000E+00  0.00000000000E+00  0.53728385158E+02  0.53728385158E+02  0.00000000000E+00 0. -1.
         21   -1    0    0  501  502 -0.00000000000E+00 -0.00000000000E+00 -0.72730058703E+02  0.72730058703E+02  0.00000000000E+00 0. -1.
         25    2    1    2    0    0  0.00000000000E+00  0.00000000000E+00 -0.19001673545E+02  0.12645844386E+03  0.12502269564E+03 0.  0.
        -13    1    3    3    0    0 -0.64896724089E+01  0.24198705407E+02 -0.67429503004E+02  0.71933596039E+02  0.10570000000E+00 0.  1.
         13    1    3    3    0    0  0.64896724089E+01 -0.24198705407E+02  0.48427829458E+02  0.54524847821E+02  0.10570000000E+00 0.  1.
<mgrwt>
<rscale>  0 0.12502270E+03</rscale>
<asrwt>0</asrwt>
<pdfrwt beam="1">  1       21 0.82659054E-02 0.12502270E+03</pdfrwt>
<pdfrwt beam="2">  1       21 0.11189240E-01 0.12502270E+03</pdfrwt>
<totfact> 0.73800308E+06</totfact>
</mgrwt>
</event>
<event>
 5    1  0.7934596E-005  0.1249983E+03  0.7818608E-02  0.1235072E+00
         21   -1    0    0  502  501  0.00000000000E+00  0.00000000000E+00  0.11553029139E+03  0.11553029139E+03  0.00000000000E+00 0.  1.
         21   -1    0    0  501  502 -0.00000000000E+00 -0.00000000000E+00 -0.33810572507E+02  0.33810572507E+02  0.00000000000E+00 0.  1.
         25    2    1    2    0    0  0.00000000000E+00  0.00000000000E+00  0.81719718881E+02  0.14934086389E+03  0.12499832469E+03 0.  0.
        -13    1    3    3    0    0 -0.13107615411E+02 -0.56522277058E+02  0.13107939998E+02  0.59484507639E+02  0.10570000000E+00 0.  1.
         13    1    3    3    0    0  0.13107615411E+02  0.56522277058E+02  0.68611778884E+02  0.89856356256E+02  0.10570000000E+00 0.  1.
<mgrwt>
<rscale>  0 0.12499832E+03</rscale>
<asrwt>0</asrwt>
<pdfrwt beam="1">  1       21 0.17773891E-01 0.12499832E+03</pdfrwt>
<pdfrwt beam="2">  1       21 0.52016266E-02 0.12499832E+03</pdfrwt>
<totfact> 0.70845120E+06</totfact>
</mgrwt>
</event>
<event>
 5    1  0.7934596E-005  0.1250015E+03  0.7818608E-02  0.1235067E+00
         21   -1    0    0  502  501  0.00000000000E+00  0.00000000000E+00  0.16751624718E+03  0.16751624718E+03  0.00000000000E+00 0.  1.
         21   -1    0    0  501  502 -0.00000000000E+00 -0.00000000000E+00 -0.23319202425E+02  0.23319202425E+02  0.00000000000E+00 0.  1.
         25    2    1    2    0    0  0.00000000000E+00  0.00000000000E+00  0.14419704476E+03  0.19083544961E+03  0.12500152443E+03 0.  0.
        -13    1    3    3    0    0  0.10650691365E+02 -0.50874465166E+02  0.19110145606E+02  0.55379213339E+02  0.10570000000E+00 0.  1.
         13    1    3    3    0    0 -0.10650691365E+02  0.50874465166E+02  0.12508689915E+03  0.13545623627E+03  0.10570000000E+00 0.  1.
<mgrwt>
<rscale>  0 0.12500152E+03</rscale>
<asrwt>0</asrwt>
<pdfrwt beam="1">  1       21 0.25771730E-01 0.12500152E+03</pdfrwt>
<pdfrwt beam="2">  1       21 0.35875697E-02 0.12500152E+03</pdfrwt>
<totfact> 0.65927186E+06</totfact>
</mgrwt>
</event>
<event>
 5    1  0.7934596E-005  0.1250040E+03  0.7818608E-02  0.1235063E+00
         21   -1    0    0  502  501  0.00000000000E+00  0.00000000000E+00  0.38869384980E+02  0.38869384980E+02  0.00000000000E+00 0.  1.
         21   -1    0    0  501  502 -0.00000000000E+00 -0.00000000000E+00 -0.10050322191E+03  0.10050322191E+03  0.00000000000E+00 0.  1.
         25    2    1    2    0    0  0.00000000000E+00  0.00000000000E+00 -0.61633836930E+02  0.13937260689E+03  0.12500397472E+03 0.  0.
        -13    1    3    3    0    0  0.23776037540E+01  0.58912614853E+02 -0.76932071597E+01  0.59460455744E+02  0.10570000000E+00 0.  1.
         13    1    3    3    0    0 -0.23776037540E+01 -0.58912614853E+02 -0.53940629771E+02  0.79912151147E+02  0.10570000000E+00 0.  1.
<mgrwt>
<rscale>  0 0.12500397E+03</rscale>
<asrwt>0</asrwt>
<pdfrwt beam="1">  1       21 0.59799054E-02 0.12500397E+03</pdfrwt>
<pdfrwt beam="2">  1       21 0.15462034E-01 0.12500397E+03</pdfrwt>
<totfact> 0.72114016E+06</totfact>
</mgrwt>
</event>
<event>
 5    1  0.7934596E-005  0.1250042E+03  0.7818608E-02  0.1235063E+00
         21   -1    0    0  502  501  0.00000000000E+00  0.00000000000E+00  0.13012267474E+02  0.13012267474E+02  0.00000000000E+00 0. -1.
         21   -1    0    0  501  502 -0.00000000000E+00 -0.00000000000E+00 -0.30021785044E+03  0.30021785044E+03  0.00000000000E+00 0. -1.
         25    2    1    2    0    0  0.00000000000E+00  0.00000000000E+00 -0.28720558297E+03  0.31323011792E+03  0.12500423946E+03 0.  0.
        -13    1    3    3    0    0 -0.31421621533E+02 -0.44992717933E+02 -0.68645882677E+02  0.87885899596E+02  0.10570000000E+00 0.  1.
         13    1    3    3    0    0  0.31421621533E+02  0.44992717933E+02 -0.21855970029E+03  0.22534421832E+03  0.10570000000E+00 0.  1.
<mgrwt>
<rscale>  0 0.12500424E+03</rscale>
<asrwt>0</asrwt>
<pdfrwt beam="1">  1       21 0.20018875E-02 0.12500424E+03</pdfrwt>
<pdfrwt beam="2">  1       21 0.46187356E-01 0.12500424E+03</pdfrwt>
<totfact> 0.54368437E+06</totfact>
</mgrwt>
</event>
<event>
 5    1  0.7934596E-005  0.1250035E+03  0.7818608E-02  0.1235064E+00
         21   -1    0    0  502  501  0.00000000000E+00  0.00000000000E+00  0.34805816030E+02  0.34805816030E+02  0.00000000000E+00 0. -1.
         21   -1    0    0  501  502 -0.00000000000E+00 -0.00000000000E+00 -0.11223608771E+03  0.11223608771E+03  0.00000000000E+00 0. -1.
         25    2    1    2    0    0  0.00000000000E+00  0.00000000000E+00 -0.77430271682E+02  0.14704190374E+03  0.12500349788E+03 0.  0.
        -13    1    3    3    0    0  0.26872374060E+02 -0.55471900416E+02 -0.50894337602E+02  0.79934354290E+02  0.10570000000E+00 0. -1.
         13    1    3    3    0    0 -0.26872374060E+02  0.55471900416E+02 -0.26535934080E+02  0.67107549451E+02  0.10570000000E+00 0. -1.
<mgrwt>
<rscale>  0 0.12500350E+03</rscale>
<asrwt>0</asrwt>
<pdfrwt beam="1">  1       21 0.53547409E-02 0.12500350E+03</pdfrwt>
<pdfrwt beam="2">  1       21 0.17267090E-01 0.12500350E+03</pdfrwt>
<totfact> 0.71126465E+06</totfact>
</mgrwt>
</event>
<event>
 5    1  0.7934596E-005  0.1249954E+03  0.7818608E-02  0.1235076E+00
         21   -1    0    0  502  501  0.00000000000E+00  0.00000000000E+00  0.25068491614E+02  0.25068491614E+02  0.00000000000E+00 0. -1.
         21   -1    0    0  501  502 -0.00000000000E+00 -0.00000000000E+00 -0.15581168899E+03  0.15581168899E+03  0.00000000000E+00 0. -1.
         25    2    1    2    0    0  0.00000000000E+00  0.00000000000E+00 -0.13074319737E+03  0.18088018060E+03  0.12499542422E+03 0.  0.
        -13    1    3    3    0    0  0.39801975547E+02 -0.36695166905E+02 -0.11056221225E+03  0.12310461600E+03  0.10570000000E+00 0. -1.
         13    1    3    3    0    0 -0.39801975547E+02  0.36695166905E+02 -0.20180985125E+02  0.57775564599E+02  0.10570000000E+00 0. -1.
<mgrwt>
<rscale>  0 0.12499542E+03</rscale>
<asrwt>0</asrwt>
<pdfrwt beam="1">  1       21 0.38566909E-02 0.12499542E+03</pdfrwt>
<pdfrwt beam="2">  1       21 0.23971030E-01 0.12499542E+03</pdfrwt>
<totfact> 0.67058490E+06</totfact>
</mgrwt>
</event>
<event>
 5    1  0.7934596E-005  0.1249927E+03  0.7818608E-02  0.1235081E+00
         21   -1    0    0  502  501  0.00000000000E+00  0.00000000000E+00  0.22077089663E+02  0.22077089663E+02  0.00000000000E+00 0. -1.
         21   -1    0    0  501  502 -0.00000000000E+00 -0.00000000000E+00 -0.17691622822E+03  0.17691622822E+03  0.00000000000E+00 0. -1.
         25    2    1    2    0    0  0.00000000000E+00  0.00000000000E+00 -0.15483913856E+03  0.19899331789E+03  0.12499272672E+03 0.  0.
        -13    1    3    3    0    0  0.60526380135E+02 -0.27645217766E+01 -0.10180943220E+03  0.11847471008E+03  0.10570000000E+00 0. -1.
         13    1    3    3    0    0 -0.60526380135E+02  0.27645217766E+01 -0.53029706365E+02  0.80518607803E+02  0.10570000000E+00 0. -1.
<mgrwt>
<rscale>  0 0.12499273E+03</rscale>
<asrwt>0</asrwt>
<pdfrwt beam="1">  1       21 0.33964755E-02 0.12499273E+03</pdfrwt>
<pdfrwt beam="2">  1       21 0.27217880E-01 0.12499273E+03</pdfrwt>
<totfact> 0.65048474E+06</totfact>
</mgrwt>
</event>
<event>
 5    1  0.7934596E-005  0.1250033E+03  0.7818608E-02  0.1235064E+00
         21   -1    0    0  502  501  0.00000000000E+00  0.00000000000E+00  0.96515561547E+02  0.96515561547E+02  0.00000000000E+00 0.  1.
         21   -1    0    0  501  502 -0.00000000000E+00 -0.00000000000E+00 -0.40474917192E+02  0.40474917192E+02  0.00000000000E+00 0.  1.
         25    2    1    2    0    0  0.00000000000E+00  0.00000000000E+00  0.56040644355E+02  0.13699047874E+03  0.12500334974E+03 0.  0.
        -13    1    3    3    0    0 -0.39422761877E+02 -0.15037085100E+02 -0.22511941959E+02  0.47823287063E+02  0.10570000000E+00 0.  1.
         13    1    3    3    0    0  0.39422761877E+02  0.15037085100E+02  0.78552586314E+02  0.89167191676E+02  0.10570000000E+00 0.  1.
<mgrwt>
<rscale>  0 0.12500335E+03</rscale>
<asrwt>0</asrwt>
<pdfrwt beam="1">  1       21 0.14848548E-01 0.12500335E+03</pdfrwt>
<pdfrwt beam="2">  1       21 0.62269104E-02 0.12500335E+03</pdfrwt>
<totfact> 0.72427790E+06</totfact>
</mgrwt>
</event>
<event>
 5    1  0.7934596E-005  0.1250003E+03  0.7818608E-02  0.1235069E+00
         21   -1    0    0  502  501  0.00000000000E+00  0.00000000000E+00  0.66385904625E+02  0.66385904625E+02  0.00000000000E+00 0. -1.
         21   -1    0    0  501  502 -0.00000000000E+00 -0.00000000000E+00 -0.58841794886E+02  0.58841794886E+02  0.00000000000E+00 0. -1.
         25    2    1    2    0    0  0.00000000000E+00  0.00000000000E+00  0.75441097398E+01  0.12522769951E+03  0.12500025253E+03 0.  0.
        -13    1    3    3    0    0  0.42900303959E+02 -0.24951024161E+01  0.49237370992E+02  0.65352823126E+02  0.10570000000E+00 0. -1.
         13    1    3    3    0    0 -0.42900303959E+02  0.24951024161E+01 -0.41693261252E+02  0.59874876385E+02  0.10570000000E+00 0. -1.
<mgrwt>
<rscale>  0 0.12500025E+03</rscale>
<asrwt>0</asrwt>
<pdfrwt beam="1">  1       21 0.10213216E-01 0.12500025E+03</pdfrwt>
<pdfrwt beam="2">  1       21 0.90525839E-02 0.12500025E+03</pdfrwt>
<totfact> 0.74012354E+06</totfact>
</mgrwt>
</event>
<event>
 5    1  0.7934596E-005  0.1249994E+03  0.7818608E-02  0.1235070E+00
         21   -1    0    0  502  501  0.00000000000E+00  0.00000000000E+00  0.24464222298E+02  0.24464222298E+02  0.00000000000E+00 0. -1.
         21   -1    0    0  501  502 -0.00000000000E+00 -0.00000000000E+00 -0.15967051543E+03  0.15967051543E+03  0.00000000000E+00 0. -1.
         25    2    1    2    0    0  0.00000000000E+00  0.00000000000E+00 -0.13520629313E+03  0.18413473773E+03  0.12499943974E+03 0.  0.
        -13    1    3    3    0    0 -0.34820785318E+02  0.42061545512E+02 -0.11239419667E+03  0.12495650171E+03  0.10570000000E+00 0.  1.
         13    1    3    3    0    0  0.34820785318E+02 -0.42061545512E+02 -0.22812096461E+02  0.59178236021E+02  0.10570000000E+00 0.  1.
<mgrwt>
<rscale>  0 0.12499944E+03</rscale>
<asrwt>0</asrwt>
<pdfrwt beam="1">  1       21 0.37637264E-02 0.12499944E+03</pdfrwt>
<pdfrwt beam="2">  1       21 0.24564695E-01 0.12499944E+03</pdfrwt>
<totfact> 0.66681296E+06</totfact>
</mgrwt>
</event>
<event>
 5    1  0.7934596E-005  0.1249990E+03  0.7818608E-02  0.1235071E+00
         21   -1    0    0  502  501  0.00000000000E+00  0.00000000000E+00  0.76461163301E+02  0.76461163301E+02  0.00000000000E+00 0. -1.
         21   -1    0    0  501  502 -0.00000000000E+00 -0.00000000000E+00 -0.51087171473E+02  0.51087171473E+02  0.00000000000E+00 0. -1.
         25    2    1    2    0    0  0.00000000000E+00  0.00000000000E+00  0.25373991827E+02  0.12754833477E+03  0.12499895297E+03 0.  0.
        -13    1    3    3    0    0 -0.56544139627E+01  0.22584868610E+02  0.71871015902E+02  0.75548016431E+02  0.10570000000E+00 0. -1.
         13    1    3    3    0    0  0.56544139627E+01 -0.22584868610E+02 -0.46497024075E+02  0.52000318343E+02  0.10570000000E+00 0. -1.
<mgrwt>
<rscale>  0 0.12499895E+03</rscale>
<asrwt>0</asrwt>
<pdfrwt beam="1">  1       21 0.11763256E-01 0.12499895E+03</pdfrwt>
<pdfrwt beam="2">  1       21 0.78595648E-02 0.12499895E+03</pdfrwt>
<totfact> 0.73696637E+06</totfact>
</mgrwt>
</event>
<event>
 5    1  0.7934596E-005  0.1249982E+03  0.7818608E-02  0.1235072E+00
         21   -1    0    0  502  501  0.00000000000E+00  0.00000000000E+00  0.20669572971E+02  0.20669572971E+02  0.00000000000E+00 0.  1.
         21   -1    0    0  501  502 -0.00000000000E+00 -0.00000000000E+00 -0.18898018421E+03  0.18898018421E+03  0.00000000000E+00 0.  1.
         25    2    1    2    0    0  0.00000000000E+00  0.00000000000E+00 -0.16831061124E+03  0.20964975718E+03  0.12499823531E+03 0.  0.
        -13    1    3    3    0    0  0.52390198780E+02  0.75889269251E+01 -0.13987855371E+03  0.14956050849E+03  0.10570000000E+00 0. -1.
         13    1    3    3    0    0 -0.52390198780E+02 -0.75889269251E+01 -0.28432057528E+02  0.60089248688E+02  0.10570000000E+00 0. -1.
<mgrwt>
<rscale>  0 0.12499824E+03</rscale>
<asrwt>0</asrwt>
<pdfrwt beam="1">  1       21 0.31799342E-02 0.12499824E+03</pdfrwt>
<pdfrwt beam="2">  1       21 0.29073875E-01 0.12499824E+03</pdfrwt>
<totfact> 0.63899256E+06</totfact>
</mgrwt>
</event>
<event>
 4    1  0.7934596E-005  0.1250477E+03  0.7818608E-02  0.1234995E+00
         21   -1    0    0  502  501  0.00000000000E+00  0.00000000000E+00  0.40664273597E+03  0.40664273597E+03  0.00000000000E+00 0. -1.
         21   -1    0    0  501  502 -0.00000000000E+00 -0.00000000000E+00 -0.96134268883E+01  0.96134268883E+01  0.00000000000E+00 0. -1.
        -13    1    1    2    0    0  0.43308597664E+02  0.44990641395E+02  0.20873492704E+03  0.21787627999E+03  0.10570000000E+00 0. -1.
         13    1    1    2    0    0 -0.43308597664E+02 -0.44990641395E+02  0.18829438204E+03  0.19837988287E+03  0.10570000000E+00 0. -1.
<mgrwt>
<rscale>  0 0.12504767E+03</rscale>
<asrwt>0</asrwt>
<pdfrwt beam="1">  1       21 0.62560408E-01 0.12504767E+03</pdfrwt>
<pdfrwt beam="2">  1       21 0.14789891E-02 0.12504767E+03</pdfrwt>
<totfact> 0.46925567E+06</totfact>
</mgrwt>
</event>
<event>
 5    1  0.7934596E-005  0.1250010E+03  0.7818608E-02  0.1235068E+00
         21   -1    0    0  502  501  0.00000000000E+00  0.00000000000E+00  0.62981881020E+02  0.62981881020E+02  0.00000000000E+00 0.  1.
         21   -1    0    0  501  502 -0.00000000000E+00 -0.00000000000E+00 -0.62022780932E+02  0.62022780932E+02  0.00000000000E+00 0.  1.
         25    2    1    2    0    0  0.00000000000E+00  0.00000000000E+00  0.95910008792E+00  0.12500466195E+03  0.12500098254E+03 0.  0.
        -13    1    3    3    0    0  0.54156996600E+02  0.12937702963E+02  0.28869394077E+02  0.62720152468E+02  0.10570000000E+00 0.  1.
         13    1    3    3    0    0 -0.54156996600E+02 -0.12937702963E+02 -0.27910293989E+02  0.62284509485E+02  0.10570000000E+00 0.  1.
<mgrwt>
<rscale>  0 0.12500098E+03</rscale>
<asrwt>0</asrwt>
<pdfrwt beam="1">  1       21 0.96895201E-02 0.12500098E+03</pdfrwt>
<pdfrwt beam="2">  1       21 0.95419663E-02 0.12500098E+03</pdfrwt>
<totfact> 0.74041092E+06</totfact>
</mgrwt>
</event>
<event>
 5    1  0.7934596E-005  0.1250008E+03  0.7818608E-02  0.1235068E+00
         21   -1    0    0  502  501  0.00000000000E+00  0.00000000000E+00  0.28597974414E+02  0.28597974414E+02  0.00000000000E+00 0. -1.
         21   -1    0    0  501  502 -0.00000000000E+00 -0.00000000000E+00 -0.13659368423E+03  0.13659368423E+03  0.00000000000E+00 0. -1.
         25    2    1    2    0    0  0.00000000000E+00  0.00000000000E+00 -0.10799570982E+03  0.16519165865E+03  0.12500084299E+03 0.  0.
        -13    1    3    3    0    0 -0.13336578347E+02 -0.60396560124E+02 -0.42127452812E+02  0.74835434453E+02  0.10570000000E+00 0.  1.
         13    1    3    3    0    0  0.13336578347E+02  0.60396560124E+02 -0.65868257006E+02  0.90356224193E+02  0.10570000000E+00 0.  1.
<mgrwt>
<rscale>  0 0.12500084E+03</rscale>
<asrwt>0</asrwt>
<pdfrwt beam="1">  1       21 0.43996882E-02 0.12500084E+03</pdfrwt>
<pdfrwt beam="2">  1       21 0.21014414E-01 0.12500084E+03</pdfrwt>
<totfact> 0.68889154E+06</totfact>
</mgrwt>
</event>
<event>
 5    1  0.7934596E-005  0.1250017E+03  0.7818608E-02  0.1235067E+00
         21   -1    0    0  502  501  0.00000000000E+00  0.00000000000E+00  0.14060727437E+03  0.14060727437E+03  0.00000000000E+00 0. -1.
         21   -1    0    0  501  502 -0.00000000000E+00 -0.00000000000E+00 -0.27782046450E+02  0.27782046450E+02  0.00000000000E+00 0. -1.
         25    2    1    2    0    0  0.00000000000E+00  0.00000000000E+00  0.11282522792E+03  0.16838932082E+03  0.12500172523E+03 0.  0.
        -13    1    3    3    0    0  0.55365372542E+02  0.28560011317E+02  0.63194801678E+02  0.88738902713E+02  0.10570000000E+00 0.  1.
         13    1    3    3    0    0 -0.55365372542E+02 -0.28560011317E+02  0.49630426241E+02  0.79650418106E+02  0.10570000000E+00 0.  1.
<mgrwt>
<rscale>  0 0.12500173E+03</rscale>
<asrwt>0</asrwt>
<pdfrwt beam="1">  1       21 0.21631888E-01 0.12500173E+03</pdfrwt>
<pdfrwt beam="2">  1       21 0.42741611E-02 0.12500173E+03</pdfrwt>
<totfact> 0.68505661E+06</totfact>
</mgrwt>
</event>
<event>
 5    1  0.7934596E-005  0.1250013E+03  0.7818608E-02  0.1235067E+00
         21   -1    0    0  502  501  0.00000000000E+00  0.00000000000E+00  0.33927179724E+02  0.33927179724E+02  0.00000000000E+00 0.  1.
         21   -1    0    0  501  502 -0.00000000000E+00 -0.00000000000E+00 -0.11513865447E+03  0.11513865447E+03  0.00000000000E+00 0.  1.
         25    2    1    2    0    0  0.00000000000E+00  0.00000000000E+00 -0.81211474747E+02  0.14906583420E+03  0.12500127717E+03 0.  0.
        -13    1    3    3    0    0  0.22747389069E+02 -0.18339422286E+02 -0.10649192582E+03  0.11042789302E+03  0.10570000000E+00 0. -1.
         13    1    3    3    0    0 -0.22747389069E+02  0.18339422286E+02  0.25280451075E+02  0.38637941175E+02  0.10570000000E+00 0. -1.
<mgrwt>
<rscale>  0 0.12500128E+03</rscale>
<asrwt>0</asrwt>
<pdfrwt beam="1">  1       21 0.52195661E-02 0.12500128E+03</pdfrwt>
<pdfrwt beam="2">  1       21 0.17713639E-01 0.12500128E+03</pdfrwt>
<totfact> 0.70874442E+06</totfact>
</mgrwt>
</event>
<event>
 5    1  0.7934596E-005  0.1250015E+03  0.7818608E-02  0.1235067E+00
         21   -1    0    0  502  501  0.00000000000E+00  0.00000000000E+00  0.66181697908E+02  0.66181697908E+02  0.00000000000E+00 0.  1.
         21   -1    0    0  501  502 -0.00000000000E+00 -0.00000000000E+00 -0.59024557565E+02  0.59024557565E+02  0.00000000000E+00 0.  1.
         25    2    1    2    0    0  0.00000000000E+00  0.00000000000E+00  0.71571403435E+01  0.12520625547E+03  0.12500152700E+03 0.  0.
        -13    1    3    3    0    0  0.23172758378E+02 -0.57526991838E+02  0.11337400729E+02  0.63046644229E+02  0.10570000000E+00 0.  1.
         13    1    3    3    0    0 -0.23172758378E+02  0.57526991838E+02 -0.41802603851E+01  0.62159611245E+02  0.10570000000E+00 0.  1.
<mgrwt>
<rscale>  0 0.12500153E+03</rscale>
<asrwt>0</asrwt>
<pdfrwt beam="1">  1       21 0.10181800E-01 0.12500153E+03</pdfrwt>
<pdfrwt beam="2">  1       21 0.90807012E-02 0.12500153E+03</pdfrwt>
<totfact> 0.74012838E+06</totfact>
</mgrwt>
</event>
<event>
 5    1  0.7934596E-005  0.1249974E+03  0.7818608E-02  0.1235073E+00
         21   -1    0    0  502  501  0.00000000000E+00  0.00000000000E+00  0.15219264438E+02  0.15219264438E+02  0.00000000000E+00 0. -1.
         21   -1    0    0  501  502 -0.00000000000E+00 -0.00000000000E+00 -0.25665424970E+03  0.25665424970E+03  0.00000000000E+00 0. -1.
         25    2    1    2    0    0  0.00000000000E+00  0.00000000000E+00 -0.24143498527E+03  0.27187351414E+03  0.12499742230E+03 0.  0.
        -13    1    3    3    0    0  0.15653483183E+02 -0.41357799573E+02 -0.24656389086E+02  0.50630502827E+02  0.10570000000E+00 0.  1.
         13    1    3    3    0    0 -0.15653483183E+02  0.41357799573E+02 -0.21677859618E+03  0.22124301131E+03  0.10570000000E+00 0.  1.
<mgrwt>
<rscale>  0 0.12499742E+03</rscale>
<asrwt>0</asrwt>
<pdfrwt beam="1">  1       21 0.23414254E-02 0.12499742E+03</pdfrwt>
<pdfrwt beam="2">  1       21 0.39485267E-01 0.12499742E+03</pdfrwt>
<totfact> 0.57881457E+06</totfact>
</mgrwt>
</event>
<event>
 5    1  0.7934596E-005  0.1250034E+03  0.7818608E-02  0.1235064E+00
         21   -1    0    0  502  501  0.00000000000E+00  0.00000000000E+00  0.66475571670E+02  0.66475571670E+02  0.00000000000E+00 0. -1.
         21   -1    0    0  501  502 -0.00000000000E+00 -0.00000000000E+00 -0.58765355430E+02  0.58765355430E+02  0.00000000000E+00 0. -1.
         25    2    1    2    0    0  0.00000000000E+00  0.00000000000E+00  0.77102162405E+01  0.12524092710E+03  0.12500336950E+03 0.  0.
        -13    1    3    3    0    0 -0.43744625236E+02 -0.22409999920E+02  0.42537405904E+02  0.65001864642E+02  0.10570000000E+00 0. -1.
         13    1    3    3    0    0  0.43744625236E+02  0.22409999920E+02 -0.34827189664E+02  0.60239062458E+02  0.10570000000E+00 0. -1.
<mgrwt>
<rscale>  0 0.12500337E+03</rscale>
<asrwt>0</asrwt>
<pdfrwt beam="1">  1       21 0.10227011E-01 0.12500337E+03</pdfrwt>
<pdfrwt beam="2">  1       21 0.90408240E-02 0.12500337E+03</pdfrwt>
<totfact> 0.74004671E+06</totfact>
</mgrwt>
</event>
<event>
 5    1  0.7934596E-005  0.1249969E+03  0.7818608E-02  0.1235074E+00
         21   -1    0    0  502  501  0.00000000000E+00  0.00000000000E+00  0.92243391554E+02  0.92243391554E+02  0.00000000000E+00 0.  1.
         21   -1    0    0  501  502 -0.00000000000E+00 -0.00000000000E+00 -0.42345108205E+02  0.42345108205E+02  0.00000000000E+00 0.  1.
         25    2    1    2    0    0  0.00000000000E+00  0.00000000000E+00  0.49898283349E+02  0.13458849976E+03  0.12499690231E+03 0.  0.
        -13    1    3    3    0    0  0.51388655533E+02  0.21531898583E+01  0.63178758997E+02  0.81467766048E+02  0.10570000000E+00 0. -1.
         13    1    3    3    0    0 -0.51388655533E+02 -0.21531898583E+01 -0.13280475648E+02  0.53120733710E+02  0.10570000000E+00 0. -1.
<mgrwt>
<rscale>  0 0.12499690E+03</rscale>
<asrwt>0</asrwt>
<pdfrwt beam="1">  1       21 0.14191291E-01 0.12499690E+03</pdfrwt>
<pdfrwt beam="2">  1       21 0.65146321E-02 0.12499690E+03</pdfrwt>
<totfact> 0.72756752E+06</totfact>
</mgrwt>
</event>
<event>
 5    1  0.7934596E-005  0.1250420E+03  0.7818608E-02  0.1235004E+00
         21   -1    0    0  502  501  0.00000000000E+00  0.00000000000E+00  0.51944143093E+02  0.51944143093E+02  0.00000000000E+00 0. -1.
         21   -1    0    0  501  502 -0.00000000000E+00 -0.00000000000E+00 -0.75251473739E+02  0.75251473739E+02  0.00000000000E+00 0. -1.
         25    2    1    2    0    0  0.00000000000E+00  0.00000000000E+00 -0.23307330647E+02  0.12719561683E+03  0.12504196607E+03 0.  0.
        -13    1    3    3    0    0 -0.36264507075E+02 -0.46576315864E+02  0.93019883583E+01  0.59757893477E+02  0.10570000000E+00 0. -1.
         13    1    3    3    0    0  0.36264507075E+02  0.46576315864E+02 -0.32609319005E+02  0.67437723355E+02  0.10570000000E+00 0. -1.
<mgrwt>
<rscale>  0 0.12504197E+03</rscale>
<asrwt>0</asrwt>
<pdfrwt beam="1">  1       21 0.79914067E-02 0.12504197E+03</pdfrwt>
<pdfrwt beam="2">  1       21 0.11577150E-01 0.12504197E+03</pdfrwt>
<totfact> 0.73663587E+06</totfact>
</mgrwt>
</event>
<event>
 5    1  0.7934596E-005  0.1249997E+03  0.7818608E-02  0.1235070E+00
         21   -1    0    0  502  501  0.00000000000E+00  0.00000000000E+00  0.23493778390E+03  0.23493778390E+03  0.00000000000E+00 0. -1.
         21   -1    0    0  501  502 -0.00000000000E+00 -0.00000000000E+00 -0.16626651634E+02  0.16626651634E+02  0.00000000000E+00 0. -1.
         25    2    1    2    0    0  0.00000000000E+00  0.00000000000E+00  0.21831113226E+03  0.25156443553E+03  0.12499965902E+03 0.  0.
        -13    1    3    3    0    0  0.37820676161E+02  0.40836688588E+02  0.16636849117E+03  0.17543239355E+03  0.10570000000E+00 0. -1.
         13    1    3    3    0    0 -0.37820676161E+02 -0.40836688588E+02  0.51942641099E+02  0.76132041986E+02  0.10570000000E+00 0. -1.
<mgrwt>
<rscale>  0 0.12499966E+03</rscale>
<asrwt>0</asrwt>
<pdfrwt beam="1">  1       21 0.36144272E-01 0.12499966E+03</pdfrwt>
<pdfrwt beam="2">  1       21 0.25579466E-02 0.12499966E+03</pdfrwt>
<totfact> 0.59731726E+06</totfact>
</mgrwt>
</event>
<event>
 5    1  0.7934596E-005  0.1249992E+03  0.7818608E-02  0.1235070E+00
         21   -1    0    0  502  501  0.00000000000E+00  0.00000000000E+00  0.10103408052E+03  0.10103408052E+03  0.00000000000E+00 0. -1.
         21   -1    0    0  501  502 -0.00000000000E+00 -0.00000000000E+00 -0.38662221220E+02  0.38662221220E+02  0.00000000000E+00 0. -1.
         25    2    1    2    0    0  0.00000000000E+00  0.00000000000E+00  0.62371859299E+02  0.13969630174E+03  0.12499923155E+03 0.  0.
        -13    1    3    3    0    0  0.32879969563E+02 -0.96806931003E+00  0.90577158351E+02  0.96365254859E+02  0.10570000000E+00 0. -1.
         13    1    3    3    0    0 -0.32879969563E+02  0.96806931003E+00 -0.28205299052E+02  0.43331046880E+02  0.10570000000E+00 0. -1.
<mgrwt>
<rscale>  0 0.12499923E+03</rscale>
<asrwt>0</asrwt>
<pdfrwt beam="1">  1       21 0.15543705E-01 0.12499923E+03</pdfrwt>
<pdfrwt beam="2">  1       21 0.59480341E-02 0.12499923E+03</pdfrwt>
<totfact> 0.72080391E+06</totfact>
</mgrwt>
</event>
<event>
 5    1  0.7934596E-005  0.1249973E+03  0.7818608E-02  0.1235073E+00
         21   -1    0    0  502  501  0.00000000000E+00  0.00000000000E+00  0.44576400993E+03  0.44576400993E+03  0.00000000000E+00 0.  1.
         21   -1    0    0  501  502 -0.00000000000E+00 -0.00000000000E+00 -0.87626708387E+01  0.87626708387E+01  0.00000000000E+00 0.  1.
         25    2    1    2    0    0  0.00000000000E+00  0.00000000000E+00  0.43700133909E+03  0.45452668076E+03  0.12499733262E+03 0.  0.
        -13    1    3    3    0    0  0.17382287587E+01  0.59847952451E+02  0.28367790421E+03  0.28992751398E+03  0.10570000000E+00 0.  1.
         13    1    3    3    0    0 -0.17382287587E+01 -0.59847952451E+02  0.15332343488E+03  0.16459916679E+03  0.10570000000E+00 0.  1.
<mgrwt>
<rscale>  0 0.12499733E+03</rscale>
<asrwt>0</asrwt>
<pdfrwt beam="1">  1       21 0.68579061E-01 0.12499733E+03</pdfrwt>
<pdfrwt beam="2">  1       21 0.13481036E-02 0.12499733E+03</pdfrwt>
<totfact> 0.44625610E+06</totfact>
</mgrwt>
</event>
<event>
 5    1  0.7934596E-005  0.1250006E+03  0.7818608E-02  0.1235068E+00
         21   -1    0    0  502  501  0.00000000000E+00  0.00000000000E+00  0.59942896494E+02  0.59942896494E+02  0.00000000000E+00 0. -1.
         21   -1    0    0  501  502 -0.00000000000E+00 -0.00000000000E+00 -0.65166768442E+02  0.65166768442E+02  0.00000000000E+00 0. -1.
         25    2    1    2    0    0  0.00000000000E+00  0.00000000000E+00 -0.52238719484E+01  0.12510966494E+03  0.12500055769E+03 0.  0.
        -13    1    3    3    0    0  0.34178825697E+02  0.36693234672E+02  0.34725962036E+02  0.60995813042E+02  0.10570000000E+00 0.  1.
         13    1    3    3    0    0 -0.34178825697E+02 -0.36693234672E+02 -0.39949833985E+02  0.64113851894E+02  0.10570000000E+00 0.  1.
<mgrwt>
<rscale>  0 0.12500056E+03</rscale>
<asrwt>0</asrwt>
<pdfrwt beam="1">  1       21 0.92219840E-02 0.12500056E+03</pdfrwt>
<pdfrwt beam="2">  1       21 0.10025657E-01 0.12500056E+03</pdfrwt>
<totfact> 0.74027715E+06</totfact>
</mgrwt>
</event>
<event>
 5    1  0.7934596E-005  0.1249996E+03  0.7818608E-02  0.1235070E+00
         21   -1    0    0  502  501  0.00000000000E+00  0.00000000000E+00  0.39828384394E+02  0.39828384394E+02  0.00000000000E+00 0.  1.
         21   -1    0    0  501  502 -0.00000000000E+00 -0.00000000000E+00 -0.98076451411E+02  0.98076451411E+02  0.00000000000E+00 0.  1.
         25    2    1    2    0    0  0.00000000000E+00  0.00000000000E+00 -0.58248067017E+02  0.13790483581E+03  0.12499962571E+03 0.  0.
        -13    1    3    3    0    0 -0.16780078915E+02 -0.52457081929E+02 -0.61719167175E+02  0.82719908500E+02  0.10570000000E+00 0.  1.
         13    1    3    3    0    0  0.16780078915E+02  0.52457081929E+02  0.34711001581E+01  0.55184927306E+02  0.10570000000E+00 0.  1.
<mgrwt>
<rscale>  0 0.12499963E+03</rscale>
<asrwt>0</asrwt>
<pdfrwt beam="1">  1       21 0.61274438E-02 0.12499963E+03</pdfrwt>
<pdfrwt beam="2">  1       21 0.15088685E-01 0.12499963E+03</pdfrwt>
<totfact> 0.72314711E+06</totfact>
</mgrwt>
</event>
<event>
 5    1  0.7934596E-005  0.1250156E+03  0.7818608E-02  0.1235045E+00
         21   -1    0    0  502  501  0.00000000000E+00  0.00000000000E+00  0.29224086789E+02  0.29224086789E+02  0.00000000000E+00 0.  1.
         21   -1    0    0  501  502 -0.00000000000E+00 -0.00000000000E+00 -0.13369868585E+03  0.13369868585E+03  0.00000000000E+00 0.  1.
         25    2    1    2    0    0  0.00000000000E+00  0.00000000000E+00 -0.10447459906E+03  0.16292277264E+03  0.12501555102E+03 0.  0.
        -13    1    3    3    0    0  0.40225196466E+02  0.18903631965E+02  0.50421066799E+01  0.44730836617E+02  0.10570000000E+00 0.  1.
         13    1    3    3    0    0 -0.40225196466E+02 -0.18903631965E+02 -0.10951670574E+03  0.11819193603E+03  0.10570000000E+00 0.  1.
<mgrwt>
<rscale>  0 0.12501555E+03</rscale>
<asrwt>0</asrwt>
<pdfrwt beam="1">  1       21 0.44960134E-02 0.12501555E+03</pdfrwt>
<pdfrwt beam="2">  1       21 0.20569029E-01 0.12501555E+03</pdfrwt>
<totfact> 0.69136786E+06</totfact>
</mgrwt>
</event>
<event>
 5    1  0.7934596E-005  0.1250005E+03  0.7818608E-02  0.1235068E+00
         21   -1    0    0  502  501  0.00000000000E+00  0.00000000000E+00  0.73514584860E+02  0.73514584860E+02  0.00000000000E+00 0. -1.
         21   -1    0    0  501  502 -0.00000000000E+00 -0.00000000000E+00 -0.53136140324E+02  0.53136140324E+02  0.00000000000E+00 0. -1.
         25    2    1    2    0    0  0.00000000000E+00  0.00000000000E+00  0.20378444536E+02  0.12665072518E+03  0.12500050075E+03 0.  0.
        -13    1    3    3    0    0 -0.29659382844E+02  0.54197898572E+02  0.19757351721E+02  0.64864900522E+02  0.10570000000E+00 0.  1.
         13    1    3    3    0    0  0.29659382844E+02 -0.54197898572E+02  0.62109281470E+00  0.61785824661E+02  0.10570000000E+00 0.  1.
<mgrwt>
<rscale>  0 0.12500050E+03</rscale>
<asrwt>0</asrwt>
<pdfrwt beam="1">  1       21 0.11309936E-01 0.12500050E+03</pdfrwt>
<pdfrwt beam="2">  1       21 0.81747908E-02 0.12500050E+03</pdfrwt>
<totfact> 0.73815821E+06</totfact>
</mgrwt>
</event>
<event>
 5    1  0.7934596E-005  0.1250011E+03  0.7818608E-02  0.1235067E+00
         21   -1    0    0  502  501  0.00000000000E+00  0.00000000000E+00  0.76422414126E+01  0.76422414126E+01  0.00000000000E+00 0.  1.
         21   -1    0    0  501  502 -0.00000000000E+00 -0.00000000000E+00 -0.51114868274E+03  0.51114868274E+03  0.00000000000E+00 0.  1.
         25    2    1    2    0    0  0.00000000000E+00  0.00000000000E+00 -0.50350644133E+03  0.51879092415E+03  0.12500114609E+03 0.  0.
        -13    1    3    3    0    0  0.11435634673E+02 -0.57250183348E+02 -0.34436636933E+03  0.34928006632E+03  0.10570000000E+00 0.  1.
         13    1    3    3    0    0 -0.11435634673E+02  0.57250183348E+02 -0.15914007200E+03  0.16951085783E+03  0.10570000000E+00 0.  1.
<mgrwt>
<rscale>  0 0.12500115E+03</rscale>
<asrwt>0</asrwt>
<pdfrwt beam="1">  1       21 0.11757296E-02 0.12500115E+03</pdfrwt>
<pdfrwt beam="2">  1       21 0.78638252E-01 0.12500115E+03</pdfrwt>
<totfact> 0.41041826E+06</totfact>
</mgrwt>
</event>
<event>
 5    1  0.7934596E-005  0.1250001E+03  0.7818608E-02  0.1235069E+00
         21   -1    0    0  502  501  0.00000000000E+00  0.00000000000E+00  0.63850730037E+03  0.63850730037E+03  0.00000000000E+00 0. -1.
         21   -1    0    0  501  502 -0.00000000000E+00 -0.00000000000E+00 -0.61177971826E+01  0.61177971826E+01  0.00000000000E+00 0. -1.
         25    2    1    2    0    0  0.00000000000E+00  0.00000000000E+00  0.63238950319E+03  0.64462509755E+03  0.12500013061E+03 0.  0.
        -13    1    3    3    0    0  0.28903228462E+02  0.55164481975E+02  0.34335126786E+03  0.34895360867E+03  0.10570000000E+00 0. -1.
         13    1    3    3    0    0 -0.28903228462E+02 -0.55164481975E+02  0.28903823533E+03  0.29567148889E+03  0.10570000000E+00 0. -1.
<mgrwt>
<rscale>  0 0.12500013E+03</rscale>
<asrwt>0</asrwt>
<pdfrwt beam="1">  1       21 0.98231840E-01 0.12500013E+03</pdfrwt>
<pdfrwt beam="2">  1       21 0.94120007E-03 0.12500013E+03</pdfrwt>
<totfact> 0.35148963E+06</totfact>
</mgrwt>
</event>
<event>
 5    1  0.7934596E-005  0.1249995E+03  0.7818608E-02  0.1235070E+00
         21   -1    0    0  502  501  0.00000000000E+00  0.00000000000E+00  0.95876597271E+01  0.95876597271E+01  0.00000000000E+00 0. -1.
         21   -1    0    0  501  502 -0.00000000000E+00 -0.00000000000E+00 -0.40742135779E+03  0.40742135779E+03  0.00000000000E+00 0. -1.
         25    2    1    2    0    0  0.00000000000E+00  0.00000000000E+00 -0.39783369806E+03  0.41700901751E+03  0.12499947750E+03 0.  0.
        -13    1    3    3    0    0  0.60461829736E+01 -0.61001992235E+02 -0.15827587303E+03  0.16973232615E+03  0.10570000000E+00 0.  1.
         13    1    3    3    0    0 -0.60461829736E+01  0.61001992235E+02 -0.23955782503E+03  0.24727669136E+03  0.10570000000E+00 0.  1.
<mgrwt>
<rscale>  0 0.12499948E+03</rscale>
<asrwt>0</asrwt>
<pdfrwt beam="1">  1       21 0.14750250E-02 0.12499948E+03</pdfrwt>
<pdfrwt beam="2">  1       21 0.62680190E-01 0.12499948E+03</pdfrwt>
<totfact> 0.46933872E+06</totfact>
</mgrwt>
</event>
<event>
 5    1  0.7934596E-005  0.1250021E+03  0.7818608E-02  0.1235066E+00
         21   -1    0    0  502  501  0.00000000000E+00  0.00000000000E+00  0.38416576907E+02  0.38416576907E+02  0.00000000000E+00 0.  1.
         21   -1    0    0  501  502 -0.00000000000E+00 -0.00000000000E+00 -0.10168482681E+03  0.10168482681E+03  0.00000000000E+00 0.  1.
         25    2    1    2    0    0  0.00000000000E+00  0.00000000000E+00 -0.63268249906E+02  0.14010140372E+03  0.12500212749E+03 0.  0.
        -13    1    3    3    0    0 -0.23521134813E+02  0.56819160933E+02 -0.19117783516E+02  0.64398460005E+02  0.10570000000E+00 0. -1.
         13    1    3    3    0    0  0.23521134813E+02 -0.56819160933E+02 -0.44150466390E+02  0.75702943714E+02  0.10570000000E+00 0. -1.
<mgrwt>
<rscale>  0 0.12500213E+03</rscale>
<asrwt>0</asrwt>
<pdfrwt beam="1">  1       21 0.59102426E-02 0.12500213E+03</pdfrwt>
<pdfrwt beam="2">  1       21 0.15643820E-01 0.12500213E+03</pdfrwt>
<totfact> 0.72022169E+06</totfact>
</mgrwt>
</event>
<event>
 5    1  0.7934596E-005  0.1249849E+03  0.7818608E-02  0.1235093E+00
         21   -1    0    0  502  501  0.00000000000E+00  0.00000000000E+00  0.33882809802E+03  0.33882809802E+03  0.00000000000E+00 0.  1.
         21   -1    0    0  501  502 -0.00000000000E+00 -0.00000000000E+00 -0.11525928085E+02  0.11525928085E+02  0.00000000000E+00 0.  1.
         25    2    1    2    0    0  0.00000000000E+00  0.00000000000E+00  0.32730216994E+03  0.35035402611E+03  0.12498493175E+03 0.  0.
        -13    1    3    3    0    0  0.94044434941E+01 -0.59209477742E+02  0.21309278468E+03  0.22136565196E+03  0.10570000000E+00 0.  1.
         13    1    3    3    0    0 -0.94044434941E+01  0.59209477742E+02  0.11420938525E+03  0.12898837414E+03  0.10570000000E+00 0.  1.
<mgrwt>
<rscale>  0 0.12498493E+03</rscale>
<asrwt>0</asrwt>
<pdfrwt beam="1">  1       21 0.52127392E-01 0.12498493E+03</pdfrwt>
<pdfrwt beam="2">  1       21 0.17732200E-02 0.12498493E+03</pdfrwt>
<totfact> 0.51531748E+06</totfact>
</mgrwt>
</event>
<event>
 5    1  0.7934596E-005  0.1249894E+03  0.7818608E-02  0.1235086E+00
         21   -1    0    0  502  501  0.00000000000E+00  0.00000000000E+00  0.91790412751E+02  0.91790412751E+02  0.00000000000E+00 0. -1.
         21   -1    0    0  501  502 -0.00000000000E+00 -0.00000000000E+00 -0.42548942274E+02  0.42548942274E+02  0.00000000000E+00 0. -1.
         25    2    1    2    0    0  0.00000000000E+00  0.00000000000E+00  0.49241470477E+02  0.13433935503E+03  0.12498935912E+03 0.  0.
        -13    1    3    3    0    0 -0.21894965582E+02 -0.36365011540E+02 -0.24677272550E+02  0.49099720316E+02  0.10570000000E+00 0. -1.
         13    1    3    3    0    0  0.21894965582E+02  0.36365011540E+02  0.73918743027E+02  0.85239634709E+02  0.10570000000E+00 0. -1.
<mgrwt>
<rscale>  0 0.12498936E+03</rscale>
<asrwt>0</asrwt>
<pdfrwt beam="1">  1       21 0.14121602E-01 0.12498936E+03</pdfrwt>
<pdfrwt beam="2">  1       21 0.65459911E-02 0.12498936E+03</pdfrwt>
<totfact> 0.72803823E+06</totfact>
</mgrwt>
</event>
<event>
 5    1  0.7934596E-005  0.1250001E+03  0.7818608E-02  0.1235069E+00
         21   -1    0    0  502  501  0.00000000000E+00  0.00000000000E+00  0.32192978009E+03  0.32192978009E+03  0.00000000000E+00 0. -1.
         21   -1    0    0  501  502 -0.00000000000E+00 -0.00000000000E+00 -0.12133867069E+02  0.12133867069E+02  0.00000000000E+00 0. -1.
         25    2    1    2    0    0  0.00000000000E+00  0.00000000000E+00  0.30979591302E+03  0.33406364716E+03  0.12500005052E+03 0.  0.
        -13    1    3    3    0    0 -0.56578614337E+02 -0.78640925467E+01  0.22267954990E+03  0.22988948795E+03  0.10570000000E+00 0. -1.
         13    1    3    3    0    0  0.56578614337E+02  0.78640925467E+01  0.87116363119E+02  0.10417415921E+03  0.10570000000E+00 0. -1.
<mgrwt>
<rscale>  0 0.12500005E+03</rscale>
<asrwt>0</asrwt>
<pdfrwt beam="1">  1       21 0.49527652E-01 0.12500005E+03</pdfrwt>
<pdfrwt beam="2">  1       21 0.18667490E-02 0.12500005E+03</pdfrwt>
<totfact> 0.52737291E+06</totfact>
</mgrwt>
</event>
<event>
 5    1  0.7934596E-005  0.1250043E+03  0.7818608E-02  0.1235063E+00
         21   -1    0    0  502  501  0.00000000000E+00  0.00000000000E+00  0.22031779997E+03  0.22031779997E+03  0.00000000000E+00 0. -1.
         21   -1    0    0  501  502 -0.00000000000E+00 -0.00000000000E+00 -0.17731285307E+02  0.17731285307E+02  0.00000000000E+00 0. -1.
         25    2    1    2    0    0  0.00000000000E+00  0.00000000000E+00  0.20258651467E+03  0.23804908528E+03  0.12500428424E+03 0.  0.
        -13    1    3    3    0    0  0.81388833049E-01 -0.42303540151E+02  0.13675352461E+02  0.44459223687E+02  0.10570000000E+00 0. -1.
         13    1    3    3    0    0 -0.81388833049E-01  0.42303540151E+02  0.18891116220E+03  0.19358986159E+03  0.10570000000E+00 0. -1.
<mgrwt>
<rscale>  0 0.12500428E+03</rscale>
<asrwt>0</asrwt>
<pdfrwt beam="1">  1       21 0.33895044E-01 0.12500428E+03</pdfrwt>
<pdfrwt beam="2">  1       21 0.27278902E-02 0.12500428E+03</pdfrwt>
<totfact> 0.61015366E+06</totfact>
</mgrwt>
</event>
<event>
 5    1  0.7934596E-005  0.1249980E+03  0.7818608E-02  0.1235072E+00
         21   -1    0    0  502  501  0.00000000000E+00  0.00000000000E+00  0.71466752697E+02  0.71466752697E+02  0.00000000000E+00 0.  1.
         21   -1    0    0  501  502 -0.00000000000E+00 -0.00000000000E+00 -0.54656512853E+02  0.54656512853E+02  0.00000000000E+00 0.  1.
         25    2    1    2    0    0  0.00000000000E+00  0.00000000000E+00  0.16810239844E+02  0.12612326555E+03  0.12499797578E+03 0.  0.
        -13    1    3    3    0    0  0.13366538666E+02 -0.51324573593E+02 -0.24956659742E+02  0.58615034320E+02  0.10570000000E+00 0. -1.
         13    1    3    3    0    0 -0.13366538666E+02  0.51324573593E+02  0.41766899585E+02  0.67508231230E+02  0.10570000000E+00 0. -1.
<mgrwt>
<rscale>  0 0.12499798E+03</rscale>
<asrwt>0</asrwt>
<pdfrwt beam="1">  1       21 0.10994885E-01 0.12499798E+03</pdfrwt>
<pdfrwt beam="2">  1       21 0.84086943E-02 0.12499798E+03</pdfrwt>
<totfact> 0.73892877E+06</totfact>
</mgrwt>
</event>
<event>
 5    1  0.7934596E-005  0.1249995E+03  0.7818608E-02  0.1235070E+00
         21   -1    0    0  502  501  0.00000000000E+00  0.00000000000E+00  0.15756509830E+02  0.15756509830E+02  0.00000000000E+00 0.  1.
         21   -1    0    0  501  502 -0.00000000000E+00 -0.00000000000E+00 -0.24791125080E+03  0.24791125080E+03  0.00000000000E+00 0.  1.
         25    2    1    2    0    0  0.00000000000E+00  0.00000000000E+00 -0.23215474097E+03  0.26366776063E+03  0.12499945696E+03 0.  0.
        -13    1    3    3    0    0 -0.16344509593E+02  0.57454461692E+02 -0.77294739211E+02  0.97686468072E+02  0.10570000000E+00 0.  1.
         13    1    3    3    0    0  0.16344509593E+02 -0.57454461692E+02 -0.15486000176E+03  0.16598129256E+03  0.10570000000E+00 0.  1.
<mgrwt>
<rscale>  0 0.12499946E+03</rscale>
<asrwt>0</asrwt>
<pdfrwt beam="1">  1       21 0.24240785E-02 0.12499946E+03</pdfrwt>
<pdfrwt beam="2">  1       21 0.38140192E-01 0.12499946E+03</pdfrwt>
<totfact> 0.58615526E+06</totfact>
</mgrwt>
</event>
<event>
 5    1  0.7934596E-005  0.1249891E+03  0.7818608E-02  0.1235086E+00
         21   -1    0    0  502  501  0.00000000000E+00  0.00000000000E+00  0.18747359499E+02  0.18747359499E+02  0.00000000000E+00 0. -1.
         21   -1    0    0  501  502 -0.00000000000E+00 -0.00000000000E+00 -0.20832618636E+03  0.20832618636E+03  0.00000000000E+00 0. -1.
         25    2    1    2    0    0  0.00000000000E+00  0.00000000000E+00 -0.18957882686E+03  0.22707354586E+03  0.12498905406E+03 0.  0.
        -13    1    3    3    0    0 -0.32107829544E+01  0.58570933468E+02 -0.13395249527E+03  0.14623318890E+03  0.10570000000E+00 0.  1.
         13    1    3    3    0    0  0.32107829544E+01 -0.58570933468E+02 -0.55626331594E+02  0.80840356961E+02  0.10570000000E+00 0.  1.
<mgrwt>
<rscale>  0 0.12498905E+03</rscale>
<asrwt>0</asrwt>
<pdfrwt beam="1">  1       21 0.28842092E-02 0.12498905E+03</pdfrwt>
<pdfrwt beam="2">  1       21 0.32050182E-01 0.12498905E+03</pdfrwt>
<totfact> 0.62123592E+06</totfact>
</mgrwt>
</event>
<event>
 5    1  0.7934596E-005  0.1249978E+03  0.7818608E-02  0.1235073E+00
         21   -1    0    0  502  501  0.00000000000E+00  0.00000000000E+00  0.19685013589E+02  0.19685013589E+02  0.00000000000E+00 0. -1.
         21   -1    0    0  501  502 -0.00000000000E+00 -0.00000000000E+00 -0.19843074839E+03  0.19843074839E+03  0.00000000000E+00 0. -1.
         25    2    1    2    0    0  0.00000000000E+00  0.00000000000E+00 -0.17874573480E+03  0.21811576198E+03  0.12499779164E+03 0.  0.
        -13    1    3    3    0    0 -0.33693917842E+02  0.50892497168E+02 -0.11283422942E+03  0.12828445295E+03  0.10570000000E+00 0. -1.
         13    1    3    3    0    0  0.33693917842E+02 -0.50892497168E+02 -0.65911505374E+02  0.89831309022E+02  0.10570000000E+00 0. -1.
<mgrwt>
<rscale>  0 0.12499779E+03</rscale>
<asrwt>0</asrwt>
<pdfrwt beam="1">  1       21 0.30284637E-02 0.12499779E+03</pdfrwt>
<pdfrwt beam="2">  1       21 0.30527807E-01 0.12499779E+03</pdfrwt>
<totfact> 0.63019168E+06</totfact>
</mgrwt>
</event>
<event>
 5    1  0.7934596E-005  0.1249999E+03  0.7818608E-02  0.1235069E+00
         21   -1    0    0  502  501  0.00000000000E+00  0.00000000000E+00  0.16239800639E+03  0.16239800639E+03  0.00000000000E+00 0.  1.
         21   -1    0    0  501  502 -0.00000000000E+00 -0.00000000000E+00 -0.24053530072E+02  0.24053530072E+02  0.00000000000E+00 0.  1.
         25    2    1    2    0    0  0.00000000000E+00  0.00000000000E+00  0.13834447631E+03  0.18645153646E+03  0.12499992528E+03 0.  0.
        -13    1    3    3    0    0 -0.46374665679E+01 -0.61850790572E+02  0.80649692009E+02  0.10174188117E+03  0.10570000000E+00 0. -1.
         13    1    3    3    0    0  0.46374665679E+01  0.61850790572E+02  0.57694784305E+02  0.84709655288E+02  0.10570000000E+00 0. -1.
<mgrwt>
<rscale>  0 0.12499993E+03</rscale>
<asrwt>0</asrwt>
<pdfrwt beam="1">  1       21 0.24984308E-01 0.12499993E+03</pdfrwt>
<pdfrwt beam="2">  1       21 0.37005432E-02 0.12499993E+03</pdfrwt>
<totfact> 0.66419158E+06</totfact>
</mgrwt>
</event>
<event>
 5    1  0.7934596E-005  0.1250006E+03  0.7818608E-02  0.1235068E+00
         21   -1    0    0  502  501  0.00000000000E+00  0.00000000000E+00  0.36857001600E+02  0.36857001600E+02  0.00000000000E+00 0.  1.
         21   -1    0    0  501  502 -0.00000000000E+00 -0.00000000000E+00 -0.10598498015E+03  0.10598498015E+03  0.00000000000E+00 0.  1.
         25    2    1    2    0    0  0.00000000000E+00  0.00000000000E+00 -0.69127978550E+02  0.14284198175E+03  0.12500061733E+03 0.  0.
        -13    1    3    3    0    0 -0.34189985219E+02  0.85914406312E+01  0.24411402090E+02  0.42880014761E+02  0.10570000000E+00 0.  1.
         13    1    3    3    0    0  0.34189985219E+02 -0.85914406312E+01 -0.93539380640E+02  0.99961966990E+02  0.10570000000E+00 0.  1.
<mgrwt>
<rscale>  0 0.12500062E+03</rscale>
<asrwt>0</asrwt>
<pdfrwt beam="1">  1       21 0.56703081E-02 0.12500062E+03</pdfrwt>
<pdfrwt beam="2">  1       21 0.16305381E-01 0.12500062E+03</pdfrwt>
<totfact> 0.71669304E+06</totfact>
</mgrwt>
</event>
<event>
 5    1  0.7934596E-005  0.1249974E+03  0.7818608E-02  0.1235073E+00
         21   -1    0    0  502  501  0.00000000000E+00  0.00000000000E+00  0.10257712815E+03  0.10257712815E+03  0.00000000000E+00 0.  1.
         21   -1    0    0  501  502 -0.00000000000E+00 -0.00000000000E+00 -0.38079528368E+02  0.38079528368E+02  0.00000000000E+00 0.  1.
         25    2    1    2    0    0  0.00000000000E+00  0.00000000000E+00  0.64497599779E+02  0.14065665651E+03  0.12499741855E+03 0.  0.
        -13    1    3    3    0    0  0.22004345374E+02  0.27304053267E+01  0.98002231973E+02  0.10047932610E+03  0.10570000000E+00 0.  1.
         13    1    3    3    0    0 -0.22004345374E+02 -0.27304053267E+01 -0.33504632194E+02  0.40177330418E+02  0.10570000000E+00 0.  1.
<mgrwt>
<rscale>  0 0.12499742E+03</rscale>
<asrwt>0</asrwt>
<pdfrwt beam="1">  1       21 0.15781097E-01 0.12499742E+03</pdfrwt>
<pdfrwt beam="2">  1       21 0.58583890E-02 0.12499742E+03</pdfrwt>
<totfact> 0.71958431E+06</totfact>
</mgrwt>
</event>
<event>
 5    1  0.7934596E-005  0.1250029E+03  0.7818608E-02  0.1235065E+00
         21   -1    0    0  502  501  0.00000000000E+00  0.00000000000E+00  0.52333665963E+02  0.52333665963E+02  0.00000000000E+00 0. -1.
         21   -1    0    0  501  502 -0.00000000000E+00 -0.00000000000E+00 -0.74644720407E+02  0.74644720407E+02  0.00000000000E+00 0. -1.
         25    2    1    2    0    0  0.00000000000E+00  0.00000000000E+00 -0.22311054444E+02  0.12697838637E+03  0.12500290978E+03 0.  0.
        -13    1    3    3    0    0  0.36894301957E+02 -0.69613784967E+01 -0.61912882306E+02  0.72407641002E+02  0.10570000000E+00 0. -1.
         13    1    3    3    0    0 -0.36894301957E+02  0.69613784967E+01  0.39601827862E+02  0.54570745368E+02  0.10570000000E+00 0. -1.
<mgrwt>
<rscale>  0 0.12500291E+03</rscale>
<asrwt>0</asrwt>
<pdfrwt beam="1">  1       21 0.80513332E-02 0.12500291E+03</pdfrwt>
<pdfrwt beam="2">  1       21 0.11483803E-01 0.12500291E+03</pdfrwt>
<totfact> 0.73766600E+06</totfact>
</mgrwt>
</event>
<event>
 5    1  0.7934596E-005  0.1249973E+03  0.7818608E-02  0.1235074E+00
         21   -1    0    0  502  501  0.00000000000E+00  0.00000000000E+00  0.12291620955E+03  0.12291620955E+03  0.00000000000E+00 0.  1.
         21   -1    0    0  501  502 -0.00000000000E+00 -0.00000000000E+00 -0.31778385395E+02  0.31778385395E+02  0.00000000000E+00 0.  1.
         25    2    1    2    0    0  0.00000000000E+00  0.00000000000E+00  0.91137824152E+02  0.15469459494E+03  0.12499725882E+03 0.  0.
        -13    1    3    3    0    0 -0.37621008064E+02  0.19261608230E+01  0.10728722438E+03  0.11370844309E+03  0.10570000000E+00 0. -1.
         13    1    3    3    0    0  0.37621008064E+02 -0.19261608230E+01 -0.16149400226E+02  0.40986151850E+02  0.10570000000E+00 0. -1.
<mgrwt>
<rscale>  0 0.12499726E+03</rscale>
<asrwt>0</asrwt>
<pdfrwt beam="1">  1       21 0.18910186E-01 0.12499726E+03</pdfrwt>
<pdfrwt beam="2">  1       21 0.48889824E-02 0.12499726E+03</pdfrwt>
<totfact> 0.70178530E+06</totfact>
</mgrwt>
</event>
<event>
 5    1  0.7934596E-005  0.1249944E+03  0.7818608E-02  0.1235078E+00
         21   -1    0    0  502  501  0.00000000000E+00  0.00000000000E+00  0.32574807815E+03  0.32574807815E+03  0.00000000000E+00 0. -1.
         21   -1    0    0  501  502 -0.00000000000E+00 -0.00000000000E+00 -0.11990553931E+02  0.11990553931E+02  0.00000000000E+00 0. -1.
         25    2    1    2    0    0  0.00000000000E+00  0.00000000000E+00  0.31375752422E+03  0.33773863209E+03  0.12499439826E+03 0.  0.
        -13    1    3    3    0    0 -0.39829726756E+02 -0.42601936421E+02  0.21757267519E+03  0.22525366208E+03  0.10570000000E+00 0. -1.
         13    1    3    3    0    0  0.39829726756E+02  0.42601936421E+02  0.96184849038E+02  0.11248497001E+03  0.10570000000E+00 0. -1.
<mgrwt>
<rscale>  0 0.12499440E+03</rscale>
<asrwt>0</asrwt>
<pdfrwt beam="1">  1       21 0.50115082E-01 0.12499440E+03</pdfrwt>
<pdfrwt beam="2">  1       21 0.18447009E-02 0.12499440E+03</pdfrwt>
<totfact> 0.52464286E+06</totfact>
</mgrwt>
</event>
<event>
 5    1  0.7934596E-005  0.1249990E+03  0.7818608E-02  0.1235071E+00
         21   -1    0    0  502  501  0.00000000000E+00  0.00000000000E+00  0.52927543513E+03  0.52927543513E+03  0.00000000000E+00 0. -1.
         21   -1    0    0  501  502 -0.00000000000E+00 -0.00000000000E+00 -0.73802553850E+01  0.73802553850E+01  0.00000000000E+00 0. -1.
         25    2    1    2    0    0  0.00000000000E+00  0.00000000000E+00  0.52189517975E+03  0.53665569052E+03  0.12499900608E+03 0.  0.
        -13    1    3    3    0    0  0.60955521405E+01 -0.62056168027E+02  0.27918921008E+03  0.28606773664E+03  0.10570000000E+00 0.  1.
         13    1    3    3    0    0 -0.60955521405E+01  0.62056168027E+02  0.24270596967E+03  0.25058795388E+03  0.10570000000E+00 0.  1.
<mgrwt>
<rscale>  0 0.12499901E+03</rscale>
<asrwt>0</asrwt>
<pdfrwt beam="1">  1       21 0.81426960E-01 0.12499901E+03</pdfrwt>
<pdfrwt beam="2">  1       21 0.11354243E-02 0.12499901E+03</pdfrwt>
<totfact> 0.40124458E+06</totfact>
</mgrwt>
</event>
<event>
 5    1  0.7934596E-005  0.1249988E+03  0.7818608E-02  0.1235071E+00
         21   -1    0    0  502  501  0.00000000000E+00  0.00000000000E+00  0.76756880416E+02  0.76756880416E+02  0.00000000000E+00 0.  1.
         21   -1    0    0  501  502 -0.00000000000E+00 -0.00000000000E+00 -0.50890263589E+02  0.50890263589E+02  0.00000000000E+00 0.  1.
         25    2    1    2    0    0  0.00000000000E+00  0.00000000000E+00  0.25866616826E+02  0.12764714401E+03  0.12499884602E+03 0.  0.
        -13    1    3    3    0    0 -0.19073985171E+02  0.59282195661E+02  0.75324890730E+01  0.62729141528E+02  0.10570000000E+00 0.  1.
         13    1    3    3    0    0  0.19073985171E+02 -0.59282195661E+02  0.18334127753E+02  0.64918002477E+02  0.10570000000E+00 0.  1.
<mgrwt>
<rscale>  0 0.12499885E+03</rscale>
<asrwt>0</asrwt>
<pdfrwt beam="1">  1       21 0.11808751E-01 0.12499885E+03</pdfrwt>
<pdfrwt beam="2">  1       21 0.78292713E-02 0.12499885E+03</pdfrwt>
<totfact> 0.73683453E+06</totfact>
</mgrwt>
</event>
<event>
 5    1  0.7934596E-005  0.1250007E+03  0.7818608E-02  0.1235068E+00
         21   -1    0    0  502  501  0.00000000000E+00  0.00000000000E+00  0.47058303881E+02  0.47058303881E+02  0.00000000000E+00 0.  1.
         21   -1    0    0  501  502 -0.00000000000E+00 -0.00000000000E+00 -0.83009651743E+02  0.83009651743E+02  0.00000000000E+00 0.  1.
         25    2    1    2    0    0  0.00000000000E+00  0.00000000000E+00 -0.35951347862E+02  0.13006795562E+03  0.12500069467E+03 0.  0.
        -13    1    3    3    0    0  0.57507908548E+02 -0.24345516409E+02 -0.20611857562E+02  0.65762630417E+02  0.10570000000E+00 0. -1.
         13    1    3    3    0    0 -0.57507908548E+02  0.24345516409E+02 -0.15339490300E+02  0.64305325206E+02  0.10570000000E+00 0. -1.
<mgrwt>
<rscale>  0 0.12500069E+03</rscale>
<asrwt>0</asrwt>
<pdfrwt beam="1">  1       21 0.72397391E-02 0.12500069E+03</pdfrwt>
<pdfrwt beam="2">  1       21 0.12770716E-01 0.12500069E+03</pdfrwt>
<totfact> 0.73354533E+06</totfact>
</mgrwt>
</event>
<event>
 5    1  0.7934596E-005  0.1249999E+03  0.7818608E-02  0.1235069E+00
         21   -1    0    0  502  501  0.00000000000E+00  0.00000000000E+00  0.37190931425E+02  0.37190931425E+02  0.00000000000E+00 0.  1.
         21   -1    0    0  501  502 -0.00000000000E+00 -0.00000000000E+00 -0.10503219236E+03  0.10503219236E+03  0.00000000000E+00 0.  1.
         25    2    1    2    0    0  0.00000000000E+00  0.00000000000E+00 -0.67841260938E+02  0.14222312379E+03  0.12499992102E+03 0.  0.
        -13    1    3    3    0    0 -0.22244592429E+02 -0.22961605114E+02  0.27183617841E+02  0.41964478469E+02  0.10570000000E+00 0. -1.
         13    1    3    3    0    0  0.22244592429E+02  0.22961605114E+02 -0.95024878779E+02  0.10025864532E+03  0.10570000000E+00 0. -1.
<mgrwt>
<rscale>  0 0.12499992E+03</rscale>
<asrwt>0</asrwt>
<pdfrwt beam="1">  1       21 0.57216818E-02 0.12499992E+03</pdfrwt>
<pdfrwt beam="2">  1       21 0.16158799E-01 0.12499992E+03</pdfrwt>
<totfact> 0.71750541E+06</totfact>
</mgrwt>
</event>
<event>
 5    1  0.7934596E-005  0.1249577E+03  0.7818608E-02  0.1235135E+00
         21   -1    0    0  502  501  0.00000000000E+00  0.00000000000E+00  0.37220827051E+02  0.37220827051E+02  0.00000000000E+00 0.  1.
         21   -1    0    0  501  502 -0.00000000000E+00 -0.00000000000E+00 -0.10487700215E+03  0.10487700215E+03  0.00000000000E+00 0.  1.
         25    2    1    2    0    0  0.00000000000E+00  0.00000000000E+00 -0.67656175100E+02  0.14209782920E+03  0.12495773299E+03 0.  0.
        -13    1    3    3    0    0 -0.13155015441E+02 -0.16435845086E+02 -0.10072219193E+03  0.10289879763E+03  0.10570000000E+00 0. -1.
         13    1    3    3    0    0  0.13155015441E+02  0.16435845086E+02  0.33066016825E+02  0.39199031571E+02  0.10570000000E+00 0. -1.
<mgrwt>
<rscale>  0 0.12495773E+03</rscale>
<asrwt>0</asrwt>
<pdfrwt beam="1">  1       21 0.57262812E-02 0.12495773E+03</pdfrwt>
<pdfrwt beam="2">  1       21 0.16134923E-01 0.12495773E+03</pdfrwt>
<totfact> 0.71843933E+06</totfact>
</mgrwt>
</event>
<event>
 5    1  0.7934596E-005  0.1249984E+03  0.7818608E-02  0.1235072E+00
         21   -1    0    0  502  501  0.00000000000E+00  0.00000000000E+00  0.18207882994E+02  0.18207882994E+02  0.00000000000E+00 0.  1.
         21   -1    0    0  501  502 -0.00000000000E+00 -0.00000000000E+00 -0.21453072193E+03  0.21453072193E+03  0.00000000000E+00 0.  1.
         25    2    1    2    0    0  0.00000000000E+00  0.00000000000E+00 -0.19632283894E+03  0.23273860493E+03  0.12499840453E+03 0.  0.
        -13    1    3    3    0    0  0.40323275163E+02 -0.24624991266E+02 -0.17433659348E+03  0.18062562308E+03  0.10570000000E+00 0. -1.
         13    1    3    3    0    0 -0.40323275163E+02  0.24624991266E+02 -0.21986245455E+02  0.52112981842E+02  0.10570000000E+00 0. -1.
<mgrwt>
<rscale>  0 0.12499840E+03</rscale>
<asrwt>0</asrwt>
<pdfrwt beam="1">  1       21 0.28012127E-02 0.12499840E+03</pdfrwt>
<pdfrwt beam="2">  1       21 0.33004728E-01 0.12499840E+03</pdfrwt>
<totfact> 0.61544969E+06</totfact>
</mgrwt>
</event>
<event>
 5    1  0.7934596E-005  0.1250036E+03  0.7818608E-02  0.1235064E+00
         21   -1    0    0  502  501  0.00000000000E+00  0.00000000000E+00  0.55061508790E+02  0.55061508790E+02  0.00000000000E+00 0. -1.
         21   -1    0    0  501  502 -0.00000000000E+00 -0.00000000000E+00 -0.70947465435E+02  0.70947465435E+02  0.00000000000E+00 0. -1.
         25    2    1    2    0    0  0.00000000000E+00  0.00000000000E+00 -0.15885956644E+02  0.12600897422E+03  0.12500359181E+03 0.  0.
        -13    1    3    3    0    0  0.49156653270E+02  0.17279739087E+02  0.26852717782E+02  0.58617792251E+02  0.10570000000E+00 0. -1.
         13    1    3    3    0    0 -0.49156653270E+02 -0.17279739087E+02 -0.42738674426E+02  0.67391181974E+02  0.10570000000E+00 0. -1.
<mgrwt>
<rscale>  0 0.12500359E+03</rscale>
<asrwt>0</asrwt>
<pdfrwt beam="1">  1       21 0.84710014E-02 0.12500359E+03</pdfrwt>
<pdfrwt beam="2">  1       21 0.10914995E-01 0.12500359E+03</pdfrwt>
<totfact> 0.73898029E+06</totfact>
</mgrwt>
</event>
<event>
 5    1  0.7934596E-005  0.1250006E+03  0.7818608E-02  0.1235068E+00
         21   -1    0    0  502  501  0.00000000000E+00  0.00000000000E+00  0.29033077145E+02  0.29033077145E+02  0.00000000000E+00 0.  1.
         21   -1    0    0  501  502 -0.00000000000E+00 -0.00000000000E+00 -0.13454603263E+03  0.13454603263E+03  0.00000000000E+00 0.  1.
         25    2    1    2    0    0  0.00000000000E+00  0.00000000000E+00 -0.10551295548E+03  0.16357910977E+03  0.12500056552E+03 0.  0.
        -13    1    3    3    0    0  0.42802541326E+02  0.39099455817E+02 -0.22193686823E+02  0.62075727112E+02  0.10570000000E+00 0. -1.
         13    1    3    3    0    0 -0.42802541326E+02 -0.39099455817E+02 -0.83319268656E+02  0.10150338266E+03  0.10570000000E+00 0. -1.
<mgrwt>
<rscale>  0 0.12500057E+03</rscale>
<asrwt>0</asrwt>
<pdfrwt beam="1">  1       21 0.44666274E-02 0.12500057E+03</pdfrwt>
<pdfrwt beam="2">  1       21 0.20699389E-01 0.12500057E+03</pdfrwt>
<totfact> 0.69083798E+06</totfact>
</mgrwt>
</event>
<event>
 5    1  0.7934596E-005  0.1250009E+03  0.7818608E-02  0.1235068E+00
         21   -1    0    0  502  501  0.00000000000E+00  0.00000000000E+00  0.35236751879E+02  0.35236751879E+02  0.00000000000E+00 0.  1.
         21   -1    0    0  501  502 -0.00000000000E+00 -0.00000000000E+00 -0.11085879734E+03  0.11085879734E+03  0.00000000000E+00 0.  1.
         25    2    1    2    0    0  0.00000000000E+00  0.00000000000E+00 -0.75622045461E+02  0.14609554922E+03  0.12500086297E+03 0.  0.
        -13    1    3    3    0    0 -0.14723414672E+01 -0.61865509097E+02 -0.27569638607E+02  0.67746624644E+02  0.10570000000E+00 0.  1.
         13    1    3    3    0    0  0.14723414672E+01  0.61865509097E+02 -0.48052406854E+02  0.78348924575E+02  0.10570000000E+00 0.  1.
<mgrwt>
<rscale>  0 0.12500086E+03</rscale>
<asrwt>0</asrwt>
<pdfrwt beam="1">  1       21 0.54210389E-02 0.12500086E+03</pdfrwt>
<pdfrwt beam="2">  1       21 0.17055199E-01 0.12500086E+03</pdfrwt>
<totfact> 0.71251624E+06</totfact>
</mgrwt>
</event>
<event>
 5    1  0.7934596E-005  0.1249991E+03  0.7818608E-02  0.1235071E+00
         21   -1    0    0  502  501  0.00000000000E+00  0.00000000000E+00  0.20649527832E+02  0.20649527832E+02  0.00000000000E+00 0. -1.
         21   -1    0    0  501  502 -0.00000000000E+00 -0.00000000000E+00 -0.18916633482E+03  0.18916633482E+03  0.00000000000E+00 0. -1.
         25    2    1    2    0    0  0.00000000000E+00  0.00000000000E+00 -0.16851680699E+03  0.20981586265E+03  0.12499912793E+03 0.  0.
        -13    1    3    3    0    0 -0.54326114202E+02 -0.30638958021E+02 -0.77520813414E+02  0.99496533195E+02  0.10570000000E+00 0. -1.
         13    1    3    3    0    0  0.54326114202E+02  0.30638958021E+02 -0.90995993575E+02  0.11031932946E+03  0.10570000000E+00 0. -1.
<mgrwt>
<rscale>  0 0.12499913E+03</rscale>
<asrwt>0</asrwt>
<pdfrwt beam="1">  1       21 0.31768504E-02 0.12499913E+03</pdfrwt>
<pdfrwt beam="2">  1       21 0.29102514E-01 0.12499913E+03</pdfrwt>
<totfact> 0.63880323E+06</totfact>
</mgrwt>
</event>
<event>
 5    1  0.7934596E-005  0.1249998E+03  0.7818608E-02  0.1235070E+00
         21   -1    0    0  502  501  0.00000000000E+00  0.00000000000E+00  0.30481841456E+02  0.30481841456E+02  0.00000000000E+00 0.  1.
         21   -1    0    0  501  502 -0.00000000000E+00 -0.00000000000E+00 -0.12814960455E+03  0.12814960455E+03  0.00000000000E+00 0.  1.
         25    2    1    2    0    0  0.00000000000E+00  0.00000000000E+00 -0.97667763095E+02  0.15863144601E+03  0.12499977486E+03 0.  0.
        -13    1    3    3    0    0 -0.57148466044E+02 -0.23430294422E+02 -0.60959748446E+02  0.86781495556E+02  0.10570000000E+00 0. -1.
         13    1    3    3    0    0  0.57148466044E+02  0.23430294422E+02 -0.36708014649E+02  0.71849950451E+02  0.10570000000E+00 0. -1.
<mgrwt>
<rscale>  0 0.12499977E+03</rscale>
<asrwt>0</asrwt>
<pdfrwt beam="1">  1       21 0.46895141E-02 0.12499977E+03</pdfrwt>
<pdfrwt beam="2">  1       21 0.19715324E-01 0.12499977E+03</pdfrwt>
<totfact> 0.69687505E+06</totfact>
</mgrwt>
</event>
<event>
 5    1  0.7934596E-005  0.1250012E+03  0.7818608E-02  0.1235067E+00
         21   -1    0    0  502  501  0.00000000000E+00  0.00000000000E+00  0.23549659776E+03  0.23549659776E+03  0.00000000000E+00 0. -1.
         21   -1    0    0  501  502 -0.00000000000E+00 -0.00000000000E+00 -0.16587619235E+02  0.16587619235E+02  0.00000000000E+00 0. -1.
         25    2    1    2    0    0  0.00000000000E+00  0.00000000000E+00  0.21890897853E+03  0.25208421700E+03  0.12500124631E+03 0.  0.
        -13    1    3    3    0    0 -0.21041477616E+02  0.30991983804E+02  0.85599179239E+01  0.38425645183E+02  0.10570000000E+00 0.  1.
         13    1    3    3    0    0  0.21041477616E+02 -0.30991983804E+02  0.21034906061E+03  0.21365857182E+03  0.10570000000E+00 0.  1.
<mgrwt>
<rscale>  0 0.12500125E+03</rscale>
<asrwt>0</asrwt>
<pdfrwt beam="1">  1       21 0.36230243E-01 0.12500125E+03</pdfrwt>
<pdfrwt beam="2">  1       21 0.25519416E-02 0.12500125E+03</pdfrwt>
<totfact> 0.59680643E+06</totfact>
</mgrwt>
</event>
<event>
 5    1  0.7934596E-005  0.1249993E+03  0.7818608E-02  0.1235070E+00
         21   -1    0    0  502  501  0.00000000000E+00  0.00000000000E+00  0.19898886466E+03  0.19898886466E+03  0.00000000000E+00 0. -1.
         21   -1    0    0  501  502 -0.00000000000E+00 -0.00000000000E+00 -0.19630272633E+02  0.19630272633E+02  0.00000000000E+00 0. -1.
         25    2    1    2    0    0  0.00000000000E+00  0.00000000000E+00  0.17935859203E+03  0.21861913729E+03  0.12499929063E+03 0.  0.
        -13    1    3    3    0    0 -0.62447557157E+02 -0.93335170038E+00  0.85530915188E+02  0.10590617152E+03  0.10570000000E+00 0.  1.
         13    1    3    3    0    0  0.62447557157E+02  0.93335170038E+00  0.93827676840E+02  0.11271296578E+03  0.10570000000E+00 0.  1.
<mgrwt>
<rscale>  0 0.12499929E+03</rscale>
<asrwt>0</asrwt>
<pdfrwt beam="1">  1       21 0.30613670E-01 0.12499929E+03</pdfrwt>
<pdfrwt beam="2">  1       21 0.30200421E-02 0.12499929E+03</pdfrwt>
<totfact> 0.62965087E+06</totfact>
</mgrwt>
</event>
<event>
 5    1  0.7934596E-005  0.1250014E+03  0.7818608E-02  0.1235067E+00
         21   -1    0    0  502  501  0.00000000000E+00  0.00000000000E+00  0.14417320039E+03  0.14417320039E+03  0.00000000000E+00 0. -1.
         21   -1    0    0  501  502 -0.00000000000E+00 -0.00000000000E+00 -0.27094759655E+02  0.27094759655E+02  0.00000000000E+00 0. -1.
         25    2    1    2    0    0  0.00000000000E+00  0.00000000000E+00  0.11707844073E+03  0.17126796004E+03  0.12500141140E+03 0.  0.
        -13    1    3    3    0    0  0.53009212516E+02 -0.24484923466E+02  0.89079219945E+02  0.10651106368E+03  0.10570000000E+00 0.  1.
         13    1    3    3    0    0 -0.53009212516E+02  0.24484923466E+02  0.27999220789E+02  0.64756896359E+02  0.10570000000E+00 0.  1.
<mgrwt>
<rscale>  0 0.12500141E+03</rscale>
<asrwt>0</asrwt>
<pdfrwt beam="1">  1       21 0.22180492E-01 0.12500141E+03</pdfrwt>
<pdfrwt beam="2">  1       21 0.41684246E-02 0.12500141E+03</pdfrwt>
<totfact> 0.68165201E+06</totfact>
</mgrwt>
</event>
<event>
 4    1  0.7934596E-005  0.1248731E+03  0.7818608E-02  0.1235268E+00
         21   -1    0    0  502  501  0.00000000000E+00  0.00000000000E+00  0.51355096273E+02  0.51355096273E+02  0.00000000000E+00 0.  1.
         21   -1    0    0  501  502 -0.00000000000E+00 -0.00000000000E+00 -0.75909191059E+02  0.75909191059E+02  0.00000000000E+00 0.  1.
        -13    1    1    2    0    0 -0.59765128956E+02 -0.18062057394E+02 -0.12737456665E+02  0.63720974030E+02  0.10570000000E+00 0. -1.
         13    1    1    2    0    0  0.59765128956E+02  0.18062057394E+02 -0.11816638121E+02  0.63543313303E+02  0.10570000000E+00 0. -1.
<mgrwt>
<rscale>  0 0.12487312E+03</rscale>
<asrwt>0</asrwt>
<pdfrwt beam="1">  1       21 0.79007841E-02 0.12487312E+03</pdfrwt>
<pdfrwt beam="2">  1       21 0.11678337E-01 0.12487312E+03</pdfrwt>
<totfact> 0.73972523E+06</totfact>
</mgrwt>
</event>
<event>
 5    1  0.7934596E-005  0.1249984E+03  0.7818608E-02  0.1235072E+00
         21   -1    0    0  502  501  0.00000000000E+00  0.00000000000E+00  0.50911964347E+02  0.50911964347E+02  0.00000000000E+00 0.  1.
         21   -1    0    0  501  502 -0.00000000000E+00 -0.00000000000E+00 -0.76723574346E+02  0.76723574346E+02  0.00000000000E+00 0.  1.
         25    2    1    2    0    0  0.00000000000E+00  0.00000000000E+00 -0.25811610000E+02  0.12763553869E+03  0.12499836610E+03 0.  0.
        -13    1    3    3    0    0  0.21266692075E+02  0.36892168060E+02 -0.59618455500E+02  0.73264422912E+02  0.10570000000E+00 0. -1.
         13    1    3    3    0    0 -0.21266692075E+02 -0.36892168060E+02  0.33806845500E+02  0.54371115780E+02  0.10570000000E+00 0. -1.
<mgrwt>
<rscale>  0 0.12499837E+03</rscale>
<asrwt>0</asrwt>
<pdfrwt beam="1">  1       21 0.78326099E-02 0.12499837E+03</pdfrwt>
<pdfrwt beam="2">  1       21 0.11803627E-01 0.12499837E+03</pdfrwt>
<totfact> 0.73685927E+06</totfact>
</mgrwt>
</event>
<event>
 5    1  0.7934596E-005  0.1249968E+03  0.7818608E-02  0.1235074E+00
         21   -1    0    0  502  501  0.00000000000E+00  0.00000000000E+00  0.30178551443E+03  0.30178551443E+03  0.00000000000E+00 0. -1.
         21   -1    0    0  501  502 -0.00000000000E+00 -0.00000000000E+00 -0.12943126940E+02  0.12943126940E+02  0.00000000000E+00 0. -1.
         25    2    1    2    0    0  0.00000000000E+00  0.00000000000E+00  0.28884238749E+03  0.31472864137E+03  0.12499677151E+03 0.  0.
        -13    1    3    3    0    0  0.45653292834E+02  0.40914316904E+01  0.37445530646E+02  0.59187345757E+02  0.10570000000E+00 0. -1.
         13    1    3    3    0    0 -0.45653292834E+02 -0.40914316904E+01  0.25139685685E+03  0.25554129562E+03  0.10570000000E+00 0. -1.
<mgrwt>
<rscale>  0 0.12499677E+03</rscale>
<asrwt>0</asrwt>
<pdfrwt beam="1">  1       21 0.46428535E-01 0.12499677E+03</pdfrwt>
<pdfrwt beam="2">  1       21 0.19912505E-02 0.12499677E+03</pdfrwt>
<totfact> 0.54258131E+06</totfact>
</mgrwt>
</event>
<event>
 5    1  0.7934596E-005  0.1250010E+03  0.7818608E-02  0.1235068E+00
         21   -1    0    0  502  501  0.00000000000E+00  0.00000000000E+00  0.34326005361E+03  0.34326005361E+03  0.00000000000E+00 0. -1.
         21   -1    0    0  501  502 -0.00000000000E+00 -0.00000000000E+00 -0.11380040929E+02  0.11380040929E+02  0.00000000000E+00 0. -1.
         25    2    1    2    0    0  0.00000000000E+00  0.00000000000E+00  0.33188001268E+03  0.35464009454E+03  0.12500101535E+03 0.  0.
        -13    1    3    3    0    0 -0.50833706741E+02  0.14786336623E+02  0.26018977563E+03  0.26552105756E+03  0.10570000000E+00 0. -1.
         13    1    3    3    0    0  0.50833706741E+02 -0.14786336623E+02  0.71690237053E+02  0.89119036985E+02  0.10570000000E+00 0. -1.
<mgrwt>
<rscale>  0 0.12500102E+03</rscale>
<asrwt>0</asrwt>
<pdfrwt beam="1">  1       21 0.52809231E-01 0.12500102E+03</pdfrwt>
<pdfrwt beam="2">  1       21 0.17507758E-02 0.12500102E+03</pdfrwt>
<totfact> 0.51196265E+06</totfact>
</mgrwt>
</event>
<event>
 5    1  0.7934596E-005  0.1249999E+03  0.7818608E-02  0.1235069E+00
         21   -1    0    0  502  501  0.00000000000E+00  0.00000000000E+00  0.11667243429E+03  0.11667243429E+03  0.00000000000E+00 0.  1.
         21   -1    0    0  501  502 -0.00000000000E+00 -0.00000000000E+00 -0.33480424084E+02  0.33480424084E+02  0.00000000000E+00 0.  1.
         25    2    1    2    0    0  0.00000000000E+00  0.00000000000E+00  0.83192010206E+02  0.15015285837E+03  0.12499988126E+03 0.  0.
        -13    1    3    3    0    0  0.37080455449E+02  0.48849581375E+02  0.56060140345E+02  0.83090265885E+02  0.10570000000E+00 0. -1.
         13    1    3    3    0    0 -0.37080455449E+02 -0.48849581375E+02  0.27131869861E+02  0.67062592490E+02  0.10570000000E+00 0. -1.
<mgrwt>
<rscale>  0 0.12499988E+03</rscale>
<asrwt>0</asrwt>
<pdfrwt beam="1">  1       21 0.17949605E-01 0.12499988E+03</pdfrwt>
<pdfrwt beam="2">  1       21 0.51508346E-02 0.12499988E+03</pdfrwt>
<totfact> 0.70740218E+06</totfact>
</mgrwt>
</event>
<event>
 5    1  0.7934596E-005  0.1250016E+03  0.7818608E-02  0.1235067E+00
         21   -1    0    0  502  501  0.00000000000E+00  0.00000000000E+00  0.74083929963E+01  0.74083929963E+01  0.00000000000E+00 0.  1.
         21   -1    0    0  501  502 -0.00000000000E+00 -0.00000000000E+00 -0.52728750368E+03  0.52728750368E+03  0.00000000000E+00 0.  1.
         25    2    1    2    0    0  0.00000000000E+00  0.00000000000E+00 -0.51987911069E+03  0.53469589668E+03  0.12500164878E+03 0.  0.
        -13    1    3    3    0    0  0.40853277073E+02  0.42972986696E+02 -0.34448659168E+03  0.34955212895E+03  0.10570000000E+00 0. -1.
         13    1    3    3    0    0 -0.40853277073E+02 -0.42972986696E+02 -0.17539251901E+03  0.18514376773E+03  0.10570000000E+00 0. -1.
<mgrwt>
<rscale>  0 0.12500165E+03</rscale>
<asrwt>0</asrwt>
<pdfrwt beam="1">  1       21 0.11397528E-02 0.12500165E+03</pdfrwt>
<pdfrwt beam="2">  1       21 0.81121154E-01 0.12500165E+03</pdfrwt>
<totfact> 0.40221200E+06</totfact>
</mgrwt>
</event>
<event>
 5    1  0.7934596E-005  0.1250001E+03  0.7818608E-02  0.1235069E+00
         21   -1    0    0  502  501  0.00000000000E+00  0.00000000000E+00  0.38608183220E+02  0.38608183220E+02  0.00000000000E+00 0. -1.
         21   -1    0    0  501  502 -0.00000000000E+00 -0.00000000000E+00 -0.10117683076E+03  0.10117683076E+03  0.00000000000E+00 0. -1.
         25    2    1    2    0    0  0.00000000000E+00  0.00000000000E+00 -0.62568647543E+02  0.13978501398E+03  0.12500005792E+03 0.  0.
        -13    1    3    3    0    0  0.39240969975E+02  0.46981339915E+02 -0.45391606893E+02  0.76207015252E+02  0.10570000000E+00 0.  1.
         13    1    3    3    0    0 -0.39240969975E+02 -0.46981339915E+02 -0.17177040650E+02  0.63577998732E+02  0.10570000000E+00 0.  1.
<mgrwt>
<rscale>  0 0.12500006E+03</rscale>
<asrwt>0</asrwt>
<pdfrwt beam="1">  1       21 0.59397206E-02 0.12500006E+03</pdfrwt>
<pdfrwt beam="2">  1       21 0.15565666E-01 0.12500006E+03</pdfrwt>
<totfact> 0.72067280E+06</totfact>
</mgrwt>
</event>
<event>
 5    1  0.7934596E-005  0.1250005E+03  0.7818608E-02  0.1235069E+00
         21   -1    0    0  502  501  0.00000000000E+00  0.00000000000E+00  0.23600313805E+02  0.23600313805E+02  0.00000000000E+00 0.  1.
         21   -1    0    0  501  502 -0.00000000000E+00 -0.00000000000E+00 -0.16551808644E+03  0.16551808644E+03  0.00000000000E+00 0.  1.
         25    2    1    2    0    0  0.00000000000E+00  0.00000000000E+00 -0.14191777263E+03  0.18911840024E+03  0.12500046048E+03 0.  0.
        -13    1    3    3    0    0 -0.36380693200E+00  0.52687678439E+02 -0.12182036998E+03  0.13272655171E+03  0.10570000000E+00 0.  1.
         13    1    3    3    0    0  0.36380693200E+00 -0.52687678439E+02 -0.20097402652E+02  0.56391848530E+02  0.10570000000E+00 0.  1.
<mgrwt>
<rscale>  0 0.12500046E+03</rscale>
<asrwt>0</asrwt>
<pdfrwt beam="1">  1       21 0.36308174E-02 0.12500046E+03</pdfrwt>
<pdfrwt beam="2">  1       21 0.25464322E-01 0.12500046E+03</pdfrwt>
<totfact> 0.66119807E+06</totfact>
</mgrwt>
</event>
<event>
 5    1  0.7934596E-005  0.1250000E+03  0.7818608E-02  0.1235069E+00
         21   -1    0    0  502  501  0.00000000000E+00  0.00000000000E+00  0.19398103168E+03  0.19398103168E+03  0.00000000000E+00 0.  1.
         21   -1    0    0  501  502 -0.00000000000E+00 -0.00000000000E+00 -0.20137263083E+02  0.20137263083E+02  0.00000000000E+00 0.  1.
         25    2    1    2    0    0  0.00000000000E+00  0.00000000000E+00  0.17384376859E+03  0.21411829476E+03  0.12499995309E+03 0.  0.
        -13    1    3    3    0    0 -0.47088335194E+02 -0.31793051750E+01  0.15710708623E+03  0.16404288161E+03  0.10570000000E+00 0.  1.
         13    1    3    3    0    0  0.47088335194E+02  0.31793051750E+01  0.16736682368E+02  0.50075413147E+02  0.10570000000E+00 0.  1.
<mgrwt>
<rscale>  0 0.12499995E+03</rscale>
<asrwt>0</asrwt>
<pdfrwt beam="1">  1       21 0.29843234E-01 0.12499995E+03</pdfrwt>
<pdfrwt beam="2">  1       21 0.30980406E-02 0.12499995E+03</pdfrwt>
<totfact> 0.63428908E+06</totfact>
</mgrwt>
</event>
<event>
 5    1  0.7934596E-005  0.1250026E+03  0.7818608E-02  0.1235065E+00
         21   -1    0    0  502  501  0.00000000000E+00  0.00000000000E+00  0.14228493411E+02  0.14228493411E+02  0.00000000000E+00 0.  1.
         21   -1    0    0  501  502 -0.00000000000E+00 -0.00000000000E+00 -0.27454838135E+03  0.27454838135E+03  0.00000000000E+00 0.  1.
         25    2    1    2    0    0  0.00000000000E+00  0.00000000000E+00 -0.26031988794E+03  0.28877687477E+03  0.12500255734E+03 0.  0.
        -13    1    3    3    0    0 -0.61821715416E+02 -0.41446406428E+01 -0.14911122297E+03  0.16147219739E+03  0.10570000000E+00 0. -1.
         13    1    3    3    0    0  0.61821715416E+02  0.41446406428E+01 -0.11120866497E+03  0.12730467737E+03  0.10570000000E+00 0. -1.
<mgrwt>
<rscale>  0 0.12500256E+03</rscale>
<asrwt>0</asrwt>
<pdfrwt beam="1">  1       21 0.21889991E-02 0.12500256E+03</pdfrwt>
<pdfrwt beam="2">  1       21 0.42238210E-01 0.12500256E+03</pdfrwt>
<totfact> 0.56398324E+06</totfact>
</mgrwt>
</event>
<event>
 5    1  0.7934596E-005  0.1249857E+03  0.7818608E-02  0.1235092E+00
         21   -1    0    0  502  501  0.00000000000E+00  0.00000000000E+00  0.62985633453E+02  0.62985633453E+02  0.00000000000E+00 0. -1.
         21   -1    0    0  501  502 -0.00000000000E+00 -0.00000000000E+00 -0.62003910201E+02  0.62003910201E+02  0.00000000000E+00 0. -1.
         25    2    1    2    0    0  0.00000000000E+00  0.00000000000E+00  0.98172325141E+00  0.12498954365E+03  0.12498568815E+03 0.  0.
        -13    1    3    3    0    0  0.35549831151E+02  0.26430599432E+02 -0.43589714380E+02  0.62148543454E+02  0.10570000000E+00 0. -1.
         13    1    3    3    0    0 -0.35549831151E+02 -0.26430599432E+02  0.44571437632E+02  0.62841000201E+02  0.10570000000E+00 0. -1.
<mgrwt>
<rscale>  0 0.12498569E+03</rscale>
<asrwt>0</asrwt>
<pdfrwt beam="1">  1       21 0.96900974E-02 0.12498569E+03</pdfrwt>
<pdfrwt beam="2">  1       21 0.95390631E-02 0.12498569E+03</pdfrwt>
<totfact> 0.74072094E+06</totfact>
</mgrwt>
</event>
<event>
 5    1  0.7934596E-005  0.1249990E+03  0.7818608E-02  0.1235071E+00
         21   -1    0    0  502  501  0.00000000000E+00  0.00000000000E+00  0.16070697432E+03  0.16070697432E+03  0.00000000000E+00 0. -1.
         21   -1    0    0  501  502 -0.00000000000E+00 -0.00000000000E+00 -0.24306273688E+02  0.24306273688E+02  0.00000000000E+00 0. -1.
         25    2    1    2    0    0  0.00000000000E+00  0.00000000000E+00  0.13640070064E+03  0.18501324801E+03  0.12499900322E+03 0.  0.
        -13    1    3    3    0    0  0.44519424454E+02 -0.32077755506E+02  0.23915013985E+02  0.59857335544E+02  0.10570000000E+00 0.  1.
         13    1    3    3    0    0 -0.44519424454E+02  0.32077755506E+02  0.11248568665E+03  0.12515591247E+03  0.10570000000E+00 0.  1.
<mgrwt>
<rscale>  0 0.12499900E+03</rscale>
<asrwt>0</asrwt>
<pdfrwt beam="1">  1       21 0.24724149E-01 0.12499900E+03</pdfrwt>
<pdfrwt beam="2">  1       21 0.37394268E-02 0.12499900E+03</pdfrwt>
<totfact> 0.66582717E+06</totfact>
</mgrwt>
</event>
<event>
 5    1  0.7934596E-005  0.1249999E+03  0.7818608E-02  0.1235069E+00
         21   -1    0    0  502  501  0.00000000000E+00  0.00000000000E+00  0.32102000263E+02  0.32102000263E+02  0.00000000000E+00 0.  1.
         21   -1    0    0  501  502 -0.00000000000E+00 -0.00000000000E+00 -0.12168229171E+03  0.12168229171E+03  0.00000000000E+00 0.  1.
         25    2    1    2    0    0  0.00000000000E+00  0.00000000000E+00 -0.89580291450E+02  0.15378429198E+03  0.12499991937E+03 0.  0.
        -13    1    3    3    0    0 -0.42810238846E+02  0.44727530701E+02 -0.34281173631E+02  0.70770605414E+02  0.10570000000E+00 0.  1.
         13    1    3    3    0    0  0.42810238846E+02 -0.44727530701E+02 -0.55299117819E+02  0.83013686563E+02  0.10570000000E+00 0.  1.
<mgrwt>
<rscale>  0 0.12499992E+03</rscale>
<asrwt>0</asrwt>
<pdfrwt beam="1">  1       21 0.49387693E-02 0.12499992E+03</pdfrwt>
<pdfrwt beam="2">  1       21 0.18720353E-01 0.12499992E+03</pdfrwt>
<totfact> 0.70287143E+06</totfact>
</mgrwt>
</event>
<event>
 5    1  0.7934596E-005  0.1250022E+03  0.7818608E-02  0.1235066E+00
         21   -1    0    0  502  501  0.00000000000E+00  0.00000000000E+00  0.74980300143E+02  0.74980300143E+02  0.00000000000E+00 0. -1.
         21   -1    0    0  501  502 -0.00000000000E+00 -0.00000000000E+00 -0.52098833340E+02  0.52098833340E+02  0.00000000000E+00 0. -1.
         25    2    1    2    0    0  0.00000000000E+00  0.00000000000E+00  0.22881466803E+02  0.12707913348E+03  0.12500217856E+03 0.  0.
        -13    1    3    3    0    0 -0.19911766593E+02  0.55624105880E+02 -0.92906282328E+01  0.59806743343E+02  0.10570000000E+00 0. -1.
         13    1    3    3    0    0  0.19911766593E+02 -0.55624105880E+02  0.32172095036E+02  0.67272390141E+02  0.10570000000E+00 0. -1.
<mgrwt>
<rscale>  0 0.12500218E+03</rscale>
<asrwt>0</asrwt>
<pdfrwt beam="1">  1       21 0.11535431E-01 0.12500218E+03</pdfrwt>
<pdfrwt beam="2">  1       21 0.80152051E-02 0.12500218E+03</pdfrwt>
<totfact> 0.73754266E+06</totfact>
</mgrwt>
</event>
<event>
 5    1  0.7934596E-005  0.1250004E+03  0.7818608E-02  0.1235069E+00
         21   -1    0    0  502  501  0.00000000000E+00  0.00000000000E+00  0.29776107310E+02  0.29776107310E+02  0.00000000000E+00 0. -1.
         21   -1    0    0  501  502 -0.00000000000E+00 -0.00000000000E+00 -0.13118828633E+03  0.13118828633E+03  0.00000000000E+00 0. -1.
         25    2    1    2    0    0  0.00000000000E+00  0.00000000000E+00 -0.10141217902E+03  0.16096439364E+03  0.12500042387E+03 0.  0.
        -13    1    3    3    0    0 -0.37148705237E+02 -0.48300197113E+02 -0.68610825941E+02  0.91762693676E+02  0.10570000000E+00 0. -1.
         13    1    3    3    0    0  0.37148705237E+02  0.48300197113E+02 -0.32801353083E+02  0.69201699969E+02  0.10570000000E+00 0. -1.
<mgrwt>
<rscale>  0 0.12500042E+03</rscale>
<asrwt>0</asrwt>
<pdfrwt beam="1">  1       21 0.45809396E-02 0.12500042E+03</pdfrwt>
<pdfrwt beam="2">  1       21 0.20182813E-01 0.12500042E+03</pdfrwt>
<totfact> 0.69401101E+06</totfact>
</mgrwt>
</event>
<event>
 5    1  0.7934596E-005  0.1249980E+03  0.7818608E-02  0.1235072E+00
         21   -1    0    0  502  501  0.00000000000E+00  0.00000000000E+00  0.17815175569E+03  0.17815175569E+03  0.00000000000E+00 0. -1.
         21   -1    0    0  501  502 -0.00000000000E+00 -0.00000000000E+00 -0.21925841498E+02  0.21925841498E+02  0.00000000000E+00 0. -1.
         25    2    1    2    0    0  0.00000000000E+00  0.00000000000E+00  0.15622591420E+03  0.20007759719E+03  0.12499803451E+03 0.  0.
        -13    1    3    3    0    0 -0.10617617523E+02  0.54737316471E+02  0.32918913146E+02  0.64750085957E+02  0.10570000000E+00 0. -1.
         13    1    3    3    0    0  0.10617617523E+02 -0.54737316471E+02  0.12330700105E+03  0.13532751123E+03  0.10570000000E+00 0. -1.
<mgrwt>
<rscale>  0 0.12499803E+03</rscale>
<asrwt>0</asrwt>
<pdfrwt beam="1">  1       21 0.27407961E-01 0.12499803E+03</pdfrwt>
<pdfrwt beam="2">  1       21 0.33732065E-02 0.12499803E+03</pdfrwt>
<totfact> 0.64922076E+06</totfact>
</mgrwt>
</event>
<event>
 5    1  0.7934596E-005  0.1249991E+03  0.7818608E-02  0.1235071E+00
         21   -1    0    0  502  501  0.00000000000E+00  0.00000000000E+00  0.52595192011E+03  0.52595192011E+03  0.00000000000E+00 0. -1.
         21   -1    0    0  501  502 -0.00000000000E+00 -0.00000000000E+00 -0.74268996109E+01  0.74268996109E+01  0.00000000000E+00 0. -1.
         25    2    1    2    0    0  0.00000000000E+00  0.00000000000E+00  0.51852502050E+03  0.53337881972E+03  0.12499907377E+03 0.  0.
        -13    1    3    3    0    0 -0.37149442276E+02  0.47934305644E+02  0.32375054333E+03  0.32938154805E+03  0.10570000000E+00 0.  1.
         13    1    3    3    0    0  0.37149442276E+02 -0.47934305644E+02  0.19477447717E+03  0.20399727167E+03  0.10570000000E+00 0.  1.
<mgrwt>
<rscale>  0 0.12499907E+03</rscale>
<asrwt>0</asrwt>
<pdfrwt beam="1">  1       21 0.80915651E-01 0.12499907E+03</pdfrwt>
<pdfrwt beam="2">  1       21 0.11426003E-02 0.12499907E+03</pdfrwt>
<totfact> 0.40290787E+06</totfact>
</mgrwt>
</event>
<event>
 5    1  0.7934596E-005  0.1250003E+03  0.7818608E-02  0.1235069E+00
         21   -1    0    0  502  501  0.00000000000E+00  0.00000000000E+00  0.33051049995E+02  0.33051049995E+02  0.00000000000E+00 0.  1.
         21   -1    0    0  501  502 -0.00000000000E+00 -0.00000000000E+00 -0.11818897235E+03  0.11818897235E+03  0.00000000000E+00 0.  1.
         25    2    1    2    0    0  0.00000000000E+00  0.00000000000E+00 -0.85137922355E+02  0.15124002235E+03  0.12500031414E+03 0.  0.
        -13    1    3    3    0    0  0.15689618631E+02 -0.60453676595E+02 -0.39745077083E+02  0.74030355068E+02  0.10570000000E+00 0.  1.
         13    1    3    3    0    0 -0.15689618631E+02  0.60453676595E+02 -0.45392845272E+02  0.77209667277E+02  0.10570000000E+00 0.  1.
<mgrwt>
<rscale>  0 0.12500031E+03</rscale>
<asrwt>0</asrwt>
<pdfrwt beam="1">  1       21 0.50847769E-02 0.12500031E+03</pdfrwt>
<pdfrwt beam="2">  1       21 0.18182919E-01 0.12500031E+03</pdfrwt>
<totfact> 0.70603213E+06</totfact>
</mgrwt>
</event>
<event>
 5    1  0.7934596E-005  0.1249962E+03  0.7818608E-02  0.1235075E+00
         21   -1    0    0  502  501  0.00000000000E+00  0.00000000000E+00  0.39935583942E+02  0.39935583942E+02  0.00000000000E+00 0.  1.
         21   -1    0    0  501  502 -0.00000000000E+00 -0.00000000000E+00 -0.97807794648E+02  0.97807794648E+02  0.00000000000E+00 0.  1.
         25    2    1    2    0    0  0.00000000000E+00  0.00000000000E+00 -0.57872210706E+02  0.13774337859E+03  0.12499618224E+03 0.  0.
        -13    1    3    3    0    0 -0.10310052211E+02  0.59879650845E+02 -0.45061605985E+02  0.75646739972E+02  0.10570000000E+00 0. -1.
         13    1    3    3    0    0  0.10310052211E+02 -0.59879650845E+02 -0.12810604721E+02  0.62096638619E+02  0.10570000000E+00 0. -1.
<mgrwt>
<rscale>  0 0.12499618E+03</rscale>
<asrwt>0</asrwt>
<pdfrwt beam="1">  1       21 0.61439361E-02 0.12499618E+03</pdfrwt>
<pdfrwt beam="2">  1       21 0.15047353E-01 0.12499618E+03</pdfrwt>
<totfact> 0.72342268E+06</totfact>
</mgrwt>
</event>
<event>
 5    1  0.7934596E-005  0.1250016E+03  0.7818608E-02  0.1235067E+00
         21   -1    0    0  502  501  0.00000000000E+00  0.00000000000E+00  0.14457231593E+02  0.14457231593E+02  0.00000000000E+00 0. -1.
         21   -1    0    0  501  502 -0.00000000000E+00 -0.00000000000E+00 -0.27020027061E+03  0.27020027061E+03  0.00000000000E+00 0. -1.
         25    2    1    2    0    0  0.00000000000E+00  0.00000000000E+00 -0.25574303902E+03  0.28465750220E+03  0.12500156621E+03 0.  0.
        -13    1    3    3    0    0  0.49728065781E+02  0.13361961649E+02 -0.47201123035E+02  0.69852557102E+02  0.10570000000E+00 0. -1.
         13    1    3    3    0    0 -0.49728065781E+02 -0.13361961649E+02 -0.20854191598E+03  0.21480494510E+03  0.10570000000E+00 0. -1.
<mgrwt>
<rscale>  0 0.12500157E+03</rscale>
<asrwt>0</asrwt>
<pdfrwt beam="1">  1       21 0.22241894E-02 0.12500157E+03</pdfrwt>
<pdfrwt beam="2">  1       21 0.41569274E-01 0.12500157E+03</pdfrwt>
<totfact> 0.56753557E+06</totfact>
</mgrwt>
</event>
<event>
 5    1  0.7934596E-005  0.1250010E+03  0.7818608E-02  0.1235068E+00
         21   -1    0    0  502  501  0.00000000000E+00  0.00000000000E+00  0.89535080662E+01  0.89535080662E+01  0.00000000000E+00 0. -1.
         21   -1    0    0  501  502 -0.00000000000E+00 -0.00000000000E+00 -0.43628853296E+03  0.43628853296E+03  0.00000000000E+00 0. -1.
         25    2    1    2    0    0  0.00000000000E+00  0.00000000000E+00 -0.42733502489E+03  0.44524204103E+03  0.12500100638E+03 0.  0.
        -13    1    3    3    0    0  0.34878145202E+02  0.42145346311E+02 -0.10600673995E+03  0.11929021467E+03  0.10570000000E+00 0.  1.
         13    1    3    3    0    0 -0.34878145202E+02 -0.42145346311E+02 -0.32132828494E+03  0.32595182636E+03  0.10570000000E+00 0.  1.
<mgrwt>
<rscale>  0 0.12500101E+03</rscale>
<asrwt>0</asrwt>
<pdfrwt beam="1">  1       21 0.13774630E-02 0.12500101E+03</pdfrwt>
<pdfrwt beam="2">  1       21 0.67121300E-01 0.12500101E+03</pdfrwt>
<totfact> 0.45177220E+06</totfact>
</mgrwt>
</event>
<event>
 5    1  0.7934596E-005  0.1249994E+03  0.7818608E-02  0.1235070E+00
         21   -1    0    0  502  501  0.00000000000E+00  0.00000000000E+00  0.19386985457E+02  0.19386985457E+02  0.00000000000E+00 0.  1.
         21   -1    0    0  501  502 -0.00000000000E+00 -0.00000000000E+00 -0.20148618170E+03  0.20148618170E+03  0.00000000000E+00 0.  1.
         25    2    1    2    0    0  0.00000000000E+00  0.00000000000E+00 -0.18209919625E+03  0.22087316716E+03  0.12499935479E+03 0.  0.
        -13    1    3    3    0    0  0.42877809273E+02  0.50093665712E-01 -0.10701084921E+02  0.44193137797E+02  0.10570000000E+00 0. -1.
         13    1    3    3    0    0 -0.42877809273E+02 -0.50093665712E-01 -0.17139811133E+03  0.17668002936E+03  0.10570000000E+00 0. -1.
<mgrwt>
<rscale>  0 0.12499935E+03</rscale>
<asrwt>0</asrwt>
<pdfrwt beam="1">  1       21 0.29826132E-02 0.12499935E+03</pdfrwt>
<pdfrwt beam="2">  1       21 0.30997873E-01 0.12499935E+03</pdfrwt>
<totfact> 0.62734421E+06</totfact>
</mgrwt>
</event>
<event>
 5    1  0.7934596E-005  0.1249929E+03  0.7818608E-02  0.1235080E+00
         21   -1    0    0  502  501  0.00000000000E+00  0.00000000000E+00  0.63396855883E+02  0.63396855883E+02  0.00000000000E+00 0. -1.
         21   -1    0    0  501  502 -0.00000000000E+00 -0.00000000000E+00 -0.61608793797E+02  0.61608793797E+02  0.00000000000E+00 0. -1.
         25    2    1    2    0    0  0.00000000000E+00  0.00000000000E+00  0.17880620858E+01  0.12500564968E+03  0.12499286094E+03 0.  0.
        -13    1    3    3    0    0 -0.46899462381E+02 -0.28594208911E+02 -0.28918485454E+02  0.62076391070E+02  0.10570000000E+00 0.  1.
         13    1    3    3    0    0  0.46899462381E+02  0.28594208911E+02  0.30706547539E+02  0.62929258609E+02  0.10570000000E+00 0.  1.
<mgrwt>
<rscale>  0 0.12499286E+03</rscale>
<asrwt>0</asrwt>
<pdfrwt beam="1">  1       21 0.97533624E-02 0.12499286E+03</pdfrwt>
<pdfrwt beam="2">  1       21 0.94782760E-02 0.12499286E+03</pdfrwt>
<totfact> 0.74056335E+06</totfact>
</mgrwt>
</event>
<event>
 5    1  0.7934596E-005  0.1249991E+03  0.7818608E-02  0.1235071E+00
         21   -1    0    0  502  501  0.00000000000E+00  0.00000000000E+00  0.86033961879E+02  0.86033961879E+02  0.00000000000E+00 0.  1.
         21   -1    0    0  501  502 -0.00000000000E+00 -0.00000000000E+00 -0.45402957997E+02  0.45402957997E+02  0.00000000000E+00 0.  1.
         25    2    1    2    0    0  0.00000000000E+00  0.00000000000E+00  0.40631003882E+02  0.13143691988E+03  0.12499914172E+03 0.  0.
        -13    1    3    3    0    0 -0.11418134218E+02 -0.21544592708E+02 -0.40195177296E+02  0.47012835634E+02  0.10570000000E+00 0.  1.
         13    1    3    3    0    0  0.11418134218E+02  0.21544592708E+02  0.80826181178E+02  0.84424084243E+02  0.10570000000E+00 0.  1.
<mgrwt>
<rscale>  0 0.12499914E+03</rscale>
<asrwt>0</asrwt>
<pdfrwt beam="1">  1       21 0.13235994E-01 0.12499914E+03</pdfrwt>
<pdfrwt beam="2">  1       21 0.69850705E-02 0.12499914E+03</pdfrwt>
<totfact> 0.73173456E+06</totfact>
</mgrwt>
</event>
<event>
 5    1  0.7934596E-005  0.1250005E+03  0.7818608E-02  0.1235068E+00
         21   -1    0    0  502  501  0.00000000000E+00  0.00000000000E+00  0.31735313541E+03  0.31735313541E+03  0.00000000000E+00 0.  1.
         21   -1    0    0  501  502 -0.00000000000E+00 -0.00000000000E+00 -0.12308944392E+02  0.12308944392E+02  0.00000000000E+00 0.  1.
         25    2    1    2    0    0  0.00000000000E+00  0.00000000000E+00  0.30504419102E+03  0.32966207980E+03  0.12500051354E+03 0.  0.
        -13    1    3    3    0    0  0.50965710353E+02  0.31932364568E+02  0.10768114891E+03  0.12333864172E+03  0.10570000000E+00 0. -1.
         13    1    3    3    0    0 -0.50965710353E+02 -0.31932364568E+02  0.19736304210E+03  0.20632343808E+03  0.10570000000E+00 0. -1.
<mgrwt>
<rscale>  0 0.12500051E+03</rscale>
<asrwt>0</asrwt>
<pdfrwt beam="1">  1       21 0.48823553E-01 0.12500051E+03</pdfrwt>
<pdfrwt beam="2">  1       21 0.18936840E-02 0.12500051E+03</pdfrwt>
<totfact> 0.53075765E+06</totfact>
</mgrwt>
</event>
<event>
 5    1  0.7934596E-005  0.1250013E+03  0.7818608E-02  0.1235067E+00
         21   -1    0    0  502  501  0.00000000000E+00  0.00000000000E+00  0.33914893867E+03  0.33914893867E+03  0.00000000000E+00 0. -1.
         21   -1    0    0  501  502 -0.00000000000E+00 -0.00000000000E+00 -0.11518049506E+02  0.11518049506E+02  0.00000000000E+00 0. -1.
         25    2    1    2    0    0  0.00000000000E+00  0.00000000000E+00  0.32763088916E+03  0.35066698817E+03  0.12500134824E+03 0.  0.
        -13    1    3    3    0    0 -0.48830249761E+02 -0.37346128566E+02  0.19545407948E+03  0.20489371627E+03  0.10570000000E+00 0.  1.
         13    1    3    3    0    0  0.48830249761E+02  0.37346128566E+02  0.13217680968E+03  0.14577327190E+03  0.10570000000E+00 0.  1.
<mgrwt>
<rscale>  0 0.12500135E+03</rscale>
<asrwt>0</asrwt>
<pdfrwt beam="1">  1       21 0.52176752E-01 0.12500135E+03</pdfrwt>
<pdfrwt beam="2">  1       21 0.17720079E-02 0.12500135E+03</pdfrwt>
<totfact> 0.51487475E+06</totfact>
</mgrwt>
</event>
<event>
 5    1  0.7934596E-005  0.1250235E+03  0.7818608E-02  0.1235033E+00
         21   -1    0    0  502  501  0.00000000000E+00  0.00000000000E+00  0.24665974915E+03  0.24665974915E+03  0.00000000000E+00 0. -1.
         21   -1    0    0  501  502 -0.00000000000E+00 -0.00000000000E+00 -0.15842545410E+02  0.15842545410E+02  0.00000000000E+00 0. -1.
         25    2    1    2    0    0  0.00000000000E+00  0.00000000000E+00  0.23081720374E+03  0.26250229456E+03  0.12502349022E+03 0.  0.
        -13    1    3    3    0    0 -0.51840073287E+02 -0.29453396036E+02  0.75970793701E+02  0.96573642391E+02  0.10570000000E+00 0. -1.
         13    1    3    3    0    0  0.51840073287E+02  0.29453396036E+02  0.15484641004E+03  0.16592865217E+03  0.10570000000E+00 0. -1.
<mgrwt>
<rscale>  0 0.12502349E+03</rscale>
<asrwt>0</asrwt>
<pdfrwt beam="1">  1       21 0.37947651E-01 0.12502349E+03</pdfrwt>
<pdfrwt beam="2">  1       21 0.24373149E-02 0.12502349E+03</pdfrwt>
<totfact> 0.58685952E+06</totfact>
</mgrwt>
</event>
<event>
 5    1  0.7934596E-005  0.1250005E+03  0.7818608E-02  0.1235068E+00
         21   -1    0    0  502  501  0.00000000000E+00  0.00000000000E+00  0.92498291189E+02  0.92498291189E+02  0.00000000000E+00 0. -1.
         21   -1    0    0  501  502 -0.00000000000E+00 -0.00000000000E+00 -0.42230854529E+02  0.42230854529E+02  0.00000000000E+00 0. -1.
         25    2    1    2    0    0  0.00000000000E+00  0.00000000000E+00  0.50267436660E+02  0.13472914572E+03  0.12500051007E+03 0.  0.
        -13    1    3    3    0    0  0.23969753717E+02  0.54591529543E+02  0.45340823660E+02  0.74903842716E+02  0.10570000000E+00 0.  1.
         13    1    3    3    0    0 -0.23969753717E+02 -0.54591529543E+02  0.49266130001E+01  0.59825303001E+02  0.10570000000E+00 0.  1.
<mgrwt>
<rscale>  0 0.12500051E+03</rscale>
<asrwt>0</asrwt>
<pdfrwt beam="1">  1       21 0.14230506E-01 0.12500051E+03</pdfrwt>
<pdfrwt beam="2">  1       21 0.64970545E-02 0.12500051E+03</pdfrwt>
<totfact> 0.72731408E+06</totfact>
</mgrwt>
</event>
<event>
 5    1  0.7934596E-005  0.1249984E+03  0.7818608E-02  0.1235072E+00
         21   -1    0    0  502  501  0.00000000000E+00  0.00000000000E+00  0.17056539267E+02  0.17056539267E+02  0.00000000000E+00 0.  1.
         21   -1    0    0  501  502 -0.00000000000E+00 -0.00000000000E+00 -0.22901174422E+03  0.22901174422E+03  0.00000000000E+00 0.  1.
         25    2    1    2    0    0  0.00000000000E+00  0.00000000000E+00 -0.21195520496E+03  0.24606828349E+03  0.12499836492E+03 0.  0.
        -13    1    3    3    0    0 -0.18553046432E+02  0.54331933822E+02 -0.15459623312E+03  0.16491264667E+03  0.10570000000E+00 0. -1.
         13    1    3    3    0    0  0.18553046432E+02 -0.54331933822E+02 -0.57358971838E+02  0.81155636819E+02  0.10570000000E+00 0. -1.
<mgrwt>
<rscale>  0 0.12499836E+03</rscale>
<asrwt>0</asrwt>
<pdfrwt beam="1">  1       21 0.26240832E-02 0.12499836E+03</pdfrwt>
<pdfrwt beam="2">  1       21 0.35232573E-01 0.12499836E+03</pdfrwt>
<totfact> 0.60252827E+06</totfact>
</mgrwt>
</event>
<event>
 5    1  0.7934596E-005  0.1250025E+03  0.7818608E-02  0.1235065E+00
         21   -1    0    0  502  501  0.00000000000E+00  0.00000000000E+00  0.41666299874E+02  0.41666299874E+02  0.00000000000E+00 0. -1.
         21   -1    0    0  501  502 -0.00000000000E+00 -0.00000000000E+00 -0.93754551518E+02  0.93754551518E+02  0.00000000000E+00 0. -1.
         25    2    1    2    0    0  0.00000000000E+00  0.00000000000E+00 -0.52088251644E+02  0.13542085139E+03  0.12500248410E+03 0.  0.
        -13    1    3    3    0    0 -0.11353056352E+02 -0.47117932490E+02 -0.68797200054E+02  0.84154960391E+02  0.10570000000E+00 0.  1.
         13    1    3    3    0    0  0.11353056352E+02  0.47117932490E+02  0.16708948409E+02  0.51265891001E+02  0.10570000000E+00 0.  1.
<mgrwt>
<rscale>  0 0.12500248E+03</rscale>
<asrwt>0</asrwt>
<pdfrwt beam="1">  1       21 0.64102000E-02 0.12500248E+03</pdfrwt>
<pdfrwt beam="2">  1       21 0.14423777E-01 0.12500248E+03</pdfrwt>
<totfact> 0.72636194E+06</totfact>
</mgrwt>
</event>
<event>
 5    1  0.7934596E-005  0.1250003E+03  0.7818608E-02  0.1235069E+00
         21   -1    0    0  502  501  0.00000000000E+00  0.00000000000E+00  0.96674977866E+02  0.96674977866E+02  0.00000000000E+00 0.  1.
         21   -1    0    0  501  502 -0.00000000000E+00 -0.00000000000E+00 -0.40406181331E+02  0.40406181331E+02  0.00000000000E+00 0.  1.
         25    2    1    2    0    0  0.00000000000E+00  0.00000000000E+00  0.56268796536E+02  0.13708115920E+03  0.12500026697E+03 0.  0.
        -13    1    3    3    0    0 -0.55838629272E+02 -0.25120674202E+02  0.14382309241E+02  0.62895649953E+02  0.10570000000E+00 0. -1.
         13    1    3    3    0    0  0.55838629272E+02  0.25120674202E+02  0.41886487295E+02  0.74185509244E+02  0.10570000000E+00 0. -1.
<mgrwt>
<rscale>  0 0.12500027E+03</rscale>
<asrwt>0</asrwt>
<pdfrwt beam="1">  1       21 0.14873073E-01 0.12500027E+03</pdfrwt>
<pdfrwt beam="2">  1       21 0.62163356E-02 0.12500027E+03</pdfrwt>
<totfact> 0.72421575E+06</totfact>
</mgrwt>
</event>
<event>
 5    1  0.7934596E-005  0.1249991E+03  0.7818608E-02  0.1235071E+00
         21   -1    0    0  502  501  0.00000000000E+00  0.00000000000E+00  0.21974633090E+02  0.21974633090E+02  0.00000000000E+00 0. -1.
         21   -1    0    0  501  502 -0.00000000000E+00 -0.00000000000E+00 -0.17775931674E+03  0.17775931674E+03  0.00000000000E+00 0. -1.
         25    2    1    2    0    0  0.00000000000E+00  0.00000000000E+00 -0.15578468365E+03  0.19973394983E+03  0.12499913222E+03 0.  0.
        -13    1    3    3    0    0 -0.58132126024E+02 -0.81688764551E+01 -0.11216720389E+03  0.12660002930E+03  0.10570000000E+00 0.  1.
         13    1    3    3    0    0  0.58132126024E+02  0.81688764551E+01 -0.43617479761E+02  0.73133920528E+02  0.10570000000E+00 0.  1.
<mgrwt>
<rscale>  0 0.12499913E+03</rscale>
<asrwt>0</asrwt>
<pdfrwt beam="1">  1       21 0.33807128E-02 0.12499913E+03</pdfrwt>
<pdfrwt beam="2">  1       21 0.27347587E-01 0.12499913E+03</pdfrwt>
<totfact> 0.64957519E+06</totfact>
</mgrwt>
</event>
<event>
 5    1  0.7934596E-005  0.1250012E+03  0.7818608E-02  0.1235067E+00
         21   -1    0    0  502  501  0.00000000000E+00  0.00000000000E+00  0.65544607100E+02  0.65544607100E+02  0.00000000000E+00 0. -1.
         21   -1    0    0  501  502 -0.00000000000E+00 -0.00000000000E+00 -0.59598002510E+02  0.59598002510E+02  0.00000000000E+00 0. -1.
         25    2    1    2    0    0  0.00000000000E+00  0.00000000000E+00  0.59466045910E+01  0.12514260961E+03  0.12500124253E+03 0.  0.
        -13    1    3    3    0    0  0.20915029249E+02 -0.24616619729E+02  0.56539888757E+02  0.65116715277E+02  0.10570000000E+00 0. -1.
         13    1    3    3    0    0 -0.20915029249E+02  0.24616619729E+02 -0.50593284166E+02  0.60025894333E+02  0.10570000000E+00 0. -1.
<mgrwt>
<rscale>  0 0.12500124E+03</rscale>
<asrwt>0</asrwt>
<pdfrwt beam="1">  1       21 0.10083786E-01 0.12500124E+03</pdfrwt>
<pdfrwt beam="2">  1       21 0.91689234E-02 0.12500124E+03</pdfrwt>
<totfact> 0.74021970E+06</totfact>
</mgrwt>
</event>
<event>
 5    1  0.7934596E-005  0.1250005E+03  0.7818608E-02  0.1235068E+00
         21   -1    0    0  502  501  0.00000000000E+00  0.00000000000E+00  0.28019649523E+03  0.28019649523E+03  0.00000000000E+00 0.  1.
         21   -1    0    0  501  502 -0.00000000000E+00 -0.00000000000E+00 -0.13941228609E+02  0.13941228609E+02  0.00000000000E+00 0.  1.
         25    2    1    2    0    0  0.00000000000E+00  0.00000000000E+00  0.26625526662E+03  0.29413772383E+03  0.12500053432E+03 0.  0.
        -13    1    3    3    0    0  0.31138029926E+02 -0.31153299288E+02  0.28788052449E+02  0.52620035163E+02  0.10570000000E+00 0.  1.
         13    1    3    3    0    0 -0.31138029926E+02  0.31153299288E+02  0.23746721417E+03  0.24151768867E+03  0.10570000000E+00 0.  1.
<mgrwt>
<rscale>  0 0.12500053E+03</rscale>
<asrwt>0</asrwt>
<pdfrwt beam="1">  1       21 0.43107149E-01 0.12500053E+03</pdfrwt>
<pdfrwt beam="2">  1       21 0.21448046E-02 0.12500053E+03</pdfrwt>
<totfact> 0.55946148E+06</totfact>
</mgrwt>
</event>
<event>
 5    1  0.7934596E-005  0.1249972E+03  0.7818608E-02  0.1235074E+00
         21   -1    0    0  502  501  0.00000000000E+00  0.00000000000E+00  0.25019388078E+02  0.25019388078E+02  0.00000000000E+00 0.  1.
         21   -1    0    0  501  502 -0.00000000000E+00 -0.00000000000E+00 -0.15612190334E+03  0.15612190334E+03  0.00000000000E+00 0.  1.
         25    2    1    2    0    0  0.00000000000E+00  0.00000000000E+00 -0.13110251526E+03  0.18114129142E+03  0.12499719176E+03 0.  0.
        -13    1    3    3    0    0 -0.61168173039E+02 -0.85239033108E+01 -0.51661880378E+02  0.80518093478E+02  0.10570000000E+00 0.  1.
         13    1    3    3    0    0  0.61168173039E+02  0.85239033108E+01 -0.79440634881E+02  0.10062319794E+03  0.10570000000E+00 0.  1.
<mgrwt>
<rscale>  0 0.12499719E+03</rscale>
<asrwt>0</asrwt>
<pdfrwt beam="1">  1       21 0.38491367E-02 0.12499719E+03</pdfrwt>
<pdfrwt beam="2">  1       21 0.24018754E-01 0.12499719E+03</pdfrwt>
<totfact> 0.67025625E+06</totfact>
</mgrwt>
</event>
<event>
 5    1  0.7934596E-005  0.1249967E+03  0.7818608E-02  0.1235074E+00
         21   -1    0    0  502  501  0.00000000000E+00  0.00000000000E+00  0.19092995424E+03  0.19092995424E+03  0.00000000000E+00 0. -1.
         21   -1    0    0  501  502 -0.00000000000E+00 -0.00000000000E+00 -0.20457988789E+02  0.20457988789E+02  0.00000000000E+00 0. -1.
         25    2    1    2    0    0  0.00000000000E+00  0.00000000000E+00  0.17047196545E+03  0.21138794303E+03  0.12499668577E+03 0.  0.
        -13    1    3    3    0    0  0.40468515968E+02 -0.42084448442E+02  0.12294632052E+03  0.13610514497E+03  0.10570000000E+00 0. -1.
         13    1    3    3    0    0 -0.40468515968E+02  0.42084448442E+02  0.47525644938E+02  0.75282798065E+02  0.10570000000E+00 0. -1.
<mgrwt>
<rscale>  0 0.12499669E+03</rscale>
<asrwt>0</asrwt>
<pdfrwt beam="1">  1       21 0.29373838E-01 0.12499669E+03</pdfrwt>
<pdfrwt beam="2">  1       21 0.31473830E-02 0.12499669E+03</pdfrwt>
<totfact> 0.63719145E+06</totfact>
</mgrwt>
</event>
<event>
 5    1  0.7934596E-005  0.1250005E+03  0.7818608E-02  0.1235068E+00
         21   -1    0    0  502  501  0.00000000000E+00  0.00000000000E+00  0.69243563874E+02  0.69243563874E+02  0.00000000000E+00 0. -1.
         21   -1    0    0  501  502 -0.00000000000E+00 -0.00000000000E+00 -0.56413679864E+02  0.56413679864E+02  0.00000000000E+00 0. -1.
         25    2    1    2    0    0  0.00000000000E+00  0.00000000000E+00  0.12829884010E+02  0.12565724374E+03  0.12500054792E+03 0.  0.
        -13    1    3    3    0    0  0.40279377329E+02 -0.41435185281E+02  0.30351172060E+02  0.65272564184E+02  0.10570000000E+00 0. -1.
         13    1    3    3    0    0 -0.40279377329E+02  0.41435185281E+02 -0.17521288050E+02  0.60384679553E+02  0.10570000000E+00 0. -1.
<mgrwt>
<rscale>  0 0.12500055E+03</rscale>
<asrwt>0</asrwt>
<pdfrwt beam="1">  1       21 0.10652856E-01 0.12500055E+03</pdfrwt>
<pdfrwt beam="2">  1       21 0.86790277E-02 0.12500055E+03</pdfrwt>
<totfact> 0.73952444E+06</totfact>
</mgrwt>
</event>
<event>
 5    1  0.7934596E-005  0.1250017E+03  0.7818608E-02  0.1235067E+00
         21   -1    0    0  502  501  0.00000000000E+00  0.00000000000E+00  0.40618864202E+02  0.40618864202E+02  0.00000000000E+00 0. -1.
         21   -1    0    0  501  502 -0.00000000000E+00 -0.00000000000E+00 -0.96171003991E+02  0.96171003991E+02  0.00000000000E+00 0. -1.
         25    2    1    2    0    0  0.00000000000E+00  0.00000000000E+00 -0.55552139789E+02  0.13678986819E+03  0.12500171121E+03 0.  0.
        -13    1    3    3    0    0  0.21674629762E+00 -0.62491810231E+02 -0.26642815788E+02  0.67934704905E+02  0.10570000000E+00 0. -1.
         13    1    3    3    0    0 -0.21674629762E+00  0.62491810231E+02 -0.28909324001E+02  0.68855163289E+02  0.10570000000E+00 0. -1.
<mgrwt>
<rscale>  0 0.12500171E+03</rscale>
<asrwt>0</asrwt>
<pdfrwt beam="1">  1       21 0.62490561E-02 0.12500171E+03</pdfrwt>
<pdfrwt beam="2">  1       21 0.14795539E-01 0.12500171E+03</pdfrwt>
<totfact> 0.72457177E+06</totfact>
</mgrwt>
</event>
<event>
 5    1  0.7934596E-005  0.1250041E+03  0.7818608E-02  0.1235063E+00
         21   -1    0    0  502  501  0.00000000000E+00  0.00000000000E+00  0.37433145176E+02  0.37433145176E+02  0.00000000000E+00 0. -1.
         21   -1    0    0  501  502 -0.00000000000E+00 -0.00000000000E+00 -0.10435959355E+03  0.10435959355E+03  0.00000000000E+00 0. -1.
         25    2    1    2    0    0  0.00000000000E+00  0.00000000000E+00 -0.66926448374E+02  0.14179273873E+03  0.12500412499E+03 0.  0.
        -13    1    3    3    0    0 -0.27134371152E+02 -0.51618229239E+02 -0.79531992636E+01  0.58855587998E+02  0.10570000000E+00 0. -1.
         13    1    3    3    0    0  0.27134371152E+02  0.51618229239E+02 -0.58973249110E+02  0.82937150727E+02  0.10570000000E+00 0. -1.
<mgrwt>
<rscale>  0 0.12500412E+03</rscale>
<asrwt>0</asrwt>
<pdfrwt beam="1">  1       21 0.57589455E-02 0.12500412E+03</pdfrwt>
<pdfrwt beam="2">  1       21 0.16055322E-01 0.12500412E+03</pdfrwt>
<totfact> 0.71798581E+06</totfact>
</mgrwt>
</event>
<event>
 5    1  0.7934596E-005  0.1250011E+03  0.7818608E-02  0.1235068E+00
         21   -1    0    0  502  501  0.00000000000E+00  0.00000000000E+00  0.11210133457E+03  0.11210133457E+03  0.00000000000E+00 0. -1.
         21   -1    0    0  501  502 -0.00000000000E+00 -0.00000000000E+00 -0.34846320353E+02  0.34846320353E+02  0.00000000000E+00 0. -1.
         25    2    1    2    0    0  0.00000000000E+00  0.00000000000E+00  0.77255014220E+02  0.14694765493E+03  0.12500110426E+03 0.  0.
        -13    1    3    3    0    0 -0.21697804814E+02  0.36991419910E+02  0.92075892729E+02  0.10157332856E+03  0.10570000000E+00 0. -1.
         13    1    3    3    0    0  0.21697804814E+02 -0.36991419910E+02 -0.14820878509E+02  0.45374326364E+02  0.10570000000E+00 0. -1.
<mgrwt>
<rscale>  0 0.12500110E+03</rscale>
<asrwt>0</asrwt>
<pdfrwt beam="1">  1       21 0.17246359E-01 0.12500110E+03</pdfrwt>
<pdfrwt beam="2">  1       21 0.53609724E-02 0.12500110E+03</pdfrwt>
<totfact> 0.71142770E+06</totfact>
</mgrwt>
</event>
<event>
 5    1  0.7934596E-005  0.1249937E+03  0.7818608E-02  0.1235079E+00
         21   -1    0    0  502  501  0.00000000000E+00  0.00000000000E+00  0.98382988484E+02  0.98382988484E+02  0.00000000000E+00 0.  1.
         21   -1    0    0  501  502 -0.00000000000E+00 -0.00000000000E+00 -0.39700501288E+02  0.39700501288E+02  0.00000000000E+00 0.  1.
         25    2    1    2    0    0  0.00000000000E+00  0.00000000000E+00  0.58682487196E+02  0.13808348977E+03  0.12499366322E+03 0.  0.
        -13    1    3    3    0    0 -0.19168754222E+02  0.32121567391E+02 -0.25967888548E+02  0.45536563750E+02  0.10570000000E+00 0. -1.
         13    1    3    3    0    0  0.19168754222E+02 -0.32121567391E+02  0.84650375744E+02  0.92546926022E+02  0.10570000000E+00 0. -1.
<mgrwt>
<rscale>  0 0.12499366E+03</rscale>
<asrwt>0</asrwt>
<pdfrwt beam="1">  1       21 0.15135844E-01 0.12499366E+03</pdfrwt>
<pdfrwt beam="2">  1       21 0.61077695E-02 0.12499366E+03</pdfrwt>
<totfact> 0.72302176E+06</totfact>
</mgrwt>
</event>
<event>
 5    1  0.7934596E-005  0.1250004E+03  0.7818608E-02  0.1235069E+00
         21   -1    0    0  502  501  0.00000000000E+00  0.00000000000E+00  0.25793332614E+02  0.25793332614E+02  0.00000000000E+00 0.  1.
         21   -1    0    0  501  502 -0.00000000000E+00 -0.00000000000E+00 -0.15144506159E+03  0.15144506159E+03  0.00000000000E+00 0.  1.
         25    2    1    2    0    0  0.00000000000E+00  0.00000000000E+00 -0.12565172897E+03  0.17723839420E+03  0.12500036554E+03 0.  0.
        -13    1    3    3    0    0  0.46926553435E+02  0.34966866576E+02 -0.31713359996E+02  0.66562238170E+02  0.10570000000E+00 0.  1.
         13    1    3    3    0    0 -0.46926553435E+02 -0.34966866576E+02 -0.93938368977E+02  0.11067615603E+03  0.10570000000E+00 0.  1.
<mgrwt>
<rscale>  0 0.12500037E+03</rscale>
<asrwt>0</asrwt>
<pdfrwt beam="1">  1       21 0.39682050E-02 0.12500037E+03</pdfrwt>
<pdfrwt beam="2">  1       21 0.23299240E-01 0.12500037E+03</pdfrwt>
<totfact> 0.67469134E+06</totfact>
</mgrwt>
</event>
<event>
 5    1  0.7934596E-005  0.1250004E+03  0.7818608E-02  0.1235069E+00
         21   -1    0    0  502  501  0.00000000000E+00  0.00000000000E+00  0.17248452407E+03  0.17248452407E+03  0.00000000000E+00 0. -1.
         21   -1    0    0  501  502 -0.00000000000E+00 -0.00000000000E+00 -0.22647117556E+02  0.22647117556E+02  0.00000000000E+00 0. -1.
         25    2    1    2    0    0  0.00000000000E+00  0.00000000000E+00  0.14983740652E+03  0.19513164163E+03  0.12500043669E+03 0.  0.
        -13    1    3    3    0    0 -0.61107324237E+02  0.54393507747E+01  0.56279080884E+02  0.83252854184E+02  0.10570000000E+00 0.  1.
         13    1    3    3    0    0  0.61107324237E+02 -0.54393507747E+01  0.93558325635E+02  0.11187878745E+03  0.10570000000E+00 0.  1.
<mgrwt>
<rscale>  0 0.12500044E+03</rscale>
<asrwt>0</asrwt>
<pdfrwt beam="1">  1       21 0.26536080E-01 0.12500044E+03</pdfrwt>
<pdfrwt beam="2">  1       21 0.34841720E-02 0.12500044E+03</pdfrwt>
<totfact> 0.65455894E+06</totfact>
</mgrwt>
</event>
<event>
 5    1  0.7934596E-005  0.1249988E+03  0.7818608E-02  0.1235071E+00
         21   -1    0    0  502  501  0.00000000000E+00  0.00000000000E+00  0.12771706693E+03  0.12771706693E+03  0.00000000000E+00 0. -1.
         21   -1    0    0  501  502 -0.00000000000E+00 -0.00000000000E+00 -0.30584583947E+02  0.30584583947E+02  0.00000000000E+00 0. -1.
         25    2    1    2    0    0  0.00000000000E+00  0.00000000000E+00  0.97132482982E+02  0.15830165088E+03  0.12499877367E+03 0.  0.
        -13    1    3    3    0    0 -0.38836124829E+02 -0.45187182325E+02  0.72462325491E+02  0.93813249737E+02  0.10570000000E+00 0. -1.
         13    1    3    3    0    0  0.38836124829E+02  0.45187182325E+02  0.24670157491E+02  0.64488401138E+02  0.10570000000E+00 0. -1.
<mgrwt>
<rscale>  0 0.12499877E+03</rscale>
<asrwt>0</asrwt>
<pdfrwt beam="1">  1       21 0.19648779E-01 0.12499877E+03</pdfrwt>
<pdfrwt beam="2">  1       21 0.47053207E-02 0.12499877E+03</pdfrwt>
<totfact> 0.69729788E+06</totfact>
</mgrwt>
</event>
<event>
 5    1  0.7934596E-005  0.1249978E+03  0.7818608E-02  0.1235073E+00
         21   -1    0    0  502  501  0.00000000000E+00  0.00000000000E+00  0.20883384480E+02  0.20883384480E+02  0.00000000000E+00 0.  1.
         21   -1    0    0  501  502 -0.00000000000E+00 -0.00000000000E+00 -0.18704399280E+03  0.18704399280E+03  0.00000000000E+00 0.  1.
         25    2    1    2    0    0  0.00000000000E+00  0.00000000000E+00 -0.16616060832E+03  0.20792737728E+03  0.12499778584E+03 0.  0.
        -13    1    3    3    0    0  0.12283108313E+02  0.38664987132E+02 -0.39965891287E+01  0.40765670323E+02  0.10570000000E+00 0.  1.
         13    1    3    3    0    0 -0.12283108313E+02 -0.38664987132E+02 -0.16216401920E+03  0.16716170696E+03  0.10570000000E+00 0.  1.
<mgrwt>
<rscale>  0 0.12499779E+03</rscale>
<asrwt>0</asrwt>
<pdfrwt beam="1">  1       21 0.32128283E-02 0.12499779E+03</pdfrwt>
<pdfrwt beam="2">  1       21 0.28776000E-01 0.12499779E+03</pdfrwt>
<totfact> 0.64081850E+06</totfact>
</mgrwt>
</event>
<event>
 5    1  0.7934596E-005  0.1250005E+03  0.7818608E-02  0.1235069E+00
         21   -1    0    0  502  501  0.00000000000E+00  0.00000000000E+00  0.95567096725E+02  0.95567096725E+02  0.00000000000E+00 0. -1.
         21   -1    0    0  501  502 -0.00000000000E+00 -0.00000000000E+00 -0.40874720542E+02  0.40874720542E+02  0.00000000000E+00 0. -1.
         25    2    1    2    0    0  0.00000000000E+00  0.00000000000E+00  0.54692376182E+02  0.13644181727E+03  0.12500045395E+03 0.  0.
        -13    1    3    3    0    0  0.15772972171E+02  0.51603357076E+02 -0.70772682943E+01  0.54422348457E+02  0.10570000000E+00 0. -1.
         13    1    3    3    0    0 -0.15772972171E+02 -0.51603357076E+02  0.61769644477E+02  0.82019468810E+02  0.10570000000E+00 0. -1.
<mgrwt>
<rscale>  0 0.12500045E+03</rscale>
<asrwt>0</asrwt>
<pdfrwt beam="1">  1       21 0.14702630E-01 0.12500045E+03</pdfrwt>
<pdfrwt beam="2">  1       21 0.62884186E-02 0.12500045E+03</pdfrwt>
<totfact> 0.72505285E+06</totfact>
</mgrwt>
</event>
<event>
 5    1  0.7934596E-005  0.1250062E+03  0.7818608E-02  0.1235060E+00
         21   -1    0    0  502  501  0.00000000000E+00  0.00000000000E+00  0.23224183713E+03  0.23224183713E+03  0.00000000000E+00 0.  1.
         21   -1    0    0  501  502 -0.00000000000E+00 -0.00000000000E+00 -0.16821413632E+02  0.16821413632E+02  0.00000000000E+00 0.  1.
         25    2    1    2    0    0  0.00000000000E+00  0.00000000000E+00  0.21542042350E+03  0.24906325077E+03  0.12500617593E+03 0.  0.
        -13    1    3    3    0    0 -0.41662960034E+01 -0.35764890751E+02  0.59190587953E+01  0.36490161172E+02  0.10570000000E+00 0.  1.
         13    1    3    3    0    0  0.41662960034E+01  0.35764890751E+02  0.20950136471E+03  0.21257308959E+03  0.10570000000E+00 0.  1.
<mgrwt>
<rscale>  0 0.12500618E+03</rscale>
<asrwt>0</asrwt>
<pdfrwt beam="1">  1       21 0.35729511E-01 0.12500618E+03</pdfrwt>
<pdfrwt beam="2">  1       21 0.25879100E-02 0.12500618E+03</pdfrwt>
<totfact> 0.59957161E+06</totfact>
</mgrwt>
</event>
<event>
 5    1  0.7934596E-005  0.1249987E+03  0.7818608E-02  0.1235071E+00
         21   -1    0    0  502  501  0.00000000000E+00  0.00000000000E+00  0.26200269525E+02  0.26200269525E+02  0.00000000000E+00 0.  1.
         21   -1    0    0  501  502 -0.00000000000E+00 -0.00000000000E+00 -0.14908883344E+03  0.14908883344E+03  0.00000000000E+00 0.  1.
         25    2    1    2    0    0  0.00000000000E+00  0.00000000000E+00 -0.12288856392E+03  0.17528910297E+03  0.12499868190E+03 0.  0.
        -13    1    3    3    0    0 -0.47940419998E+02  0.26486207028E+02 -0.19226221964E+02  0.58047065523E+02  0.10570000000E+00 0. -1.
         13    1    3    3    0    0  0.47940419998E+02 -0.26486207028E+02 -0.10366234195E+03  0.11724203744E+03  0.10570000000E+00 0. -1.
<mgrwt>
<rscale>  0 0.12499868E+03</rscale>
<asrwt>0</asrwt>
<pdfrwt beam="1">  1       21 0.40308107E-02 0.12499868E+03</pdfrwt>
<pdfrwt beam="2">  1       21 0.22936744E-01 0.12499868E+03</pdfrwt>
<totfact> 0.67698372E+06</totfact>
</mgrwt>
</event>
<event>
 5    1  0.7934596E-005  0.1250000E+03  0.7818608E-02  0.1235069E+00
         21   -1    0    0  502  501  0.00000000000E+00  0.00000000000E+00  0.12169591394E+02  0.12169591394E+02  0.00000000000E+00 0.  1.
         21   -1    0    0  501  502 -0.00000000000E+00 -0.00000000000E+00 -0.32098454648E+03  0.32098454648E+03  0.00000000000E+00 0.  1.
         25    2    1    2    0    0  0.00000000000E+00  0.00000000000E+00 -0.30881495509E+03  0.33315413787E+03  0.12500001239E+03 0.  0.
        -13    1    3    3    0    0  0.40788775162E+02 -0.46941051522E+02 -0.13775177569E+03  0.15113817974E+03  0.10570000000E+00 0.  1.
         13    1    3    3    0    0 -0.40788775162E+02  0.46941051522E+02 -0.17106317940E+03  0.18201595814E+03  0.10570000000E+00 0.  1.
<mgrwt>
<rscale>  0 0.12500001E+03</rscale>
<asrwt>0</asrwt>
<pdfrwt beam="1">  1       21 0.18722451E-02 0.12500001E+03</pdfrwt>
<pdfrwt beam="2">  1       21 0.49382230E-01 0.12500001E+03</pdfrwt>
<totfact> 0.52807121E+06</totfact>
</mgrwt>
</event>
<event>
 5    1  0.7934596E-005  0.1250009E+03  0.7818608E-02  0.1235068E+00
         21   -1    0    0  502  501  0.00000000000E+00  0.00000000000E+00  0.72153551295E+02  0.72153551295E+02  0.00000000000E+00 0. -1.
         21   -1    0    0  501  502 -0.00000000000E+00 -0.00000000000E+00 -0.54138790879E+02  0.54138790879E+02  0.00000000000E+00 0. -1.
         25    2    1    2    0    0  0.00000000000E+00  0.00000000000E+00  0.18014760416E+02  0.12629234217E+03  0.12500089639E+03 0.  0.
        -13    1    3    3    0    0  0.61261086013E+02  0.12351676362E+02  0.99168378555E+01  0.63275899156E+02  0.10570000000E+00 0. -1.
         13    1    3    3    0    0 -0.61261086013E+02 -0.12351676362E+02  0.80979225606E+01  0.63016443019E+02  0.10570000000E+00 0. -1.
<mgrwt>
<rscale>  0 0.12500090E+03</rscale>
<asrwt>0</asrwt>
<pdfrwt beam="1">  1       21 0.11100546E-01 0.12500090E+03</pdfrwt>
<pdfrwt beam="2">  1       21 0.83290447E-02 0.12500090E+03</pdfrwt>
<totfact> 0.73864140E+06</totfact>
</mgrwt>
</event>
<event>
 5    1  0.7934596E-005  0.1250002E+03  0.7818608E-02  0.1235069E+00
         21   -1    0    0  502  501  0.00000000000E+00  0.00000000000E+00  0.25650714905E+03  0.25650714905E+03  0.00000000000E+00 0.  1.
         21   -1    0    0  501  502 -0.00000000000E+00 -0.00000000000E+00 -0.15228678057E+02  0.15228678057E+02  0.00000000000E+00 0.  1.
         25    2    1    2    0    0  0.00000000000E+00  0.00000000000E+00  0.24127847099E+03  0.27173582710E+03  0.12500023667E+03 0.  0.
        -13    1    3    3    0    0  0.29721326135E+02  0.54756835008E+02  0.13141814473E+03  0.14543867486E+03  0.10570000000E+00 0.  1.
         13    1    3    3    0    0 -0.29721326135E+02 -0.54756835008E+02  0.10986032626E+03  0.12629715224E+03  0.10570000000E+00 0.  1.
<mgrwt>
<rscale>  0 0.12500024E+03</rscale>
<asrwt>0</asrwt>
<pdfrwt beam="1">  1       21 0.39462635E-01 0.12500024E+03</pdfrwt>
<pdfrwt beam="2">  1       21 0.23428737E-02 0.12500024E+03</pdfrwt>
<totfact> 0.57889641E+06</totfact>
</mgrwt>
</event>
<event>
 5    1  0.7934596E-005  0.1250000E+03  0.7818608E-02  0.1235069E+00
         21   -1    0    0  502  501  0.00000000000E+00  0.00000000000E+00  0.33473552468E+02  0.33473552468E+02  0.00000000000E+00 0.  1.
         21   -1    0    0  501  502 -0.00000000000E+00 -0.00000000000E+00 -0.11669658490E+03  0.11669658490E+03  0.00000000000E+00 0.  1.
         25    2    1    2    0    0  0.00000000000E+00  0.00000000000E+00 -0.83223032437E+02  0.15017013737E+03  0.12499998812E+03 0.  0.
        -13    1    3    3    0    0 -0.58030286197E+02 -0.33480994664E+01 -0.69203992843E+02  0.90376588141E+02  0.10570000000E+00 0. -1.
         13    1    3    3    0    0  0.58030286197E+02  0.33480994664E+01 -0.14019039594E+02  0.59793549232E+02  0.10570000000E+00 0. -1.
<mgrwt>
<rscale>  0 0.12499999E+03</rscale>
<asrwt>0</asrwt>
<pdfrwt beam="1">  1       21 0.51497773E-02 0.12499999E+03</pdfrwt>
<pdfrwt beam="2">  1       21 0.17953321E-01 0.12499999E+03</pdfrwt>
<totfact> 0.70737857E+06</totfact>
</mgrwt>
</event>
<event>
 5    1  0.7934596E-005  0.1250085E+03  0.7818608E-02  0.1235056E+00
         21   -1    0    0  502  501  0.00000000000E+00  0.00000000000E+00  0.30396718272E+02  0.30396718272E+02  0.00000000000E+00 0. -1.
         21   -1    0    0  501  502 -0.00000000000E+00 -0.00000000000E+00 -0.12852636038E+03  0.12852636038E+03  0.00000000000E+00 0. -1.
         25    2    1    2    0    0  0.00000000000E+00  0.00000000000E+00 -0.98129642112E+02  0.15892307866E+03  0.12500847279E+03 0.  0.
        -13    1    3    3    0    0 -0.13522227575E+02  0.27440804572E+02  0.20228758858E+02  0.36675090342E+02  0.10570000000E+00 0. -1.
         13    1    3    3    0    0  0.13522227575E+02 -0.27440804572E+02 -0.11835840097E+03  0.12224798831E+03  0.10570000000E+00 0. -1.
<mgrwt>
<rscale>  0 0.12500847E+03</rscale>
<asrwt>0</asrwt>
<pdfrwt beam="1">  1       21 0.46764182E-02 0.12500847E+03</pdfrwt>
<pdfrwt beam="2">  1       21 0.19773286E-01 0.12500847E+03</pdfrwt>
<totfact> 0.69636320E+06</totfact>
</mgrwt>
</event>
<event>
 5    1  0.7934596E-005  0.1249975E+03  0.7818608E-02  0.1235073E+00
         21   -1    0    0  502  501  0.00000000000E+00  0.00000000000E+00  0.12527997428E+03  0.12527997428E+03  0.00000000000E+00 0. -1.
         21   -1    0    0  501  502 -0.00000000000E+00 -0.00000000000E+00 -0.31178911210E+02  0.31178911210E+02  0.00000000000E+00 0. -1.
         25    2    1    2    0    0  0.00000000000E+00  0.00000000000E+00  0.94101063069E+02  0.15645888549E+03  0.12499749109E+03 0.  0.
        -13    1    3    3    0    0  0.39221131690E+02 -0.30251570264E+02 -0.65580244577E+00  0.49536813824E+02  0.10570000000E+00 0.  1.
         13    1    3    3    0    0 -0.39221131690E+02  0.30251570264E+02  0.94756865515E+02  0.10692207167E+03  0.10570000000E+00 0.  1.
<mgrwt>
<rscale>  0 0.12499749E+03</rscale>
<asrwt>0</asrwt>
<pdfrwt beam="1">  1       21 0.19273842E-01 0.12499749E+03</pdfrwt>
<pdfrwt beam="2">  1       21 0.47967556E-02 0.12499749E+03</pdfrwt>
<totfact> 0.69959255E+06</totfact>
</mgrwt>
</event>
<event>
 5    1  0.7934596E-005  0.1250094E+03  0.7818608E-02  0.1235055E+00
         21   -1    0    0  502  501  0.00000000000E+00  0.00000000000E+00  0.23238201552E+02  0.23238201552E+02  0.00000000000E+00 0.  1.
         21   -1    0    0  501  502 -0.00000000000E+00 -0.00000000000E+00 -0.16812136022E+03  0.16812136022E+03  0.00000000000E+00 0.  1.
         25    2    1    2    0    0  0.00000000000E+00  0.00000000000E+00 -0.14488315867E+03  0.19135956177E+03  0.12500940851E+03 0.  0.
        -13    1    3    3    0    0 -0.57570856070E+02 -0.24105912564E+02 -0.77593766206E+02  0.99580631730E+02  0.10570000000E+00 0.  1.
         13    1    3    3    0    0  0.57570856070E+02  0.24105912564E+02 -0.67289392460E+02  0.91778930040E+02  0.10570000000E+00 0.  1.
<mgrwt>
<rscale>  0 0.12500941E+03</rscale>
<asrwt>0</asrwt>
<pdfrwt beam="1">  1       21 0.35751081E-02 0.12500941E+03</pdfrwt>
<pdfrwt beam="2">  1       21 0.25864824E-01 0.12500941E+03</pdfrwt>
<totfact> 0.65855979E+06</totfact>
</mgrwt>
</event>
<event>
 5    1  0.7934596E-005  0.1249997E+03  0.7818608E-02  0.1235070E+00
         21   -1    0    0  502  501  0.00000000000E+00  0.00000000000E+00  0.16898887133E+02  0.16898887133E+02  0.00000000000E+00 0. -1.
         21   -1    0    0  501  502 -0.00000000000E+00 -0.00000000000E+00 -0.23115332033E+03  0.23115332033E+03  0.00000000000E+00 0. -1.
         25    2    1    2    0    0  0.00000000000E+00  0.00000000000E+00 -0.21425443319E+03  0.24805220746E+03  0.12499974193E+03 0.  0.
        -13    1    3    3    0    0 -0.36697486824E+02  0.41817193161E+02 -0.50620323078E+02  0.75218425031E+02  0.10570000000E+00 0.  1.
         13    1    3    3    0    0  0.36697486824E+02 -0.41817193161E+02 -0.16363411011E+03  0.17283378243E+03  0.10570000000E+00 0.  1.
<mgrwt>
<rscale>  0 0.12499974E+03</rscale>
<asrwt>0</asrwt>
<pdfrwt beam="1">  1       21 0.25998287E-02 0.12499974E+03</pdfrwt>
<pdfrwt beam="2">  1       21 0.35562051E-01 0.12499974E+03</pdfrwt>
<totfact> 0.60062447E+06</totfact>
</mgrwt>
</event>
<event>
 5    1  0.7934596E-005  0.1250054E+03  0.7818608E-02  0.1235061E+00
         21   -1    0    0  502  501  0.00000000000E+00  0.00000000000E+00  0.17971362681E+03  0.17971362681E+03  0.00000000000E+00 0.  1.
         21   -1    0    0  501  502 -0.00000000000E+00 -0.00000000000E+00 -0.21737836868E+02  0.21737836868E+02  0.00000000000E+00 0.  1.
         25    2    1    2    0    0  0.00000000000E+00  0.00000000000E+00  0.15797578995E+03  0.20145146368E+03  0.12500536793E+03 0.  0.
        -13    1    3    3    0    0 -0.44804128222E+02 -0.31594432031E+02  0.12735984829E+03  0.13865842986E+03  0.10570000000E+00 0.  1.
         13    1    3    3    0    0  0.44804128222E+02  0.31594432031E+02  0.30615941655E+02  0.62793033825E+02  0.10570000000E+00 0.  1.
<mgrwt>
<rscale>  0 0.12500537E+03</rscale>
<asrwt>0</asrwt>
<pdfrwt beam="1">  1       21 0.27648249E-01 0.12500537E+03</pdfrwt>
<pdfrwt beam="2">  1       21 0.33442827E-02 0.12500537E+03</pdfrwt>
<totfact> 0.64761516E+06</totfact>
</mgrwt>
</event>
<event>
 5    1  0.7934596E-005  0.1250106E+03  0.7818608E-02  0.1235053E+00
         21   -1    0    0  502  501  0.00000000000E+00  0.00000000000E+00  0.15817901239E+03  0.15817901239E+03  0.00000000000E+00 0. -1.
         21   -1    0    0  501  502 -0.00000000000E+00 -0.00000000000E+00 -0.24699301792E+02  0.24699301792E+02  0.00000000000E+00 0. -1.
         25    2    1    2    0    0  0.00000000000E+00  0.00000000000E+00  0.13347971060E+03  0.18287831419E+03  0.12501057818E+03 0.  0.
        -13    1    3    3    0    0  0.22894525093E+02  0.30545725403E+02 -0.56656921049E+01  0.38591603480E+02  0.10570000000E+00 0.  1.
         13    1    3    3    0    0 -0.22894525093E+02 -0.30545725403E+02  0.13914540271E+03  0.14428671071E+03  0.10570000000E+00 0.  1.
<mgrwt>
<rscale>  0 0.12501058E+03</rscale>
<asrwt>0</asrwt>
<pdfrwt beam="1">  1       21 0.24335232E-01 0.12501058E+03</pdfrwt>
<pdfrwt beam="2">  1       21 0.37998927E-02 0.12501058E+03</pdfrwt>
<totfact> 0.66804949E+06</totfact>
</mgrwt>
</event>
<event>
 5    1  0.7934596E-005  0.1249990E+03  0.7818608E-02  0.1235071E+00
         21   -1    0    0  502  501  0.00000000000E+00  0.00000000000E+00  0.40848285077E+02  0.40848285077E+02  0.00000000000E+00 0. -1.
         21   -1    0    0  501  502 -0.00000000000E+00 -0.00000000000E+00 -0.95626710557E+02  0.95626710557E+02  0.00000000000E+00 0. -1.
         25    2    1    2    0    0  0.00000000000E+00  0.00000000000E+00 -0.54778425479E+02  0.13647499563E+03  0.12499899414E+03 0.  0.
        -13    1    3    3    0    0 -0.38434812248E+02 -0.84551572869E+01 -0.80400451479E+02  0.89515184454E+02  0.10570000000E+00 0. -1.
         13    1    3    3    0    0  0.38434812248E+02  0.84551572869E+01  0.25622026000E+02  0.46959811180E+02  0.10570000000E+00 0. -1.
<mgrwt>
<rscale>  0 0.12499899E+03</rscale>
<asrwt>0</asrwt>
<pdfrwt beam="1">  1       21 0.62843516E-02 0.12499899E+03</pdfrwt>
<pdfrwt beam="2">  1       21 0.14711801E-01 0.12499899E+03</pdfrwt>
<totfact> 0.72503617E+06</totfact>
</mgrwt>
</event>
<event>
 5    1  0.7934596E-005  0.1249974E+03  0.7818608E-02  0.1235073E+00
         21   -1    0    0  502  501  0.00000000000E+00  0.00000000000E+00  0.10735348190E+03  0.10735348190E+03  0.00000000000E+00 0. -1.
         21   -1    0    0  501  502 -0.00000000000E+00 -0.00000000000E+00 -0.36385291939E+02  0.36385291939E+02  0.00000000000E+00 0. -1.
         25    2    1    2    0    0  0.00000000000E+00  0.00000000000E+00  0.70968189959E+02  0.14373877384E+03  0.12499740445E+03 0.  0.
        -13    1    3    3    0    0 -0.68462824927E+01 -0.25911335750E+02 -0.29441957520E+02  0.39813426623E+02  0.10570000000E+00 0.  1.
         13    1    3    3    0    0  0.68462824927E+01  0.25911335750E+02  0.10041014748E+03  0.10392534721E+03  0.10570000000E+00 0.  1.
<mgrwt>
<rscale>  0 0.12499740E+03</rscale>
<asrwt>0</asrwt>
<pdfrwt beam="1">  1       21 0.16515920E-01 0.12499740E+03</pdfrwt>
<pdfrwt beam="2">  1       21 0.55977372E-02 0.12499740E+03</pdfrwt>
<totfact> 0.71559628E+06</totfact>
</mgrwt>
</event>
<event>
 5    1  0.7934596E-005  0.1250048E+03  0.7818608E-02  0.1235062E+00
         21   -1    0    0  502  501  0.00000000000E+00  0.00000000000E+00  0.20023895233E+02  0.20023895233E+02  0.00000000000E+00 0. -1.
         21   -1    0    0  501  502 -0.00000000000E+00 -0.00000000000E+00 -0.19509445885E+03  0.19509445885E+03  0.00000000000E+00 0. -1.
         25    2    1    2    0    0  0.00000000000E+00  0.00000000000E+00 -0.17507056361E+03  0.21511835408E+03  0.12500481598E+03 0.  0.
        -13    1    3    3    0    0 -0.60176223986E+02 -0.99593295349E+01 -0.11101591653E+03  0.12666850861E+03  0.10570000000E+00 0.  1.
         13    1    3    3    0    0  0.60176223986E+02  0.99593295349E+01 -0.64054647087E+02  0.88449845471E+02  0.10570000000E+00 0.  1.
<mgrwt>
<rscale>  0 0.12500482E+03</rscale>
<asrwt>0</asrwt>
<pdfrwt beam="1">  1       21 0.30805992E-02 0.12500482E+03</pdfrwt>
<pdfrwt beam="2">  1       21 0.30014532E-01 0.12500482E+03</pdfrwt>
<totfact> 0.63317307E+06</totfact>
</mgrwt>
</event>
<event>
 5    1  0.7934596E-005  0.1250007E+03  0.7818608E-02  0.1235068E+00
         21   -1    0    0  502  501  0.00000000000E+00  0.00000000000E+00  0.11919836087E+03  0.11919836087E+03  0.00000000000E+00 0. -1.
         21   -1    0    0  501  502 -0.00000000000E+00 -0.00000000000E+00 -0.32771353964E+02  0.32771353964E+02  0.00000000000E+00 0. -1.
         25    2    1    2    0    0  0.00000000000E+00  0.00000000000E+00  0.86427006910E+02  0.15196971484E+03  0.12500066682E+03 0.  0.
        -13    1    3    3    0    0  0.38717145545E+02  0.14957691456E+02 -0.13596440536E+02  0.43676358142E+02  0.10570000000E+00 0.  1.
         13    1    3    3    0    0 -0.38717145545E+02 -0.14957691456E+02  0.10002344745E+03  0.10829335670E+03  0.10570000000E+00 0.  1.
<mgrwt>
<rscale>  0 0.12500067E+03</rscale>
<asrwt>0</asrwt>
<pdfrwt beam="1">  1       21 0.18338209E-01 0.12500067E+03</pdfrwt>
<pdfrwt beam="2">  1       21 0.50417468E-02 0.12500067E+03</pdfrwt>
<totfact> 0.70511441E+06</totfact>
</mgrwt>
</event>
<event>
 5    1  0.7934596E-005  0.1250004E+03  0.7818608E-02  0.1235069E+00
         21   -1    0    0  502  501  0.00000000000E+00  0.00000000000E+00  0.78378865767E+02  0.78378865767E+02  0.00000000000E+00 0.  1.
         21   -1    0    0  501  502 -0.00000000000E+00 -0.00000000000E+00 -0.49838407369E+02  0.49838407369E+02  0.00000000000E+00 0.  1.
         25    2    1    2    0    0  0.00000000000E+00  0.00000000000E+00  0.28540458398E+02  0.12821727314E+03  0.12500044546E+03 0.  0.
        -13    1    3    3    0    0 -0.26276869505E+02  0.50035713556E+02 -0.13104013218E+02  0.58015281065E+02  0.10570000000E+00 0. -1.
         13    1    3    3    0    0  0.26276869505E+02 -0.50035713556E+02  0.41644471616E+02  0.70201992071E+02  0.10570000000E+00 0. -1.
<mgrwt>
<rscale>  0 0.12500045E+03</rscale>
<asrwt>0</asrwt>
<pdfrwt beam="1">  1       21 0.12058287E-01 0.12500045E+03</pdfrwt>
<pdfrwt beam="2">  1       21 0.76674473E-02 0.12500045E+03</pdfrwt>
<totfact> 0.73603392E+06</totfact>
</mgrwt>
</event>
<event>
 5    1  0.7934596E-005  0.1250002E+03  0.7818608E-02  0.1235069E+00
         21   -1    0    0  502  501  0.00000000000E+00  0.00000000000E+00  0.12631887574E+03  0.12631887574E+03  0.00000000000E+00 0.  1.
         21   -1    0    0  501  502 -0.00000000000E+00 -0.00000000000E+00 -0.30923820046E+02  0.30923820046E+02  0.00000000000E+00 0.  1.
         25    2    1    2    0    0  0.00000000000E+00  0.00000000000E+00  0.95395055699E+02  0.15724269579E+03  0.12500019491E+03 0.  0.
        -13    1    3    3    0    0 -0.17443756307E+02 -0.58837269113E+02  0.62589223819E+02  0.87655752701E+02  0.10570000000E+00 0.  1.
         13    1    3    3    0    0  0.17443756307E+02  0.58837269113E+02  0.32805831880E+02  0.69586943090E+02  0.10570000000E+00 0.  1.
<mgrwt>
<rscale>  0 0.12500019E+03</rscale>
<asrwt>0</asrwt>
<pdfrwt beam="1">  1       21 0.19433673E-01 0.12500019E+03</pdfrwt>
<pdfrwt beam="2">  1       21 0.47575108E-02 0.12500019E+03</pdfrwt>
<totfact> 0.69857641E+06</totfact>
</mgrwt>
</event>
<event>
 5    1  0.7934596E-005  0.1250004E+03  0.7818608E-02  0.1235069E+00
         21   -1    0    0  502  501  0.00000000000E+00  0.00000000000E+00  0.26079856947E+02  0.26079856947E+02  0.00000000000E+00 0. -1.
         21   -1    0    0  501  502 -0.00000000000E+00 -0.00000000000E+00 -0.14978137488E+03  0.14978137488E+03  0.00000000000E+00 0. -1.
         25    2    1    2    0    0  0.00000000000E+00  0.00000000000E+00 -0.12370151794E+03  0.17586123183E+03  0.12500042928E+03 0.  0.
        -13    1    3    3    0    0 -0.56190739228E+02 -0.24946150926E+02 -0.46023706598E+02  0.76797801808E+02  0.10570000000E+00 0.  1.
         13    1    3    3    0    0  0.56190739228E+02  0.24946150926E+02 -0.77677811339E+02  0.99063430023E+02  0.10570000000E+00 0.  1.
<mgrwt>
<rscale>  0 0.12500043E+03</rscale>
<asrwt>0</asrwt>
<pdfrwt beam="1">  1       21 0.40122857E-02 0.12500043E+03</pdfrwt>
<pdfrwt beam="2">  1       21 0.23043288E-01 0.12500043E+03</pdfrwt>
<totfact> 0.67628787E+06</totfact>
</mgrwt>
</event>
<event>
 5    1  0.7934596E-005  0.1249974E+03  0.7818608E-02  0.1235073E+00
         21   -1    0    0  502  501  0.00000000000E+00  0.00000000000E+00  0.10193993767E+02  0.10193993767E+02  0.00000000000E+00 0. -1.
         21   -1    0    0  501  502 -0.00000000000E+00 -0.00000000000E+00 -0.38317512442E+03  0.38317512442E+03  0.00000000000E+00 0. -1.
         25    2    1    2    0    0  0.00000000000E+00  0.00000000000E+00 -0.37298113065E+03  0.39336911819E+03  0.12499735725E+03 0.  0.
        -13    1    3    3    0    0 -0.54440520473E+02  0.26213759570E+01 -0.90239512106E+02  0.10542211627E+03  0.10570000000E+00 0.  1.
         13    1    3    3    0    0  0.54440520473E+02 -0.26213759570E+01 -0.28274161855E+03  0.28794700192E+03  0.10570000000E+00 0.  1.
<mgrwt>
<rscale>  0 0.12499736E+03</rscale>
<asrwt>0</asrwt>
<pdfrwt beam="1">  1       21 0.15683070E-02 0.12499736E+03</pdfrwt>
<pdfrwt beam="2">  1       21 0.58950009E-01 0.12499736E+03</pdfrwt>
<totfact> 0.48487510E+06</totfact>
</mgrwt>
</event>
<event>
 5    1  0.7934596E-005  0.1249967E+03  0.7818608E-02  0.1235074E+00
         21   -1    0    0  502  501  0.00000000000E+00  0.00000000000E+00  0.17922605461E+03  0.17922605461E+03  0.00000000000E+00 0.  1.
         21   -1    0    0  501  502 -0.00000000000E+00 -0.00000000000E+00 -0.21793959148E+02  0.21793959148E+02  0.00000000000E+00 0.  1.
         25    2    1    2    0    0  0.00000000000E+00  0.00000000000E+00  0.15743209546E+03  0.20102001376E+03  0.12499672496E+03 0.  0.
        -13    1    3    3    0    0 -0.12741851166E+02  0.47536719168E+02  0.16764980699E+02  0.51992020453E+02  0.10570000000E+00 0.  1.
         13    1    3    3    0    0  0.12741851166E+02 -0.47536719168E+02  0.14066711476E+03  0.14902799331E+03  0.10570000000E+00 0.  1.
<mgrwt>
<rscale>  0 0.12499672E+03</rscale>
<asrwt>0</asrwt>
<pdfrwt beam="1">  1       21 0.27573238E-01 0.12499672E+03</pdfrwt>
<pdfrwt beam="2">  1       21 0.33529169E-02 0.12499672E+03</pdfrwt>
<totfact> 0.64822269E+06</totfact>
</mgrwt>
</event>
<event>
 5    1  0.7934596E-005  0.1250006E+03  0.7818608E-02  0.1235068E+00
         21   -1    0    0  502  501  0.00000000000E+00  0.00000000000E+00  0.90499612699E+02  0.90499612699E+02  0.00000000000E+00 0.  1.
         21   -1    0    0  501  502 -0.00000000000E+00 -0.00000000000E+00 -0.43163583655E+02  0.43163583655E+02  0.00000000000E+00 0.  1.
         25    2    1    2    0    0  0.00000000000E+00  0.00000000000E+00  0.47336029044E+02  0.13366319635E+03  0.12500060165E+03 0.  0.
        -13    1    3    3    0    0  0.26563454658E+02 -0.52692571193E+01  0.83900049591E+02  0.88162416526E+02  0.10570000000E+00 0.  1.
         13    1    3    3    0    0 -0.26563454658E+02  0.52692571193E+01 -0.36564020546E+02  0.45500779828E+02  0.10570000000E+00 0.  1.
<mgrwt>
<rscale>  0 0.12500060E+03</rscale>
<asrwt>0</asrwt>
<pdfrwt beam="1">  1       21 0.13923017E-01 0.12500060E+03</pdfrwt>
<pdfrwt beam="2">  1       21 0.66405513E-02 0.12500060E+03</pdfrwt>
<totfact> 0.72872848E+06</totfact>
</mgrwt>
</event>
<event>
 5    1  0.7934596E-005  0.1250013E+03  0.7818608E-02  0.1235067E+00
         21   -1    0    0  502  501  0.00000000000E+00  0.00000000000E+00  0.40964538281E+03  0.40964538281E+03  0.00000000000E+00 0. -1.
         21   -1    0    0  501  502 -0.00000000000E+00 -0.00000000000E+00 -0.95358802295E+01  0.95358802295E+01  0.00000000000E+00 0. -1.
         25    2    1    2    0    0  0.00000000000E+00  0.00000000000E+00  0.40010950258E+03  0.41918126304E+03  0.12500126891E+03 0.  0.
        -13    1    3    3    0    0  0.59092354759E+02 -0.45471144838E+01  0.26659581259E+03  0.27310423120E+03  0.10570000000E+00 0. -1.
         13    1    3    3    0    0 -0.59092354759E+02  0.45471144838E+01  0.13351368999E+03  0.14607703183E+03  0.10570000000E+00 0. -1.
<mgrwt>
<rscale>  0 0.12500127E+03</rscale>
<asrwt>0</asrwt>
<pdfrwt beam="1">  1       21 0.63022353E-01 0.12500127E+03</pdfrwt>
<pdfrwt beam="2">  1       21 0.14670588E-02 0.12500127E+03</pdfrwt>
<totfact> 0.46793092E+06</totfact>
</mgrwt>
</event>
<event>
 5    1  0.7934596E-005  0.1250021E+03  0.7818608E-02  0.1235066E+00
         21   -1    0    0  502  501  0.00000000000E+00  0.00000000000E+00  0.10453092939E+03  0.10453092939E+03  0.00000000000E+00 0. -1.
         21   -1    0    0  501  502 -0.00000000000E+00 -0.00000000000E+00 -0.37370558062E+02  0.37370558062E+02  0.00000000000E+00 0. -1.
         25    2    1    2    0    0  0.00000000000E+00  0.00000000000E+00  0.67160371328E+02  0.14190148745E+03  0.12500206664E+03 0.  0.
        -13    1    3    3    0    0 -0.83079080228E+01 -0.58843671763E+02  0.55556332914E+02  0.81351806013E+02  0.10570000000E+00 0.  1.
         13    1    3    3    0    0  0.83079080228E+01  0.58843671763E+02  0.11604038414E+02  0.60549681438E+02  0.10570000000E+00 0.  1.
<mgrwt>
<rscale>  0 0.12500207E+03</rscale>
<asrwt>0</asrwt>
<pdfrwt beam="1">  1       21 0.16081681E-01 0.12500207E+03</pdfrwt>
<pdfrwt beam="2">  1       21 0.57493167E-02 0.12500207E+03</pdfrwt>
<totfact> 0.71788256E+06</totfact>
</mgrwt>
</event>
<event>
 5    1  0.7934596E-005  0.1250013E+03  0.7818608E-02  0.1235067E+00
         21   -1    0    0  502  501  0.00000000000E+00  0.00000000000E+00  0.29113664575E+02  0.29113664575E+02  0.00000000000E+00 0. -1.
         21   -1    0    0  501  502 -0.00000000000E+00 -0.00000000000E+00 -0.13417517046E+03  0.13417517046E+03  0.00000000000E+00 0. -1.
         25    2    1    2    0    0  0.00000000000E+00  0.00000000000E+00 -0.10506150589E+03  0.16328883504E+03  0.12500129451E+03 0.  0.
        -13    1    3    3    0    0  0.42051553047E+02  0.22892751437E+02 -0.10500925639E+03  0.11540955889E+03  0.10570000000E+00 0.  1.
         13    1    3    3    0    0 -0.42051553047E+02 -0.22892751437E+02 -0.52249492722E-01  0.47879276148E+02  0.10570000000E+00 0.  1.
<mgrwt>
<rscale>  0 0.12500129E+03</rscale>
<asrwt>0</asrwt>
<pdfrwt beam="1">  1       21 0.44790253E-02 0.12500129E+03</pdfrwt>
<pdfrwt beam="2">  1       21 0.20642334E-01 0.12500129E+03</pdfrwt>
<totfact> 0.69117578E+06</totfact>
</mgrwt>
</event>
<event>
 5    1  0.7934596E-005  0.1249992E+03  0.7818608E-02  0.1235071E+00
         21   -1    0    0  502  501  0.00000000000E+00  0.00000000000E+00  0.75743931431E+02  0.75743931431E+02  0.00000000000E+00 0.  1.
         21   -1    0    0  501  502 -0.00000000000E+00 -0.00000000000E+00 -0.51571126420E+02  0.51571126420E+02  0.00000000000E+00 0.  1.
         25    2    1    2    0    0  0.00000000000E+00  0.00000000000E+00  0.24172805011E+02  0.12731505785E+03  0.12499919781E+03 0.  0.
        -13    1    3    3    0    0 -0.21038202129E+02  0.51531595453E+02  0.41039766447E+02  0.69154789287E+02  0.10570000000E+00 0.  1.
         13    1    3    3    0    0  0.21038202129E+02 -0.51531595453E+02 -0.16866961437E+02  0.58160268563E+02  0.10570000000E+00 0.  1.
<mgrwt>
<rscale>  0 0.12499920E+03</rscale>
<asrwt>0</asrwt>
<pdfrwt beam="1">  1       21 0.11652912E-01 0.12499920E+03</pdfrwt>
<pdfrwt beam="2">  1       21 0.79340195E-02 0.12499920E+03</pdfrwt>
<totfact> 0.73727817E+06</totfact>
</mgrwt>
</event>
<event>
 5    1  0.7934596E-005  0.1250000E+03  0.7818608E-02  0.1235069E+00
         21   -1    0    0  502  501  0.00000000000E+00  0.00000000000E+00  0.10065504730E+03  0.10065504730E+03  0.00000000000E+00 0. -1.
         21   -1    0    0  501  502 -0.00000000000E+00 -0.00000000000E+00 -0.38808272387E+02  0.38808272387E+02  0.00000000000E+00 0. -1.
         25    2    1    2    0    0  0.00000000000E+00  0.00000000000E+00  0.61846774913E+02  0.13946331969E+03  0.12499997588E+03 0.  0.
        -13    1    3    3    0    0 -0.45557480378E+02 -0.28771967887E+02  0.66256733512E+02  0.85400679521E+02  0.10570000000E+00 0.  1.
         13    1    3    3    0    0  0.45557480378E+02  0.28771967887E+02 -0.44099585989E+01  0.54062640167E+02  0.10570000000E+00 0.  1.
<mgrwt>
<rscale>  0 0.12499998E+03</rscale>
<asrwt>0</asrwt>
<pdfrwt beam="1">  1       21 0.15485392E-01 0.12499998E+03</pdfrwt>
<pdfrwt beam="2">  1       21 0.59705035E-02 0.12499998E+03</pdfrwt>
<totfact> 0.72109492E+06</totfact>
</mgrwt>
</event>
<event>
 5    1  0.7934596E-005  0.1250028E+03  0.7818608E-02  0.1235065E+00
         21   -1    0    0  502  501  0.00000000000E+00  0.00000000000E+00  0.50015882512E+02  0.50015882512E+02  0.00000000000E+00 0. -1.
         21   -1    0    0  501  502 -0.00000000000E+00 -0.00000000000E+00 -0.78103745173E+02  0.78103745173E+02  0.00000000000E+00 0. -1.
         25    2    1    2    0    0  0.00000000000E+00  0.00000000000E+00 -0.28087862661E+02  0.12811962768E+03  0.12500284384E+03 0.  0.
        -13    1    3    3    0    0  0.23820218831E+02 -0.54778925571E+02  0.48071339945E+01  0.59927065852E+02  0.10570000000E+00 0. -1.
         13    1    3    3    0    0 -0.23820218831E+02  0.54778925571E+02 -0.32894996655E+02  0.68192561833E+02  0.10570000000E+00 0. -1.
<mgrwt>
<rscale>  0 0.12500284E+03</rscale>
<asrwt>0</asrwt>
<pdfrwt beam="1">  1       21 0.76947512E-02 0.12500284E+03</pdfrwt>
<pdfrwt beam="2">  1       21 0.12015961E-01 0.12500284E+03</pdfrwt>
<totfact> 0.73612061E+06</totfact>
</mgrwt>
</event>
<event>
 5    1  0.7934596E-005  0.1249985E+03  0.7818608E-02  0.1235072E+00
         21   -1    0    0  502  501  0.00000000000E+00  0.00000000000E+00  0.22335970896E+03  0.22335970896E+03  0.00000000000E+00 0. -1.
         21   -1    0    0  501  502 -0.00000000000E+00 -0.00000000000E+00 -0.17488198965E+02  0.17488198965E+02  0.00000000000E+00 0. -1.
         25    2    1    2    0    0  0.00000000000E+00  0.00000000000E+00  0.20587151000E+03  0.24084790792E+03  0.12499854449E+03 0.  0.
        -13    1    3    3    0    0  0.43353139854E+02  0.21621775285E+02  0.17901779419E+03  0.18545721262E+03  0.10570000000E+00 0.  1.
         13    1    3    3    0    0 -0.43353139854E+02 -0.21621775285E+02  0.26853715800E+02  0.55390695305E+02  0.10570000000E+00 0.  1.
<mgrwt>
<rscale>  0 0.12499854E+03</rscale>
<asrwt>0</asrwt>
<pdfrwt beam="1">  1       21 0.34363030E-01 0.12499854E+03</pdfrwt>
<pdfrwt beam="2">  1       21 0.26904923E-02 0.12499854E+03</pdfrwt>
<totfact> 0.60752940E+06</totfact>
</mgrwt>
</event>
<event>
 5    1  0.7934596E-005  0.1250008E+03  0.7818608E-02  0.1235068E+00
         21   -1    0    0  502  501  0.00000000000E+00  0.00000000000E+00  0.94391479170E+02  0.94391479170E+02  0.00000000000E+00 0. -1.
         21   -1    0    0  501  502 -0.00000000000E+00 -0.00000000000E+00 -0.41384022435E+02  0.41384022435E+02  0.00000000000E+00 0. -1.
         25    2    1    2    0    0  0.00000000000E+00  0.00000000000E+00  0.53007456735E+02  0.13577550160E+03  0.12500078546E+03 0.  0.
        -13    1    3    3    0    0  0.25140084664E+02  0.96188223113E+01 -0.34765325818E+02  0.43967995762E+02  0.10570000000E+00 0. -1.
         13    1    3    3    0    0 -0.25140084664E+02 -0.96188223113E+01  0.87772782553E+02  0.91807505843E+02  0.10570000000E+00 0. -1.
<mgrwt>
<rscale>  0 0.12500079E+03</rscale>
<asrwt>0</asrwt>
<pdfrwt beam="1">  1       21 0.14521766E-01 0.12500079E+03</pdfrwt>
<pdfrwt beam="2">  1       21 0.63667727E-02 0.12500079E+03</pdfrwt>
<totfact> 0.72592499E+06</totfact>
</mgrwt>
</event>
<event>
 5    1  0.7934596E-005  0.1250007E+03  0.7818608E-02  0.1235068E+00
         21   -1    0    0  502  501  0.00000000000E+00  0.00000000000E+00  0.34723079244E+02  0.34723079244E+02  0.00000000000E+00 0.  1.
         21   -1    0    0  501  502 -0.00000000000E+00 -0.00000000000E+00 -0.11249844260E+03  0.11249844260E+03  0.00000000000E+00 0.  1.
         25    2    1    2    0    0  0.00000000000E+00  0.00000000000E+00 -0.77775363355E+02  0.14722152184E+03  0.12500067739E+03 0.  0.
        -13    1    3    3    0    0  0.38847709508E+02  0.30522252240E+02 -0.83975176702E+02  0.97429943500E+02  0.10570000000E+00 0. -1.
         13    1    3    3    0    0 -0.38847709508E+02 -0.30522252240E+02  0.61998133465E+01  0.49791578343E+02  0.10570000000E+00 0. -1.
<mgrwt>
<rscale>  0 0.12500068E+03</rscale>
<asrwt>0</asrwt>
<pdfrwt beam="1">  1       21 0.53420121E-02 0.12500068E+03</pdfrwt>
<pdfrwt beam="2">  1       21 0.17307453E-01 0.12500068E+03</pdfrwt>
<totfact> 0.71108772E+06</totfact>
</mgrwt>
</event>
<event>
 5    1  0.7934596E-005  0.1250005E+03  0.7818608E-02  0.1235069E+00
         21   -1    0    0  502  501  0.00000000000E+00  0.00000000000E+00  0.12143839741E+03  0.12143839741E+03  0.00000000000E+00 0.  1.
         21   -1    0    0  501  502 -0.00000000000E+00 -0.00000000000E+00 -0.32166762575E+02  0.32166762575E+02  0.00000000000E+00 0.  1.
         25    2    1    2    0    0  0.00000000000E+00  0.00000000000E+00  0.89271634830E+02  0.15360515998E+03  0.12500048155E+03 0.  0.
        -13    1    3    3    0    0  0.38334580596E+02 -0.30059576422E+02 -0.34798533554E+01  0.48838906172E+02  0.10570000000E+00 0.  1.
         13    1    3    3    0    0 -0.38334580596E+02  0.30059576422E+02  0.92751488186E+02  0.10476625381E+03  0.10570000000E+00 0.  1.
<mgrwt>
<rscale>  0 0.12500048E+03</rscale>
<asrwt>0</asrwt>
<pdfrwt beam="1">  1       21 0.18682830E-01 0.12500048E+03</pdfrwt>
<pdfrwt beam="2">  1       21 0.49487328E-02 0.12500048E+03</pdfrwt>
<totfact> 0.70308349E+06</totfact>
</mgrwt>
</event>
<event>
 5    1  0.7934596E-005  0.1249921E+03  0.7818608E-02  0.1235082E+00
         21   -1    0    0  502  501  0.00000000000E+00  0.00000000000E+00  0.12129473030E+03  0.12129473030E+03  0.00000000000E+00 0. -1.
         21   -1    0    0  501  502 -0.00000000000E+00 -0.00000000000E+00 -0.32200556700E+02  0.32200556700E+02  0.00000000000E+00 0. -1.
         25    2    1    2    0    0  0.00000000000E+00  0.00000000000E+00  0.89094173598E+02  0.15349528700E+03  0.12499212520E+03 0.  0.
        -13    1    3    3    0    0  0.38683992220E+02  0.40311995846E+02  0.78937424940E+02  0.96709030042E+02  0.10570000000E+00 0. -1.
         13    1    3    3    0    0 -0.38683992220E+02 -0.40311995846E+02  0.10156748659E+02  0.56786256955E+02  0.10570000000E+00 0. -1.
<mgrwt>
<rscale>  0 0.12499213E+03</rscale>
<asrwt>0</asrwt>
<pdfrwt beam="1">  1       21 0.18660727E-01 0.12499213E+03</pdfrwt>
<pdfrwt beam="2">  1       21 0.49539319E-02 0.12499213E+03</pdfrwt>
<totfact> 0.70336935E+06</totfact>
</mgrwt>
</event>
<event>
 5    1  0.7934596E-005  0.1250019E+03  0.7818608E-02  0.1235066E+00
         21   -1    0    0  502  501  0.00000000000E+00  0.00000000000E+00  0.10541026612E+03  0.10541026612E+03  0.00000000000E+00 0.  1.
         21   -1    0    0  501  502 -0.00000000000E+00 -0.00000000000E+00 -0.37058715826E+02  0.37058715826E+02  0.00000000000E+00 0.  1.
         25    2    1    2    0    0  0.00000000000E+00  0.00000000000E+00  0.68351550295E+02  0.14246898195E+03  0.12500190554E+03 0.  0.
        -13    1    3    3    0    0 -0.18858316533E+02  0.53754643635E+02  0.63481806446E+02  0.85294482453E+02  0.10570000000E+00 0. -1.
         13    1    3    3    0    0  0.18858316533E+02 -0.53754643635E+02  0.48697438493E+01  0.57174499494E+02  0.10570000000E+00 0. -1.
<mgrwt>
<rscale>  0 0.12500191E+03</rscale>
<asrwt>0</asrwt>
<pdfrwt beam="1">  1       21 0.16216964E-01 0.12500191E+03</pdfrwt>
<pdfrwt beam="2">  1       21 0.57013409E-02 0.12500191E+03</pdfrwt>
<totfact> 0.71715124E+06</totfact>
</mgrwt>
</event>
<event>
 5    1  0.7934596E-005  0.1249951E+03  0.7818608E-02  0.1235077E+00
         21   -1    0    0  502  501  0.00000000000E+00  0.00000000000E+00  0.12522626155E+03  0.12522626155E+03  0.00000000000E+00 0. -1.
         21   -1    0    0  501  502 -0.00000000000E+00 -0.00000000000E+00 -0.31191079884E+02  0.31191079884E+02  0.00000000000E+00 0. -1.
         25    2    1    2    0    0  0.00000000000E+00  0.00000000000E+00  0.94035181668E+02  0.15641734144E+03  0.12499507715E+03 0.  0.
        -13    1    3    3    0    0 -0.61144635901E+02  0.53629283647E+01  0.32290308646E+02  0.69354903972E+02  0.10570000000E+00 0. -1.
         13    1    3    3    0    0  0.61144635901E+02 -0.53629283647E+01  0.61744873022E+02  0.87062437463E+02  0.10570000000E+00 0. -1.
<mgrwt>
<rscale>  0 0.12499508E+03</rscale>
<asrwt>0</asrwt>
<pdfrwt beam="1">  1       21 0.19265578E-01 0.12499508E+03</pdfrwt>
<pdfrwt beam="2">  1       21 0.47986277E-02 0.12499508E+03</pdfrwt>
<totfact> 0.69968689E+06</totfact>
</mgrwt>
</event>
<event>
 5    1  0.7934596E-005  0.1249992E+03  0.7818608E-02  0.1235071E+00
         21   -1    0    0  502  501  0.00000000000E+00  0.00000000000E+00  0.65974861801E+02  0.65974861801E+02  0.00000000000E+00 0. -1.
         21   -1    0    0  501  502 -0.00000000000E+00 -0.00000000000E+00 -0.59207412365E+02  0.59207412365E+02  0.00000000000E+00 0. -1.
         25    2    1    2    0    0  0.00000000000E+00  0.00000000000E+00  0.67674494359E+01  0.12518227417E+03  0.12499921357E+03 0.  0.
        -13    1    3    3    0    0 -0.18911422795E+02  0.46160667487E+02 -0.34324313240E+02  0.60552611725E+02  0.10570000000E+00 0. -1.
         13    1    3    3    0    0  0.18911422795E+02 -0.46160667487E+02  0.41091762675E+02  0.64629662441E+02  0.10570000000E+00 0. -1.
<mgrwt>
<rscale>  0 0.12499921E+03</rscale>
<asrwt>0</asrwt>
<pdfrwt beam="1">  1       21 0.10149979E-01 0.12499921E+03</pdfrwt>
<pdfrwt beam="2">  1       21 0.91088327E-02 0.12499921E+03</pdfrwt>
<totfact> 0.74020454E+06</totfact>
</mgrwt>
</event>
<event>
 5    1  0.7934596E-005  0.1249996E+03  0.7818608E-02  0.1235070E+00
         21   -1    0    0  502  501  0.00000000000E+00  0.00000000000E+00  0.39583777233E+02  0.39583777233E+02  0.00000000000E+00 0.  1.
         21   -1    0    0  501  502 -0.00000000000E+00 -0.00000000000E+00 -0.98682454743E+02  0.98682454743E+02  0.00000000000E+00 0.  1.
         25    2    1    2    0    0  0.00000000000E+00  0.00000000000E+00 -0.59098677510E+02  0.13826623198E+03  0.12499958888E+03 0.  0.
        -13    1    3    3    0    0 -0.13755104362E+02 -0.44173436564E+02  0.16930882106E+02  0.49266229156E+02  0.10570000000E+00 0. -1.
         13    1    3    3    0    0  0.13755104362E+02  0.44173436564E+02 -0.76029559616E+02  0.89000002819E+02  0.10570000000E+00 0. -1.
<mgrwt>
<rscale>  0 0.12499959E+03</rscale>
<asrwt>0</asrwt>
<pdfrwt beam="1">  1       21 0.60898120E-02 0.12499959E+03</pdfrwt>
<pdfrwt beam="2">  1       21 0.15181916E-01 0.12499959E+03</pdfrwt>
<totfact> 0.72267221E+06</totfact>
</mgrwt>
</event>
<event>
 5    1  0.7934596E-005  0.1249999E+03  0.7818608E-02  0.1235069E+00
         21   -1    0    0  502  501  0.00000000000E+00  0.00000000000E+00  0.31572245198E+03  0.31572245198E+03  0.00000000000E+00 0. -1.
         21   -1    0    0  501  502 -0.00000000000E+00 -0.00000000000E+00 -0.12372406231E+02  0.12372406231E+02  0.00000000000E+00 0. -1.
         25    2    1    2    0    0  0.00000000000E+00  0.00000000000E+00  0.30335004575E+03  0.32809485821E+03  0.12499994291E+03 0.  0.
        -13    1    3    3    0    0 -0.45130614181E+02  0.31598230216E+02  0.22913946000E+03  0.23566952240E+03  0.10570000000E+00 0.  1.
         13    1    3    3    0    0  0.45130614181E+02 -0.31598230216E+02  0.74210585753E+02  0.92425335809E+02  0.10570000000E+00 0.  1.
<mgrwt>
<rscale>  0 0.12499994E+03</rscale>
<asrwt>0</asrwt>
<pdfrwt beam="1">  1       21 0.48572679E-01 0.12499994E+03</pdfrwt>
<pdfrwt beam="2">  1       21 0.19034474E-02 0.12499994E+03</pdfrwt>
<totfact> 0.53198116E+06</totfact>
</mgrwt>
</event>
<event>
 5    1  0.7934596E-005  0.1250004E+03  0.7818608E-02  0.1235069E+00
         21   -1    0    0  502  501  0.00000000000E+00  0.00000000000E+00  0.19342063846E+03  0.19342063846E+03  0.00000000000E+00 0.  1.
         21   -1    0    0  501  502 -0.00000000000E+00 -0.00000000000E+00 -0.20195761157E+02  0.20195761157E+02  0.00000000000E+00 0.  1.
         25    2    1    2    0    0  0.00000000000E+00  0.00000000000E+00  0.17322487730E+03  0.21361639962E+03  0.12500043227E+03 0.  0.
        -13    1    3    3    0    0 -0.19929892942E+02  0.59216904896E+02  0.89272761958E+02  0.10896549756E+03  0.10570000000E+00 0.  1.
         13    1    3    3    0    0  0.19929892942E+02 -0.59216904896E+02  0.83952115346E+02  0.10465090206E+03  0.10570000000E+00 0.  1.
<mgrwt>
<rscale>  0 0.12500043E+03</rscale>
<asrwt>0</asrwt>
<pdfrwt beam="1">  1       21 0.29757020E-01 0.12500043E+03</pdfrwt>
<pdfrwt beam="2">  1       21 0.31070403E-02 0.12500043E+03</pdfrwt>
<totfact> 0.63480353E+06</totfact>
</mgrwt>
</event>
<event>
 5    1  0.7934596E-005  0.1250028E+03  0.7818608E-02  0.1235065E+00
         21   -1    0    0  502  501  0.00000000000E+00  0.00000000000E+00  0.51783123695E+02  0.51783123695E+02  0.00000000000E+00 0.  1.
         21   -1    0    0  501  502 -0.00000000000E+00 -0.00000000000E+00 -0.75438184070E+02  0.75438184070E+02  0.00000000000E+00 0.  1.
         25    2    1    2    0    0  0.00000000000E+00  0.00000000000E+00 -0.23655060375E+02  0.12722130776E+03  0.12500279704E+03 0.  0.
        -13    1    3    3    0    0  0.62327350047E+02  0.41146128636E+01 -0.96012337890E+01  0.63196704548E+02  0.10570000000E+00 0.  1.
         13    1    3    3    0    0 -0.62327350047E+02 -0.41146128636E+01 -0.14053826586E+02  0.64024603217E+02  0.10570000000E+00 0.  1.
<mgrwt>
<rscale>  0 0.12500280E+03</rscale>
<asrwt>0</asrwt>
<pdfrwt beam="1">  1       21 0.79666345E-02 0.12500280E+03</pdfrwt>
<pdfrwt beam="2">  1       21 0.11605874E-01 0.12500280E+03</pdfrwt>
<totfact> 0.73733775E+06</totfact>
</mgrwt>
</event>
<event>
 5    1  0.7934596E-005  0.1250020E+03  0.7818608E-02  0.1235066E+00
         21   -1    0    0  502  501  0.00000000000E+00  0.00000000000E+00  0.29274631280E+03  0.29274631280E+03  0.00000000000E+00 0. -1.
         21   -1    0    0  501  502 -0.00000000000E+00 -0.00000000000E+00 -0.13343881882E+02  0.13343881882E+02  0.00000000000E+00 0. -1.
         25    2    1    2    0    0  0.00000000000E+00  0.00000000000E+00  0.27940243092E+03  0.30609019469E+03  0.12500195550E+03 0.  0.
        -13    1    3    3    0    0  0.43376623412E+02  0.12911878493E+02  0.24525375080E+03  0.24939458999E+03  0.10570000000E+00 0.  1.
         13    1    3    3    0    0 -0.43376623412E+02 -0.12911878493E+02  0.34148680124E+02  0.56695604694E+02  0.10570000000E+00 0.  1.
<mgrwt>
<rscale>  0 0.12500196E+03</rscale>
<asrwt>0</asrwt>
<pdfrwt beam="1">  1       21 0.45037889E-01 0.12500196E+03</pdfrwt>
<pdfrwt beam="2">  1       21 0.20529051E-02 0.12500196E+03</pdfrwt>
<totfact> 0.54951125E+06</totfact>
</mgrwt>
</event>
<event>
 5    1  0.7934596E-005  0.1249981E+03  0.7818608E-02  0.1235072E+00
         21   -1    0    0  502  501  0.00000000000E+00  0.00000000000E+00  0.10481750209E+03  0.10481750209E+03  0.00000000000E+00 0.  1.
         21   -1    0    0  501  502 -0.00000000000E+00 -0.00000000000E+00 -0.37266004145E+02  0.37266004145E+02  0.00000000000E+00 0.  1.
         25    2    1    2    0    0  0.00000000000E+00  0.00000000000E+00  0.67551497944E+02  0.14208350623E+03  0.12499807146E+03 0.  0.
        -13    1    3    3    0    0  0.60867586689E+02  0.13788979111E+02  0.29985411175E+02  0.69239693169E+02  0.10570000000E+00 0. -1.
         13    1    3    3    0    0 -0.60867586689E+02 -0.13788979111E+02  0.37566086770E+02  0.72843813066E+02  0.10570000000E+00 0. -1.
<mgrwt>
<rscale>  0 0.12499807E+03</rscale>
<asrwt>0</asrwt>
<pdfrwt beam="1">  1       21 0.16125769E-01 0.12499807E+03</pdfrwt>
<pdfrwt beam="2">  1       21 0.57332315E-02 0.12499807E+03</pdfrwt>
<totfact> 0.71771991E+06</totfact>
</mgrwt>
</event>
<event>
 5    1  0.7934596E-005  0.1249999E+03  0.7818608E-02  0.1235069E+00
         21   -1    0    0  502  501  0.00000000000E+00  0.00000000000E+00  0.10866022256E+03  0.10866022256E+03  0.00000000000E+00 0. -1.
         21   -1    0    0  501  502 -0.00000000000E+00 -0.00000000000E+00 -0.35949173032E+02  0.35949173032E+02  0.00000000000E+00 0. -1.
         25    2    1    2    0    0  0.00000000000E+00  0.00000000000E+00  0.72711049524E+02  0.14460939559E+03  0.12499992228E+03 0.  0.
        -13    1    3    3    0    0  0.26859341712E+02 -0.46562416148E+02  0.73244288507E+02  0.90852736921E+02  0.10570000000E+00 0. -1.
         13    1    3    3    0    0 -0.26859341712E+02  0.46562416148E+02 -0.53323898322E+00  0.53756658666E+02  0.10570000000E+00 0. -1.
<mgrwt>
<rscale>  0 0.12499992E+03</rscale>
<asrwt>0</asrwt>
<pdfrwt beam="1">  1       21 0.16716957E-01 0.12499992E+03</pdfrwt>
<pdfrwt beam="2">  1       21 0.55306421E-02 0.12499992E+03</pdfrwt>
<totfact> 0.71443265E+06</totfact>
</mgrwt>
</event>
<event>
 5    1  0.7934596E-005  0.1250004E+03  0.7818608E-02  0.1235069E+00
         21   -1    0    0  502  501  0.00000000000E+00  0.00000000000E+00  0.42285053783E+02  0.42285053783E+02  0.00000000000E+00 0. -1.
         21   -1    0    0  501  502 -0.00000000000E+00 -0.00000000000E+00 -0.92379626873E+02  0.92379626873E+02  0.00000000000E+00 0. -1.
         25    2    1    2    0    0  0.00000000000E+00  0.00000000000E+00 -0.50094573090E+02  0.13466468066E+03  0.12500043985E+03 0.  0.
        -13    1    3    3    0    0 -0.33634426265E+02 -0.29953556688E+02 -0.71730857750E+02  0.84698390271E+02  0.10570000000E+00 0. -1.
         13    1    3    3    0    0  0.33634426265E+02  0.29953556688E+02  0.21636284660E+02  0.49966290384E+02  0.10570000000E+00 0. -1.
<mgrwt>
<rscale>  0 0.12500044E+03</rscale>
<asrwt>0</asrwt>
<pdfrwt beam="1">  1       21 0.65053930E-02 0.12500044E+03</pdfrwt>
<pdfrwt beam="2">  1       21 0.14212250E-01 0.12500044E+03</pdfrwt>
<totfact> 0.72740085E+06</totfact>
</mgrwt>
</event>
<event>
 5    1  0.7934596E-005  0.1250036E+03  0.7818608E-02  0.1235064E+00
         21   -1    0    0  502  501  0.00000000000E+00  0.00000000000E+00  0.12860149824E+02  0.12860149824E+02  0.00000000000E+00 0. -1.
         21   -1    0    0  501  502 -0.00000000000E+00 -0.00000000000E+00 -0.30376600111E+03  0.30376600111E+03  0.00000000000E+00 0. -1.
         25    2    1    2    0    0  0.00000000000E+00  0.00000000000E+00 -0.29090585128E+03  0.31662615093E+03  0.12500362052E+03 0.  0.
        -13    1    3    3    0    0 -0.40181494440E+02 -0.27703846412E+02 -0.46557770834E+02  0.67451410652E+02  0.10570000000E+00 0.  1.
         13    1    3    3    0    0  0.40181494440E+02  0.27703846412E+02 -0.24434808045E+03  0.24917474028E+03  0.10570000000E+00 0.  1.
<mgrwt>
<rscale>  0 0.12500362E+03</rscale>
<asrwt>0</asrwt>
<pdfrwt beam="1">  1       21 0.19784844E-02 0.12500362E+03</pdfrwt>
<pdfrwt beam="2">  1       21 0.46733235E-01 0.12500362E+03</pdfrwt>
<totfact> 0.54096874E+06</totfact>
</mgrwt>
</event>
<event>
 5    1  0.7934596E-005  0.1250026E+03  0.7818608E-02  0.1235065E+00
         21   -1    0    0  502  501  0.00000000000E+00  0.00000000000E+00  0.69765886723E+01  0.69765886723E+01  0.00000000000E+00 0. -1.
         21   -1    0    0  501  502 -0.00000000000E+00 -0.00000000000E+00 -0.55993183759E+03  0.55993183759E+03  0.00000000000E+00 0. -1.
         25    2    1    2    0    0  0.00000000000E+00  0.00000000000E+00 -0.55295524892E+03  0.56690842626E+03  0.12500262582E+03 0.  0.
        -13    1    3    3    0    0  0.48470004518E+02 -0.38641841300E+02 -0.31272205114E+03  0.31880656468E+03  0.10570000000E+00 0. -1.
         13    1    3    3    0    0 -0.48470004518E+02  0.38641841300E+02 -0.24023319778E+03  0.24810186159E+03  0.10570000000E+00 0. -1.
<mgrwt>
<rscale>  0 0.12500263E+03</rscale>
<asrwt>0</asrwt>
<pdfrwt beam="1">  1       21 0.10733209E-02 0.12500263E+03</pdfrwt>
<pdfrwt beam="2">  1       21 0.86143393E-01 0.12500263E+03</pdfrwt>
<totfact> 0.38630704E+06</totfact>
</mgrwt>
</event>
<event>
 5    1  0.7934596E-005  0.1250047E+03  0.7818608E-02  0.1235062E+00
         21   -1    0    0  502  501  0.00000000000E+00  0.00000000000E+00  0.24638977831E+02  0.24638977831E+02  0.00000000000E+00 0. -1.
         21   -1    0    0  501  502 -0.00000000000E+00 -0.00000000000E+00 -0.15855129809E+03  0.15855129809E+03  0.00000000000E+00 0. -1.
         25    2    1    2    0    0  0.00000000000E+00  0.00000000000E+00 -0.13391232026E+03  0.18319027592E+03  0.12500467061E+03 0.  0.
        -13    1    3    3    0    0 -0.27558636573E+01  0.32224087567E+02  0.11422981625E+02  0.34299887547E+02  0.10570000000E+00 0.  1.
         13    1    3    3    0    0  0.27558636573E+01 -0.32224087567E+02 -0.14533530188E+03  0.14889038837E+03  0.10570000000E+00 0.  1.
<mgrwt>
<rscale>  0 0.12500467E+03</rscale>
<asrwt>0</asrwt>
<pdfrwt beam="1">  1       21 0.37906120E-02 0.12500467E+03</pdfrwt>
<pdfrwt beam="2">  1       21 0.24392507E-01 0.12500467E+03</pdfrwt>
<totfact> 0.66779521E+06</totfact>
</mgrwt>
</event>
<event>
 5    1  0.7934596E-005  0.1249915E+03  0.7818608E-02  0.1235083E+00
         21   -1    0    0  502  501  0.00000000000E+00  0.00000000000E+00  0.80723282819E+02  0.80723282819E+02  0.00000000000E+00 0.  1.
         21   -1    0    0  501  502 -0.00000000000E+00 -0.00000000000E+00 -0.48384014666E+02  0.48384014666E+02  0.00000000000E+00 0.  1.
         25    2    1    2    0    0  0.00000000000E+00  0.00000000000E+00  0.32339268153E+02  0.12910729749E+03  0.12499146371E+03 0.  0.
        -13    1    3    3    0    0 -0.61861047424E+02  0.88144455200E+01  0.17311330912E+02  0.64839625142E+02  0.10570000000E+00 0.  1.
         13    1    3    3    0    0  0.61861047424E+02 -0.88144455200E+01  0.15027937242E+02  0.64267672343E+02  0.10570000000E+00 0.  1.
<mgrwt>
<rscale>  0 0.12499146E+03</rscale>
<asrwt>0</asrwt>
<pdfrwt beam="1">  1       21 0.12418967E-01 0.12499146E+03</pdfrwt>
<pdfrwt beam="2">  1       21 0.74436945E-02 0.12499146E+03</pdfrwt>
<totfact> 0.73500492E+06</totfact>
</mgrwt>
</event>
<event>
 5    1  0.7934596E-005  0.1250003E+03  0.7818608E-02  0.1235069E+00
         21   -1    0    0  502  501  0.00000000000E+00  0.00000000000E+00  0.22260927711E+03  0.22260927711E+03  0.00000000000E+00 0.  1.
         21   -1    0    0  501  502 -0.00000000000E+00 -0.00000000000E+00 -0.17547643293E+02  0.17547643293E+02  0.00000000000E+00 0.  1.
         25    2    1    2    0    0  0.00000000000E+00  0.00000000000E+00  0.20506163382E+03  0.24015692040E+03  0.12500029101E+03 0.  0.
        -13    1    3    3    0    0 -0.42793933935E+02  0.40733148259E+02  0.14170487603E+03  0.15352782553E+03  0.10570000000E+00 0. -1.
         13    1    3    3    0    0  0.42793933935E+02 -0.40733148259E+02  0.63356757785E+02  0.86629094871E+02  0.10570000000E+00 0. -1.
<mgrwt>
<rscale>  0 0.12500029E+03</rscale>
<asrwt>0</asrwt>
<pdfrwt beam="1">  1       21 0.34247579E-01 0.12500029E+03</pdfrwt>
<pdfrwt beam="2">  1       21 0.26996376E-02 0.12500029E+03</pdfrwt>
<totfact> 0.60817036E+06</totfact>
</mgrwt>
</event>
<event>
 5    1  0.7934596E-005  0.1249912E+03  0.7818608E-02  0.1235083E+00
         21   -1    0    0  502  501  0.00000000000E+00  0.00000000000E+00  0.45328873197E+03  0.45328873197E+03  0.00000000000E+00 0. -1.
         21   -1    0    0  501  502 -0.00000000000E+00 -0.00000000000E+00 -0.86163563538E+01  0.86163563538E+01  0.00000000000E+00 0. -1.
         25    2    1    2    0    0  0.00000000000E+00  0.00000000000E+00  0.44467237562E+03  0.46190508833E+03  0.12499115562E+03 0.  0.
        -13    1    3    3    0    0 -0.32757051504E+01 -0.56418895611E+02  0.32093507030E+03  0.32587290858E+03  0.10570000000E+00 0.  1.
         13    1    3    3    0    0  0.32757051504E+01  0.56418895611E+02  0.12373730532E+03  0.13603217974E+03  0.10570000000E+00 0.  1.
<mgrwt>
<rscale>  0 0.12499116E+03</rscale>
<asrwt>0</asrwt>
<pdfrwt beam="1">  1       21 0.69736709E-01 0.12499116E+03</pdfrwt>
<pdfrwt beam="2">  1       21 0.13255936E-02 0.12499116E+03</pdfrwt>
<totfact> 0.44198110E+06</totfact>
</mgrwt>
</event>
<event>
 5    1  0.7934596E-005  0.1250009E+03  0.7818608E-02  0.1235068E+00
         21   -1    0    0  502  501  0.00000000000E+00  0.00000000000E+00  0.13635893904E+03  0.13635893904E+03  0.00000000000E+00 0.  1.
         21   -1    0    0  501  502 -0.00000000000E+00 -0.00000000000E+00 -0.28647225396E+02  0.28647225396E+02  0.00000000000E+00 0.  1.
         25    2    1    2    0    0  0.00000000000E+00  0.00000000000E+00  0.10771171365E+03  0.16500616444E+03  0.12500088418E+03 0.  0.
        -13    1    3    3    0    0  0.10652107713E+02  0.61488978678E+02  0.49296042164E+02  0.79526554327E+02  0.10570000000E+00 0. -1.
         13    1    3    3    0    0 -0.10652107713E+02 -0.61488978678E+02  0.58415671482E+02  0.85479610111E+02  0.10570000000E+00 0. -1.
<mgrwt>
<rscale>  0 0.12500088E+03</rscale>
<asrwt>0</asrwt>
<pdfrwt beam="1">  1       21 0.20978298E-01 0.12500088E+03</pdfrwt>
<pdfrwt beam="2">  1       21 0.44072655E-02 0.12500088E+03</pdfrwt>
<totfact> 0.68911364E+06</totfact>
</mgrwt>
</event>
<event>
 5    1  0.7934596E-005  0.1250002E+03  0.7818608E-02  0.1235069E+00
         21   -1    0    0  502  501  0.00000000000E+00  0.00000000000E+00  0.11263786958E+03  0.11263786958E+03  0.00000000000E+00 0.  1.
         21   -1    0    0  501  502 -0.00000000000E+00 -0.00000000000E+00 -0.34679844440E+02  0.34679844440E+02  0.00000000000E+00 0.  1.
         25    2    1    2    0    0  0.00000000000E+00  0.00000000000E+00  0.77958025141E+02  0.14731771402E+03  0.12500022072E+03 0.  0.
        -13    1    3    3    0    0 -0.73609421349E+01 -0.22658426546E+02 -0.29118398990E+02  0.37622866649E+02  0.10570000000E+00 0.  1.
         13    1    3    3    0    0  0.73609421349E+01  0.22658426546E+02  0.10707642413E+03  0.10969484737E+03  0.10570000000E+00 0.  1.
<mgrwt>
<rscale>  0 0.12500022E+03</rscale>
<asrwt>0</asrwt>
<pdfrwt beam="1">  1       21 0.17328903E-01 0.12500022E+03</pdfrwt>
<pdfrwt beam="2">  1       21 0.53353607E-02 0.12500022E+03</pdfrwt>
<totfact> 0.71097394E+06</totfact>
</mgrwt>
</event>
<event>
 5    1  0.7934596E-005  0.1249983E+03  0.7818608E-02  0.1235072E+00
         21   -1    0    0  502  501  0.00000000000E+00  0.00000000000E+00  0.34284175641E+03  0.34284175641E+03  0.00000000000E+00 0.  1.
         21   -1    0    0  501  502 -0.00000000000E+00 -0.00000000000E+00 -0.11393424707E+02  0.11393424707E+02  0.00000000000E+00 0.  1.
         25    2    1    2    0    0  0.00000000000E+00  0.00000000000E+00  0.33144833171E+03  0.35423518112E+03  0.12499826780E+03 0.  0.
        -13    1    3    3    0    0  0.60013367682E+02  0.43250169399E+01  0.11781326035E+03  0.13228864486E+03  0.10570000000E+00 0. -1.
         13    1    3    3    0    0 -0.60013367682E+02 -0.43250169399E+01  0.21363507136E+03  0.22194653626E+03  0.10570000000E+00 0. -1.
<mgrwt>
<rscale>  0 0.12499827E+03</rscale>
<asrwt>0</asrwt>
<pdfrwt beam="1">  1       21 0.52744878E-01 0.12499827E+03</pdfrwt>
<pdfrwt beam="2">  1       21 0.17528348E-02 0.12499827E+03</pdfrwt>
<totfact> 0.51229391E+06</totfact>
</mgrwt>
</event>
<event>
 5    1  0.7934596E-005  0.1249972E+03  0.7818608E-02  0.1235074E+00
         21   -1    0    0  502  501  0.00000000000E+00  0.00000000000E+00  0.25933089489E+02  0.25933089489E+02  0.00000000000E+00 0.  1.
         21   -1    0    0  501  502 -0.00000000000E+00 -0.00000000000E+00 -0.15062115689E+03  0.15062115689E+03  0.00000000000E+00 0.  1.
         25    2    1    2    0    0  0.00000000000E+00  0.00000000000E+00 -0.12468806740E+03  0.17655424638E+03  0.12499715102E+03 0.  0.
        -13    1    3    3    0    0  0.28224673397E+02  0.51754788920E+02 -0.33024883076E+02  0.67571032545E+02  0.10570000000E+00 0. -1.
         13    1    3    3    0    0 -0.28224673397E+02 -0.51754788920E+02 -0.91663184326E+02  0.10898321384E+03  0.10570000000E+00 0. -1.
<mgrwt>
<rscale>  0 0.12499715E+03</rscale>
<asrwt>0</asrwt>
<pdfrwt beam="1">  1       21 0.39897061E-02 0.12499715E+03</pdfrwt>
<pdfrwt beam="2">  1       21 0.23172485E-01 0.12499715E+03</pdfrwt>
<totfact> 0.67553921E+06</totfact>
</mgrwt>
</event>
<event>
 5    1  0.7934596E-005  0.1250005E+03  0.7818608E-02  0.1235068E+00
         21   -1    0    0  502  501  0.00000000000E+00  0.00000000000E+00  0.85336152910E+02  0.85336152910E+02  0.00000000000E+00 0.  1.
         21   -1    0    0  501  502 -0.00000000000E+00 -0.00000000000E+00 -0.45775246674E+02  0.45775246674E+02  0.00000000000E+00 0.  1.
         25    2    1    2    0    0  0.00000000000E+00  0.00000000000E+00  0.39560906236E+02  0.13111139958E+03  0.12500053519E+03 0.  0.
        -13    1    3    3    0    0  0.33497272462E+02 -0.50881877681E+02  0.51245539953E+01  0.61133501167E+02  0.10570000000E+00 0. -1.
         13    1    3    3    0    0 -0.33497272462E+02  0.50881877681E+02  0.34436352241E+02  0.69977898417E+02  0.10570000000E+00 0. -1.
<mgrwt>
<rscale>  0 0.12500054E+03</rscale>
<asrwt>0</asrwt>
<pdfrwt beam="1">  1       21 0.13128639E-01 0.12500054E+03</pdfrwt>
<pdfrwt beam="2">  1       21 0.70423457E-02 0.12500054E+03</pdfrwt>
<totfact> 0.73214663E+06</totfact>
</mgrwt>
</event>
<event>
 5    1  0.7934596E-005  0.1250027E+03  0.7818608E-02  0.1235065E+00
         21   -1    0    0  502  501  0.00000000000E+00  0.00000000000E+00  0.25370510949E+03  0.25370510949E+03  0.00000000000E+00 0.  1.
         21   -1    0    0  501  502 -0.00000000000E+00 -0.00000000000E+00 -0.15397489757E+02  0.15397489757E+02  0.00000000000E+00 0.  1.
         25    2    1    2    0    0  0.00000000000E+00  0.00000000000E+00  0.23830761973E+03  0.26910259925E+03  0.12500274916E+03 0.  0.
        -13    1    3    3    0    0 -0.43861907012E+02  0.10937217450E+02  0.26236730143E+02  0.52267263113E+02  0.10570000000E+00 0.  1.
         13    1    3    3    0    0  0.43861907012E+02 -0.10937217450E+02  0.21207088959E+03  0.21683533613E+03  0.10570000000E+00 0.  1.
<mgrwt>
<rscale>  0 0.12500275E+03</rscale>
<asrwt>0</asrwt>
<pdfrwt beam="1">  1       21 0.39031552E-01 0.12500275E+03</pdfrwt>
<pdfrwt beam="2">  1       21 0.23688448E-02 0.12500275E+03</pdfrwt>
<totfact> 0.58120861E+06</totfact>
</mgrwt>
</event>
<event>
 5    1  0.7934596E-005  0.1249995E+03  0.7818608E-02  0.1235070E+00
         21   -1    0    0  502  501  0.00000000000E+00  0.00000000000E+00  0.20259094950E+03  0.20259094950E+03  0.00000000000E+00 0. -1.
         21   -1    0    0  501  502 -0.00000000000E+00 -0.00000000000E+00 -0.19281322661E+02  0.19281322661E+02  0.00000000000E+00 0. -1.
         25    2    1    2    0    0  0.00000000000E+00  0.00000000000E+00  0.18330962684E+03  0.22187227216E+03  0.12499954345E+03 0.  0.
        -13    1    3    3    0    0  0.56496952667E+01 -0.59289630456E+02  0.58022204883E+02  0.83149063543E+02  0.10570000000E+00 0.  1.
         13    1    3    3    0    0 -0.56496952667E+01  0.59289630456E+02  0.12528742196E+03  0.13872320862E+03  0.10570000000E+00 0.  1.
<mgrwt>
<rscale>  0 0.12499954E+03</rscale>
<asrwt>0</asrwt>
<pdfrwt beam="1">  1       21 0.31167837E-01 0.12499954E+03</pdfrwt>
<pdfrwt beam="2">  1       21 0.29663575E-02 0.12499954E+03</pdfrwt>
<totfact> 0.62632398E+06</totfact>
</mgrwt>
</event>
<event>
 5    1  0.7934596E-005  0.1250005E+03  0.7818608E-02  0.1235069E+00
         21   -1    0    0  502  501  0.00000000000E+00  0.00000000000E+00  0.44879233430E+02  0.44879233430E+02  0.00000000000E+00 0. -1.
         21   -1    0    0  501  502 -0.00000000000E+00 -0.00000000000E+00 -0.87039805361E+02  0.87039805361E+02  0.00000000000E+00 0. -1.
         25    2    1    2    0    0  0.00000000000E+00  0.00000000000E+00 -0.42160571932E+02  0.13191903879E+03  0.12500047588E+03 0.  0.
        -13    1    3    3    0    0  0.27372822460E+02 -0.33552024584E+02 -0.68644293857E+02  0.81160704868E+02  0.10570000000E+00 0. -1.
         13    1    3    3    0    0 -0.27372822460E+02  0.33552024584E+02  0.26483721925E+02  0.50758333923E+02  0.10570000000E+00 0. -1.
<mgrwt>
<rscale>  0 0.12500048E+03</rscale>
<asrwt>0</asrwt>
<pdfrwt beam="1">  1       21 0.69044976E-02 0.12500048E+03</pdfrwt>
<pdfrwt beam="2">  1       21 0.13390739E-01 0.12500048E+03</pdfrwt>
<totfact> 0.73106203E+06</totfact>
</mgrwt>
</event>
<event>
 5    1  0.7934596E-005  0.1249976E+03  0.7818608E-02  0.1235073E+00
         21   -1    0    0  502  501  0.00000000000E+00  0.00000000000E+00  0.23027641670E+02  0.23027641670E+02  0.00000000000E+00 0. -1.
         21   -1    0    0  501  502 -0.00000000000E+00 -0.00000000000E+00 -0.16962646818E+03  0.16962646818E+03  0.00000000000E+00 0. -1.
         25    2    1    2    0    0  0.00000000000E+00  0.00000000000E+00 -0.14659882651E+03  0.19265410985E+03  0.12499756041E+03 0.  0.
        -13    1    3    3    0    0  0.48274030901E+02  0.10984466308E+02 -0.14507841308E+02  0.51590010577E+02  0.10570000000E+00 0. -1.
         13    1    3    3    0    0 -0.48274030901E+02 -0.10984466308E+02 -0.13209098520E+03  0.14106409927E+03  0.10570000000E+00 0. -1.
<mgrwt>
<rscale>  0 0.12499756E+03</rscale>
<asrwt>0</asrwt>
<pdfrwt beam="1">  1       21 0.35427140E-02 0.12499756E+03</pdfrwt>
<pdfrwt beam="2">  1       21 0.26096380E-01 0.12499756E+03</pdfrwt>
<totfact> 0.65732755E+06</totfact>
</mgrwt>
</event>
<event>
 5    1  0.7934596E-005  0.1249997E+03  0.7818608E-02  0.1235070E+00
         21   -1    0    0  502  501  0.00000000000E+00  0.00000000000E+00  0.85324367525E+02  0.85324367525E+02  0.00000000000E+00 0. -1.
         21   -1    0    0  501  502 -0.00000000000E+00 -0.00000000000E+00 -0.45780968005E+02  0.45780968005E+02  0.00000000000E+00 0. -1.
         25    2    1    2    0    0  0.00000000000E+00  0.00000000000E+00  0.39543399519E+02  0.13110533553E+03  0.12499971424E+03 0.  0.
        -13    1    3    3    0    0 -0.59476940837E+01 -0.18427003929E+02 -0.42555573332E+02  0.46753796988E+02  0.10570000000E+00 0.  1.
         13    1    3    3    0    0  0.59476940837E+01  0.18427003929E+02  0.82098972851E+02  0.84351538542E+02  0.10570000000E+00 0.  1.
<mgrwt>
<rscale>  0 0.12499971E+03</rscale>
<asrwt>0</asrwt>
<pdfrwt beam="1">  1       21 0.13126826E-01 0.12499971E+03</pdfrwt>
<pdfrwt beam="2">  1       21 0.70432258E-02 0.12499971E+03</pdfrwt>
<totfact> 0.73217014E+06</totfact>
</mgrwt>
</event>
<event>
 5    1  0.7934596E-005  0.1250006E+03  0.7818608E-02  0.1235068E+00
         21   -1    0    0  502  501  0.00000000000E+00  0.00000000000E+00  0.11860872606E+03  0.11860872606E+03  0.00000000000E+00 0.  1.
         21   -1    0    0  501  502 -0.00000000000E+00 -0.00000000000E+00 -0.32934236002E+02  0.32934236002E+02  0.00000000000E+00 0.  1.
         25    2    1    2    0    0  0.00000000000E+00  0.00000000000E+00  0.85674490061E+02  0.15154296207E+03  0.12500060442E+03 0.  0.
        -13    1    3    3    0    0 -0.36809071769E+01  0.62040324287E+02  0.50853877733E+02  0.80303667216E+02  0.10570000000E+00 0. -1.
         13    1    3    3    0    0  0.36809071769E+01 -0.62040324287E+02  0.34820612328E+02  0.71239294850E+02  0.10570000000E+00 0. -1.
<mgrwt>
<rscale>  0 0.12500060E+03</rscale>
<asrwt>0</asrwt>
<pdfrwt beam="1">  1       21 0.18247496E-01 0.12500060E+03</pdfrwt>
<pdfrwt beam="2">  1       21 0.50668056E-02 0.12500060E+03</pdfrwt>
<totfact> 0.70564826E+06</totfact>
</mgrwt>
</event>
<event>
 5    1  0.7934596E-005  0.1250003E+03  0.7818608E-02  0.1235069E+00
         21   -1    0    0  502  501  0.00000000000E+00  0.00000000000E+00  0.92766623814E+01  0.92766623814E+01  0.00000000000E+00 0.  1.
         21   -1    0    0  501  502 -0.00000000000E+00 -0.00000000000E+00 -0.42108591393E+03  0.42108591393E+03  0.00000000000E+00 0.  1.
         25    2    1    2    0    0  0.00000000000E+00  0.00000000000E+00 -0.41180925155E+03  0.43036257631E+03  0.12500034971E+03 0.  0.
        -13    1    3    3    0    0 -0.53482513399E+02  0.29369414768E+02 -0.15928949389E+03  0.17057577730E+03  0.10570000000E+00 0.  1.
         13    1    3    3    0    0  0.53482513399E+02 -0.29369414768E+02 -0.25251975765E+03  0.25978679901E+03  0.10570000000E+00 0.  1.
<mgrwt>
<rscale>  0 0.12500035E+03</rscale>
<asrwt>0</asrwt>
<pdfrwt beam="1">  1       21 0.14271790E-02 0.12500035E+03</pdfrwt>
<pdfrwt beam="2">  1       21 0.64782439E-01 0.12500035E+03</pdfrwt>
<totfact> 0.46090150E+06</totfact>
</mgrwt>
</event>
<event>
 5    1  0.7934596E-005  0.1249983E+03  0.7818608E-02  0.1235072E+00
         21   -1    0    0  502  501  0.00000000000E+00  0.00000000000E+00  0.21225958946E+02  0.21225958946E+02  0.00000000000E+00 0. -1.
         21   -1    0    0  501  502 -0.00000000000E+00 -0.00000000000E+00 -0.18402679899E+03  0.18402679899E+03  0.00000000000E+00 0. -1.
         25    2    1    2    0    0  0.00000000000E+00  0.00000000000E+00 -0.16280084004E+03  0.20525275794E+03  0.12499832447E+03 0.  0.
        -13    1    3    3    0    0  0.56336510910E+02  0.24022011559E+02 -0.10186180512E+03  0.11885578663E+03  0.10570000000E+00 0.  1.
         13    1    3    3    0    0 -0.56336510910E+02 -0.24022011559E+02 -0.60939034928E+02  0.86396971309E+02  0.10570000000E+00 0.  1.
<mgrwt>
<rscale>  0 0.12499832E+03</rscale>
<asrwt>0</asrwt>
<pdfrwt beam="1">  1       21 0.32655321E-02 0.12499832E+03</pdfrwt>
<pdfrwt beam="2">  1       21 0.28311816E-01 0.12499832E+03</pdfrwt>
<totfact> 0.64365215E+06</totfact>
</mgrwt>
</event>
<event>
 5    1  0.7934596E-005  0.1250097E+03  0.7818608E-02  0.1235054E+00
         21   -1    0    0  502  501  0.00000000000E+00  0.00000000000E+00  0.20258619203E+03  0.20258619203E+03  0.00000000000E+00 0.  1.
         21   -1    0    0  501  502 -0.00000000000E+00 -0.00000000000E+00 -0.19284896871E+02  0.19284896871E+02  0.00000000000E+00 0.  1.
         25    2    1    2    0    0  0.00000000000E+00  0.00000000000E+00  0.18330129516E+03  0.22187108890E+03  0.12500966076E+03 0.  0.
        -13    1    3    3    0    0 -0.19060120255E+02  0.58576556007E+02  0.72838977852E+02  0.95394071958E+02  0.10570000000E+00 0. -1.
         13    1    3    3    0    0  0.19060120255E+02 -0.58576556007E+02  0.11046231731E+03  0.12647701695E+03  0.10570000000E+00 0. -1.
<mgrwt>
<rscale>  0 0.12500966E+03</rscale>
<asrwt>0</asrwt>
<pdfrwt beam="1">  1       21 0.31167105E-01 0.12500966E+03</pdfrwt>
<pdfrwt beam="2">  1       21 0.29669073E-02 0.12500966E+03</pdfrwt>
<totfact> 0.62616509E+06</totfact>
</mgrwt>
</event>
<event>
 5    1  0.7934596E-005  0.1249976E+03  0.7818608E-02  0.1235073E+00
         21   -1    0    0  502  501  0.00000000000E+00  0.00000000000E+00  0.57048208791E+02  0.57048208791E+02  0.00000000000E+00 0.  1.
         21   -1    0    0  501  502 -0.00000000000E+00 -0.00000000000E+00 -0.68470205548E+02  0.68470205548E+02  0.00000000000E+00 0.  1.
         25    2    1    2    0    0  0.00000000000E+00  0.00000000000E+00 -0.11421996757E+02  0.12551841434E+03  0.12499764129E+03 0.  0.
        -13    1    3    3    0    0 -0.45688596605E+02 -0.13552166605E+02  0.34892378852E+02  0.59064357729E+02  0.10570000000E+00 0. -1.
         13    1    3    3    0    0  0.45688596605E+02  0.13552166605E+02 -0.46314375609E+02  0.66454056610E+02  0.10570000000E+00 0. -1.
<mgrwt>
<rscale>  0 0.12499764E+03</rscale>
<asrwt>0</asrwt>
<pdfrwt beam="1">  1       21 0.87766475E-02 0.12499764E+03</pdfrwt>
<pdfrwt beam="2">  1       21 0.10533878E-01 0.12499764E+03</pdfrwt>
<totfact> 0.73977271E+06</totfact>
</mgrwt>
</event>
<event>
 5    1  0.7934596E-005  0.1249999E+03  0.7818608E-02  0.1235069E+00
         21   -1    0    0  502  501  0.00000000000E+00  0.00000000000E+00  0.65667614141E+02  0.65667614141E+02  0.00000000000E+00 0. -1.
         21   -1    0    0  501  502 -0.00000000000E+00 -0.00000000000E+00 -0.59485079479E+02  0.59485079479E+02  0.00000000000E+00 0. -1.
         25    2    1    2    0    0  0.00000000000E+00  0.00000000000E+00  0.61825346618E+01  0.12515269362E+03  0.12499989194E+03 0.  0.
        -13    1    3    3    0    0 -0.10616567253E+02  0.37756680270E+02  0.51812376193E+02  0.64983166317E+02  0.10570000000E+00 0.  1.
         13    1    3    3    0    0  0.10616567253E+02 -0.37756680270E+02 -0.45629841532E+02  0.60169527304E+02  0.10570000000E+00 0.  1.
<mgrwt>
<rscale>  0 0.12499989E+03</rscale>
<asrwt>0</asrwt>
<pdfrwt beam="1">  1       21 0.10102710E-01 0.12499989E+03</pdfrwt>
<pdfrwt beam="2">  1       21 0.91515507E-02 0.12499989E+03</pdfrwt>
<totfact> 0.74023164E+06</totfact>
</mgrwt>
</event>
<event>
 5    1  0.7934596E-005  0.1250020E+03  0.7818608E-02  0.1235066E+00
         21   -1    0    0  502  501  0.00000000000E+00  0.00000000000E+00  0.64723073368E+01  0.64723073368E+01  0.00000000000E+00 0. -1.
         21   -1    0    0  501  502 -0.00000000000E+00 -0.00000000000E+00 -0.60355193395E+03  0.60355193395E+03  0.00000000000E+00 0. -1.
         25    2    1    2    0    0  0.00000000000E+00  0.00000000000E+00 -0.59707962662E+03  0.61002424129E+03  0.12500197775E+03 0.  0.
        -13    1    3    3    0    0  0.43545361213E+02 -0.44693170290E+02 -0.31592048724E+03  0.32202397952E+03  0.10570000000E+00 0.  1.
         13    1    3    3    0    0 -0.43545361213E+02  0.44693170290E+02 -0.28115913938E+03  0.28800026177E+03  0.10570000000E+00 0.  1.
<mgrwt>
<rscale>  0 0.12500198E+03</rscale>
<asrwt>0</asrwt>
<pdfrwt beam="1">  1       21 0.99573956E-03 0.12500198E+03</pdfrwt>
<pdfrwt beam="2">  1       21 0.92854146E-01 0.12500198E+03</pdfrwt>
<totfact> 0.36641386E+06</totfact>
</mgrwt>
</event>
<event>
 5    1  0.7934596E-005  0.1249996E+03  0.7818608E-02  0.1235070E+00
         21   -1    0    0  502  501  0.00000000000E+00  0.00000000000E+00  0.43757738598E+02  0.43757738598E+02  0.00000000000E+00 0.  1.
         21   -1    0    0  501  502 -0.00000000000E+00 -0.00000000000E+00 -0.89269300977E+02  0.89269300977E+02  0.00000000000E+00 0.  1.
         25    2    1    2    0    0  0.00000000000E+00  0.00000000000E+00 -0.45511562379E+02  0.13302703957E+03  0.12499956379E+03 0.  0.
        -13    1    3    3    0    0  0.57510812427E+02  0.11180101397E+02 -0.45918728817E+02  0.74438088651E+02  0.10570000000E+00 0. -1.
         13    1    3    3    0    0 -0.57510812427E+02 -0.11180101397E+02  0.40716643881E+00  0.58588950923E+02  0.10570000000E+00 0. -1.
<mgrwt>
<rscale>  0 0.12499956E+03</rscale>
<asrwt>0</asrwt>
<pdfrwt beam="1">  1       21 0.67319598E-02 0.12499956E+03</pdfrwt>
<pdfrwt beam="2">  1       21 0.13733739E-01 0.12499956E+03</pdfrwt>
<totfact> 0.72959600E+06</totfact>
</mgrwt>
</event>
<event>
 5    1  0.7934596E-005  0.1249977E+03  0.7818608E-02  0.1235073E+00
         21   -1    0    0  502  501  0.00000000000E+00  0.00000000000E+00  0.43034107272E+02  0.43034107272E+02  0.00000000000E+00 0.  1.
         21   -1    0    0  501  502 -0.00000000000E+00 -0.00000000000E+00 -0.90767650441E+02  0.90767650441E+02  0.00000000000E+00 0.  1.
         25    2    1    2    0    0  0.00000000000E+00  0.00000000000E+00 -0.47733543169E+02  0.13380175771E+03  0.12499767687E+03 0.  0.
        -13    1    3    3    0    0 -0.39994290735E+02 -0.42121070874E+02 -0.48564949951E+02  0.75711910815E+02  0.10570000000E+00 0.  1.
         13    1    3    3    0    0  0.39994290735E+02  0.42121070874E+02  0.83140678237E+00  0.58089846899E+02  0.10570000000E+00 0.  1.
<mgrwt>
<rscale>  0 0.12499768E+03</rscale>
<asrwt>0</asrwt>
<pdfrwt beam="1">  1       21 0.66206320E-02 0.12499768E+03</pdfrwt>
<pdfrwt beam="2">  1       21 0.13964254E-01 0.12499768E+03</pdfrwt>
<totfact> 0.72859840E+06</totfact>
</mgrwt>
</event>
<event>
 5    1  0.7934596E-005  0.1250020E+03  0.7818608E-02  0.1235066E+00
         21   -1    0    0  502  501  0.00000000000E+00  0.00000000000E+00  0.93835650410E+02  0.93835650410E+02  0.00000000000E+00 0. -1.
         21   -1    0    0  501  502 -0.00000000000E+00 -0.00000000000E+00 -0.41629965026E+02  0.41629965026E+02  0.00000000000E+00 0. -1.
         25    2    1    2    0    0  0.00000000000E+00  0.00000000000E+00  0.52205685384E+02  0.13546561544E+03  0.12500199750E+03 0.  0.
        -13    1    3    3    0    0  0.16844216555E+02 -0.49135204617E+02 -0.11568550061E+02  0.53215021255E+02  0.10570000000E+00 0. -1.
         13    1    3    3    0    0 -0.16844216555E+02  0.49135204617E+02  0.63774235445E+02  0.82250594182E+02  0.10570000000E+00 0. -1.
<mgrwt>
<rscale>  0 0.12500200E+03</rscale>
<asrwt>0</asrwt>
<pdfrwt beam="1">  1       21 0.14436254E-01 0.12500200E+03</pdfrwt>
<pdfrwt beam="2">  1       21 0.64046100E-02 0.12500200E+03</pdfrwt>
<totfact> 0.72631180E+06</totfact>
</mgrwt>
</event>
<event>
 5    1  0.7934596E-005  0.1249983E+03  0.7818608E-02  0.1235072E+00
         21   -1    0    0  502  501  0.00000000000E+00  0.00000000000E+00  0.25315765709E+02  0.25315765709E+02  0.00000000000E+00 0. -1.
         21   -1    0    0  501  502 -0.00000000000E+00 -0.00000000000E+00 -0.15429690240E+03  0.15429690240E+03  0.00000000000E+00 0. -1.
         25    2    1    2    0    0  0.00000000000E+00  0.00000000000E+00 -0.12898113669E+03  0.17961266811E+03  0.12499830768E+03 0.  0.
        -13    1    3    3    0    0  0.50899285898E+02 -0.35241024570E+02 -0.52174393299E+02  0.80962001002E+02  0.10570000000E+00 0. -1.
         13    1    3    3    0    0 -0.50899285898E+02  0.35241024570E+02 -0.76806743396E+02  0.98650667110E+02  0.10570000000E+00 0. -1.
<mgrwt>
<rscale>  0 0.12499831E+03</rscale>
<asrwt>0</asrwt>
<pdfrwt beam="1">  1       21 0.38947332E-02 0.12499831E+03</pdfrwt>
<pdfrwt beam="2">  1       21 0.23737985E-01 0.12499831E+03</pdfrwt>
<totfact> 0.67198882E+06</totfact>
</mgrwt>
</event>
<event>
 5    1  0.7934596E-005  0.1250013E+03  0.7818608E-02  0.1235067E+00
         21   -1    0    0  502  501  0.00000000000E+00  0.00000000000E+00  0.12956325506E+03  0.12956325506E+03  0.00000000000E+00 0. -1.
         21   -1    0    0  501  502 -0.00000000000E+00 -0.00000000000E+00 -0.30149990070E+02  0.30149990070E+02  0.00000000000E+00 0. -1.
         25    2    1    2    0    0  0.00000000000E+00  0.00000000000E+00  0.99413264992E+02  0.15971324513E+03  0.12500129365E+03 0.  0.
        -13    1    3    3    0    0  0.41417811968E+02  0.46745718203E+02  0.46650204909E+02  0.77954153893E+02  0.10570000000E+00 0.  1.
         13    1    3    3    0    0 -0.41417811968E+02 -0.46745718203E+02  0.52763060082E+02  0.81759091240E+02  0.10570000000E+00 0.  1.
<mgrwt>
<rscale>  0 0.12500129E+03</rscale>
<asrwt>0</asrwt>
<pdfrwt beam="1">  1       21 0.19932808E-01 0.12500129E+03</pdfrwt>
<pdfrwt beam="2">  1       21 0.46384601E-02 0.12500129E+03</pdfrwt>
<totfact> 0.69552264E+06</totfact>
</mgrwt>
</event>
<event>
 5    1  0.7934596E-005  0.1249982E+03  0.7818608E-02  0.1235072E+00
         21   -1    0    0  502  501  0.00000000000E+00  0.00000000000E+00  0.40047409521E+02  0.40047409521E+02  0.00000000000E+00 0.  1.
         21   -1    0    0  501  502 -0.00000000000E+00 -0.00000000000E+00 -0.97537844983E+02  0.97537844983E+02  0.00000000000E+00 0.  1.
         25    2    1    2    0    0  0.00000000000E+00  0.00000000000E+00 -0.57490435462E+02  0.13758525450E+03  0.12499820834E+03 0.  0.
        -13    1    3    3    0    0 -0.22202668052E+02  0.58062252495E+02 -0.21616704389E+02  0.65813955317E+02  0.10570000000E+00 0.  1.
         13    1    3    3    0    0  0.22202668052E+02 -0.58062252495E+02 -0.35873731074E+02  0.71771299187E+02  0.10570000000E+00 0.  1.
<mgrwt>
<rscale>  0 0.12499821E+03</rscale>
<asrwt>0</asrwt>
<pdfrwt beam="1">  1       21 0.61611400E-02 0.12499821E+03</pdfrwt>
<pdfrwt beam="2">  1       21 0.15005822E-01 0.12499821E+03</pdfrwt>
<totfact> 0.72359248E+06</totfact>
</mgrwt>
</event>
<event>
 5    1  0.7934596E-005  0.1250010E+03  0.7818608E-02  0.1235068E+00
         21   -1    0    0  502  501  0.00000000000E+00  0.00000000000E+00  0.11576837720E+03  0.11576837720E+03  0.00000000000E+00 0.  1.
         21   -1    0    0  501  502 -0.00000000000E+00 -0.00000000000E+00 -0.33742495804E+02  0.33742495804E+02  0.00000000000E+00 0.  1.
         25    2    1    2    0    0  0.00000000000E+00  0.00000000000E+00  0.82025881392E+02  0.14951087300E+03  0.12500102370E+03 0.  0.
        -13    1    3    3    0    0  0.10263645802E+02 -0.44150696171E+02 -0.10455588151E+02  0.46518350074E+02  0.10570000000E+00 0.  1.
         13    1    3    3    0    0 -0.10263645802E+02  0.44150696171E+02  0.92481469542E+02  0.10299252293E+03  0.10570000000E+00 0.  1.
<mgrwt>
<rscale>  0 0.12500102E+03</rscale>
<asrwt>0</asrwt>
<pdfrwt beam="1">  1       21 0.17810519E-01 0.12500102E+03</pdfrwt>
<pdfrwt beam="2">  1       21 0.51911533E-02 0.12500102E+03</pdfrwt>
<totfact> 0.70818853E+06</totfact>
</mgrwt>
</event>
<event>
 5    1  0.7934596E-005  0.1250025E+03  0.7818608E-02  0.1235065E+00
         21   -1    0    0  502  501  0.00000000000E+00  0.00000000000E+00  0.11487137891E+03  0.11487137891E+03  0.00000000000E+00 0.  1.
         21   -1    0    0  501  502 -0.00000000000E+00 -0.00000000000E+00 -0.34006773586E+02  0.34006773586E+02  0.00000000000E+00 0.  1.
         25    2    1    2    0    0  0.00000000000E+00  0.00000000000E+00  0.80864605325E+02  0.14887815250E+03  0.12500247956E+03 0.  0.
        -13    1    3    3    0    0 -0.25621107530E+02 -0.39552814843E+02  0.89329082925E+02  0.10099783434E+03  0.10570000000E+00 0.  1.
         13    1    3    3    0    0  0.25621107530E+02  0.39552814843E+02 -0.84644775995E+01  0.47880318155E+02  0.10570000000E+00 0.  1.
<mgrwt>
<rscale>  0 0.12500248E+03</rscale>
<asrwt>0</asrwt>
<pdfrwt beam="1">  1       21 0.17672520E-01 0.12500248E+03</pdfrwt>
<pdfrwt beam="2">  1       21 0.52318114E-02 0.12500248E+03</pdfrwt>
<totfact> 0.70895936E+06</totfact>
</mgrwt>
</event>
<event>
 5    1  0.7934596E-005  0.1249989E+03  0.7818608E-02  0.1235071E+00
         21   -1    0    0  502  501  0.00000000000E+00  0.00000000000E+00  0.13279069002E+03  0.13279069002E+03  0.00000000000E+00 0.  1.
         21   -1    0    0  501  502 -0.00000000000E+00 -0.00000000000E+00 -0.29416097948E+02  0.29416097948E+02  0.00000000000E+00 0.  1.
         25    2    1    2    0    0  0.00000000000E+00  0.00000000000E+00  0.10337459208E+03  0.16220678797E+03  0.12499894310E+03 0.  0.
        -13    1    3    3    0    0 -0.39250556834E+02  0.19114631161E+02  0.10972351580E+03  0.11808995058E+03  0.10570000000E+00 0. -1.
         13    1    3    3    0    0  0.39250556834E+02 -0.19114631161E+02 -0.63489237262E+01  0.44116837388E+02  0.10570000000E+00 0. -1.
<mgrwt>
<rscale>  0 0.12499894E+03</rscale>
<asrwt>0</asrwt>
<pdfrwt beam="1">  1       21 0.20429337E-01 0.12499894E+03</pdfrwt>
<pdfrwt beam="2">  1       21 0.45255536E-02 0.12499894E+03</pdfrwt>
<totfact> 0.69252711E+06</totfact>
</mgrwt>
</event>
<event>
 5    1  0.7934596E-005  0.1249937E+03  0.7818608E-02  0.1235079E+00
         21   -1    0    0  502  501  0.00000000000E+00  0.00000000000E+00  0.23086988372E+02  0.23086988372E+02  0.00000000000E+00 0. -1.
         21   -1    0    0  501  502 -0.00000000000E+00 -0.00000000000E+00 -0.16917991760E+03  0.16917991760E+03  0.00000000000E+00 0. -1.
         25    2    1    2    0    0  0.00000000000E+00  0.00000000000E+00 -0.14609292923E+03  0.19226690597E+03  0.12499367649E+03 0.  0.
        -13    1    3    3    0    0  0.39662749163E+02 -0.36482557450E+02 -0.12173116196E+03  0.13312624698E+03  0.10570000000E+00 0. -1.
         13    1    3    3    0    0 -0.39662749163E+02  0.36482557450E+02 -0.24361767262E+02  0.59140658991E+02  0.10570000000E+00 0. -1.
<mgrwt>
<rscale>  0 0.12499368E+03</rscale>
<asrwt>0</asrwt>
<pdfrwt beam="1">  1       21 0.35518445E-02 0.12499368E+03</pdfrwt>
<pdfrwt beam="2">  1       21 0.26027679E-01 0.12499368E+03</pdfrwt>
<totfact> 0.65781940E+06</totfact>
</mgrwt>
</event>
<event>
 5    1  0.7934596E-005  0.1249996E+03  0.7818608E-02  0.1235070E+00
         21   -1    0    0  502  501  0.00000000000E+00  0.00000000000E+00  0.16330378144E+02  0.16330378144E+02  0.00000000000E+00 0.  1.
         21   -1    0    0  501  502 -0.00000000000E+00 -0.00000000000E+00 -0.23920004322E+03  0.23920004322E+03  0.00000000000E+00 0.  1.
         25    2    1    2    0    0  0.00000000000E+00  0.00000000000E+00 -0.22286966507E+03  0.25553042136E+03  0.12499963452E+03 0.  0.
        -13    1    3    3    0    0 -0.42440291449E+02 -0.36780914137E+02 -0.55368634016E+02  0.78865143050E+02  0.10570000000E+00 0. -1.
         13    1    3    3    0    0  0.42440291449E+02  0.36780914137E+02 -0.16750103106E+03  0.17666527831E+03  0.10570000000E+00 0. -1.
<mgrwt>
<rscale>  0 0.12499963E+03</rscale>
<asrwt>0</asrwt>
<pdfrwt beam="1">  1       21 0.25123660E-02 0.12499963E+03</pdfrwt>
<pdfrwt beam="2">  1       21 0.36800005E-01 0.12499963E+03</pdfrwt>
<totfact> 0.59361928E+06</totfact>
</mgrwt>
</event>
<event>
 5    1  0.7934596E-005  0.1249973E+03  0.7818608E-02  0.1235074E+00
         21   -1    0    0  502  501  0.00000000000E+00  0.00000000000E+00  0.48951078031E+02  0.48951078031E+02  0.00000000000E+00 0.  1.
         21   -1    0    0  501  502 -0.00000000000E+00 -0.00000000000E+00 -0.79795559150E+02  0.79795559150E+02  0.00000000000E+00 0.  1.
         25    2    1    2    0    0  0.00000000000E+00  0.00000000000E+00 -0.30844481119E+02  0.12874663718E+03  0.12499725825E+03 0.  0.
        -13    1    3    3    0    0  0.57383314041E+02 -0.49362299403E+01  0.95720087375E+01  0.58385320245E+02  0.10570000000E+00 0. -1.
         13    1    3    3    0    0 -0.57383314041E+02  0.49362299403E+01 -0.40416489857E+02  0.70361316937E+02  0.10570000000E+00 0. -1.
<mgrwt>
<rscale>  0 0.12499726E+03</rscale>
<asrwt>0</asrwt>
<pdfrwt beam="1">  1       21 0.75309351E-02 0.12499726E+03</pdfrwt>
<pdfrwt beam="2">  1       21 0.12276240E-01 0.12499726E+03</pdfrwt>
<totfact> 0.73538078E+06</totfact>
</mgrwt>
</event>
<event>
 5    1  0.7934596E-005  0.1250020E+03  0.7818608E-02  0.1235066E+00
         21   -1    0    0  502  501  0.00000000000E+00  0.00000000000E+00  0.45221414888E+03  0.45221414888E+03  0.00000000000E+00 0. -1.
         21   -1    0    0  501  502 -0.00000000000E+00 -0.00000000000E+00 -0.86383245518E+01  0.86383245518E+01  0.00000000000E+00 0. -1.
         25    2    1    2    0    0  0.00000000000E+00  0.00000000000E+00  0.44357582433E+03  0.46085247343E+03  0.12500196134E+03 0.  0.
        -13    1    3    3    0    0  0.13144402050E+02 -0.55478401768E+02  0.12737994850E+03  0.13955748214E+03  0.10570000000E+00 0.  1.
         13    1    3    3    0    0 -0.13144402050E+02  0.55478401768E+02  0.31619587583E+03  0.32129499129E+03  0.10570000000E+00 0.  1.
<mgrwt>
<rscale>  0 0.12500196E+03</rscale>
<asrwt>0</asrwt>
<pdfrwt beam="1">  1       21 0.69571389E-01 0.12500196E+03</pdfrwt>
<pdfrwt beam="2">  1       21 0.13289734E-02 0.12500196E+03</pdfrwt>
<totfact> 0.44247766E+06</totfact>
</mgrwt>
</event>
<event>
 5    1  0.7934596E-005  0.1249973E+03  0.7818608E-02  0.1235073E+00
         21   -1    0    0  502  501  0.00000000000E+00  0.00000000000E+00  0.22513276429E+03  0.22513276429E+03  0.00000000000E+00 0.  1.
         21   -1    0    0  501  502 -0.00000000000E+00 -0.00000000000E+00 -0.17350123994E+02  0.17350123994E+02  0.00000000000E+00 0.  1.
         25    2    1    2    0    0  0.00000000000E+00  0.00000000000E+00  0.20778264029E+03  0.24248288828E+03  0.12499730198E+03 0.  0.
        -13    1    3    3    0    0  0.47441175638E+02  0.17470911215E+02  0.17517252916E+03  0.18232203385E+03  0.10570000000E+00 0.  1.
         13    1    3    3    0    0 -0.47441175638E+02 -0.17470911215E+02  0.32610111134E+02  0.60160854426E+02  0.10570000000E+00 0.  1.
<mgrwt>
<rscale>  0 0.12499730E+03</rscale>
<asrwt>0</asrwt>
<pdfrwt beam="1">  1       21 0.34635808E-01 0.12499730E+03</pdfrwt>
<pdfrwt beam="2">  1       21 0.26692500E-02 0.12499730E+03</pdfrwt>
<totfact> 0.60597347E+06</totfact>
</mgrwt>
</event>
<event>
 5    1  0.7934596E-005  0.1250026E+03  0.7818608E-02  0.1235065E+00
         21   -1    0    0  502  501  0.00000000000E+00  0.00000000000E+00  0.46849348050E+02  0.46849348050E+02  0.00000000000E+00 0. -1.
         21   -1    0    0  501  502 -0.00000000000E+00 -0.00000000000E+00 -0.83382435383E+02  0.83382435383E+02  0.00000000000E+00 0. -1.
         25    2    1    2    0    0  0.00000000000E+00  0.00000000000E+00 -0.36533087333E+02  0.13023178343E+03  0.12500260376E+03 0.  0.
        -13    1    3    3    0    0 -0.51794574837E+02 -0.31685961524E+02 -0.28233859266E+01  0.60783721677E+02  0.10570000000E+00 0. -1.
         13    1    3    3    0    0  0.51794574837E+02  0.31685961524E+02 -0.33709701406E+02  0.69448061756E+02  0.10570000000E+00 0. -1.
<mgrwt>
<rscale>  0 0.12500260E+03</rscale>
<asrwt>0</asrwt>
<pdfrwt beam="1">  1       21 0.72075920E-02 0.12500260E+03</pdfrwt>
<pdfrwt beam="2">  1       21 0.12828067E-01 0.12500260E+03</pdfrwt>
<totfact> 0.73329079E+06</totfact>
</mgrwt>
</event>
<event>
 5    1  0.7934596E-005  0.1249994E+03  0.7818608E-02  0.1235070E+00
         21   -1    0    0  502  501  0.00000000000E+00  0.00000000000E+00  0.12753925134E+03  0.12753925134E+03  0.00000000000E+00 0. -1.
         21   -1    0    0  501  502 -0.00000000000E+00 -0.00000000000E+00 -0.30627531648E+02  0.30627531648E+02  0.00000000000E+00 0. -1.
         25    2    1    2    0    0  0.00000000000E+00  0.00000000000E+00  0.96911719695E+02  0.15816678299E+03  0.12499939931E+03 0.  0.
        -13    1    3    3    0    0 -0.61625407588E+02 -0.17926195655E+01  0.61440060818E+02  0.87039052103E+02  0.10570000000E+00 0.  1.
         13    1    3    3    0    0  0.61625407588E+02  0.17926195655E+01  0.35471658877E+02  0.71127730888E+02  0.10570000000E+00 0.  1.
<mgrwt>
<rscale>  0 0.12499940E+03</rscale>
<asrwt>0</asrwt>
<pdfrwt beam="1">  1       21 0.19621423E-01 0.12499940E+03</pdfrwt>
<pdfrwt beam="2">  1       21 0.47119280E-02 0.12499940E+03</pdfrwt>
<totfact> 0.69745257E+06</totfact>
</mgrwt>
</event>
<event>
 5    1  0.7934596E-005  0.1249999E+03  0.7818608E-02  0.1235069E+00
         21   -1    0    0  502  501  0.00000000000E+00  0.00000000000E+00  0.11984843873E+02  0.11984843873E+02  0.00000000000E+00 0. -1.
         21   -1    0    0  501  502 -0.00000000000E+00 -0.00000000000E+00 -0.32593214989E+03  0.32593214989E+03  0.00000000000E+00 0. -1.
         25    2    1    2    0    0  0.00000000000E+00  0.00000000000E+00 -0.31394730602E+03  0.33791699377E+03  0.12499993487E+03 0.  0.
        -13    1    3    3    0    0  0.11044993608E+02  0.60848202769E+02 -0.13253286785E+03  0.14625138597E+03  0.10570000000E+00 0.  1.
         13    1    3    3    0    0 -0.11044993608E+02 -0.60848202769E+02 -0.18141443817E+03  0.19166560780E+03  0.10570000000E+00 0.  1.
<mgrwt>
<rscale>  0 0.12499993E+03</rscale>
<asrwt>0</asrwt>
<pdfrwt beam="1">  1       21 0.18438223E-02 0.12499993E+03</pdfrwt>
<pdfrwt beam="2">  1       21 0.50143402E-01 0.12499993E+03</pdfrwt>
<totfact> 0.52443455E+06</totfact>
</mgrwt>
</event>
<event>
 5    1  0.7934596E-005  0.1249946E+03  0.7818608E-02  0.1235078E+00
         21   -1    0    0  502  501  0.00000000000E+00  0.00000000000E+00  0.32771925321E+02  0.32771925321E+02  0.00000000000E+00 0. -1.
         21   -1    0    0  501  502 -0.00000000000E+00 -0.00000000000E+00 -0.11918463551E+03  0.11918463551E+03  0.00000000000E+00 0. -1.
         25    2    1    2    0    0  0.00000000000E+00  0.00000000000E+00 -0.86412710186E+02  0.15195656083E+03  0.12499455947E+03 0.  0.
        -13    1    3    3    0    0 -0.87037779834E+01 -0.30927854313E+02 -0.10837554538E+03  0.11303786062E+03  0.10570000000E+00 0. -1.
         13    1    3    3    0    0  0.87037779834E+01  0.30927854313E+02  0.21962835197E+02  0.38918700209E+02  0.10570000000E+00 0. -1.
<mgrwt>
<rscale>  0 0.12499456E+03</rscale>
<asrwt>0</asrwt>
<pdfrwt beam="1">  1       21 0.50418346E-02 0.12499456E+03</pdfrwt>
<pdfrwt beam="2">  1       21 0.18336098E-01 0.12499456E+03</pdfrwt>
<totfact> 0.70524043E+06</totfact>
</mgrwt>
</event>
<event>
 5    1  0.7934596E-005  0.1250014E+03  0.7818608E-02  0.1235067E+00
         21   -1    0    0  502  501  0.00000000000E+00  0.00000000000E+00  0.31981240733E+03  0.31981240733E+03  0.00000000000E+00 0. -1.
         21   -1    0    0  501  502 -0.00000000000E+00 -0.00000000000E+00 -0.12214465808E+02  0.12214465808E+02  0.00000000000E+00 0. -1.
         25    2    1    2    0    0  0.00000000000E+00  0.00000000000E+00  0.30759794153E+03  0.33202687314E+03  0.12500140342E+03 0.  0.
        -13    1    3    3    0    0 -0.47426177935E+02  0.20048972176E+02  0.24790153845E+03  0.25319239242E+03  0.10570000000E+00 0. -1.
         13    1    3    3    0    0  0.47426177935E+02 -0.20048972176E+02  0.59696403076E+02  0.78834480727E+02  0.10570000000E+00 0. -1.
<mgrwt>
<rscale>  0 0.12500140E+03</rscale>
<asrwt>0</asrwt>
<pdfrwt beam="1">  1       21 0.49201903E-01 0.12500140E+03</pdfrwt>
<pdfrwt beam="2">  1       21 0.18791488E-02 0.12500140E+03</pdfrwt>
<totfact> 0.52891969E+06</totfact>
</mgrwt>
</event>
<event>
 5    1  0.7934596E-005  0.1250018E+03  0.7818608E-02  0.1235067E+00
         21   -1    0    0  502  501  0.00000000000E+00  0.00000000000E+00  0.85349428605E+02  0.85349428605E+02  0.00000000000E+00 0.  1.
         21   -1    0    0  501  502 -0.00000000000E+00 -0.00000000000E+00 -0.45769032381E+02  0.45769032381E+02  0.00000000000E+00 0.  1.
         25    2    1    2    0    0  0.00000000000E+00  0.00000000000E+00  0.39580396224E+02  0.13111846099E+03  0.12500177217E+03 0.  0.
        -13    1    3    3    0    0  0.41518733651E+02  0.46179030300E+02  0.27210351049E+02  0.67799133182E+02  0.10570000000E+00 0. -1.
         13    1    3    3    0    0 -0.41518733651E+02 -0.46179030300E+02  0.12370045175E+02  0.63319327805E+02  0.10570000000E+00 0. -1.
<mgrwt>
<rscale>  0 0.12500177E+03</rscale>
<asrwt>0</asrwt>
<pdfrwt beam="1">  1       21 0.13130681E-01 0.12500177E+03</pdfrwt>
<pdfrwt beam="2">  1       21 0.70413896E-02 0.12500177E+03</pdfrwt>
<totfact> 0.73211402E+06</totfact>
</mgrwt>
</event>
<event>
 5    1  0.7934596E-005  0.1249980E+03  0.7818608E-02  0.1235072E+00
         21   -1    0    0  502  501  0.00000000000E+00  0.00000000000E+00  0.77988236052E+02  0.77988236052E+02  0.00000000000E+00 0. -1.
         21   -1    0    0  501  502 -0.00000000000E+00 -0.00000000000E+00 -0.50086091929E+02  0.50086091929E+02  0.00000000000E+00 0. -1.
         25    2    1    2    0    0  0.00000000000E+00  0.00000000000E+00  0.27902144122E+02  0.12807432798E+03  0.12499801535E+03 0.  0.
        -13    1    3    3    0    0  0.52917342892E+02 -0.14639242648E+02  0.44544968188E+02  0.70702319392E+02  0.10570000000E+00 0.  1.
         13    1    3    3    0    0 -0.52917342892E+02  0.14639242648E+02 -0.16642824066E+02  0.57372008589E+02  0.10570000000E+00 0.  1.
<mgrwt>
<rscale>  0 0.12499802E+03</rscale>
<asrwt>0</asrwt>
<pdfrwt beam="1">  1       21 0.11998190E-01 0.12499802E+03</pdfrwt>
<pdfrwt beam="2">  1       21 0.77055526E-02 0.12499802E+03</pdfrwt>
<totfact> 0.73627251E+06</totfact>
</mgrwt>
</event>
<event>
 5    1  0.7934596E-005  0.1250035E+03  0.7818608E-02  0.1235064E+00
         21   -1    0    0  502  501  0.00000000000E+00  0.00000000000E+00  0.14085697691E+02  0.14085697691E+02  0.00000000000E+00 0.  1.
         21   -1    0    0  501  502 -0.00000000000E+00 -0.00000000000E+00 -0.27733592293E+03  0.27733592293E+03  0.00000000000E+00 0.  1.
         25    2    1    2    0    0  0.00000000000E+00  0.00000000000E+00 -0.26325022524E+03  0.29142162063E+03  0.12500351946E+03 0.  0.
        -13    1    3    3    0    0  0.37346765960E+02  0.35193910668E+02 -0.48443932613E+02  0.70570660018E+02  0.10570000000E+00 0. -1.
         13    1    3    3    0    0 -0.37346765960E+02 -0.35193910668E+02 -0.21480629263E+03  0.22085096061E+03  0.10570000000E+00 0. -1.
<mgrwt>
<rscale>  0 0.12500352E+03</rscale>
<asrwt>0</asrwt>
<pdfrwt beam="1">  1       21 0.21670305E-02 0.12500352E+03</pdfrwt>
<pdfrwt beam="2">  1       21 0.42667064E-01 0.12500352E+03</pdfrwt>
<totfact> 0.56171721E+06</totfact>
</mgrwt>
</event>
<event>
 5    1  0.7934596E-005  0.1250037E+03  0.7818608E-02  0.1235063E+00
         21   -1    0    0  502  501  0.00000000000E+00  0.00000000000E+00  0.15434616134E+03  0.15434616134E+03  0.00000000000E+00 0. -1.
         21   -1    0    0  501  502 -0.00000000000E+00 -0.00000000000E+00 -0.25309885595E+02  0.25309885595E+02  0.00000000000E+00 0. -1.
         25    2    1    2    0    0  0.00000000000E+00  0.00000000000E+00  0.12903627575E+03  0.17965604694E+03  0.12500373891E+03 0.  0.
        -13    1    3    3    0    0 -0.25943216486E+02  0.43332128209E+02  0.11599527153E+02  0.51819726161E+02  0.10570000000E+00 0.  1.
         13    1    3    3    0    0  0.25943216486E+02 -0.43332128209E+02  0.11743674859E+03  0.12783632078E+03  0.10570000000E+00 0.  1.
<mgrwt>
<rscale>  0 0.12500374E+03</rscale>
<asrwt>0</asrwt>
<pdfrwt beam="1">  1       21 0.23745563E-01 0.12500374E+03</pdfrwt>
<pdfrwt beam="2">  1       21 0.38938286E-02 0.12500374E+03</pdfrwt>
<totfact> 0.67184644E+06</totfact>
</mgrwt>
</event>
<event>
 5    1  0.7934596E-005  0.1249976E+03  0.7818608E-02  0.1235073E+00
         21   -1    0    0  502  501  0.00000000000E+00  0.00000000000E+00  0.76045763988E+01  0.76045763988E+01  0.00000000000E+00 0. -1.
         21   -1    0    0  501  502 -0.00000000000E+00 -0.00000000000E+00 -0.51365156107E+03  0.51365156107E+03  0.00000000000E+00 0. -1.
         25    2    1    2    0    0  0.00000000000E+00  0.00000000000E+00 -0.50604698467E+03  0.52125613746E+03  0.12499764059E+03 0.  0.
        -13    1    3    3    0    0 -0.13084578567E+02 -0.58198311133E+02 -0.17524845641E+03  0.18512234404E+03  0.10570000000E+00 0. -1.
         13    1    3    3    0    0  0.13084578567E+02  0.58198311133E+02 -0.33079852825E+03  0.33613379343E+03  0.10570000000E+00 0. -1.
<mgrwt>
<rscale>  0 0.12499764E+03</rscale>
<asrwt>0</asrwt>
<pdfrwt beam="1">  1       21 0.11699354E-02 0.12499764E+03</pdfrwt>
<pdfrwt beam="2">  1       21 0.79023279E-01 0.12499764E+03</pdfrwt>
<totfact> 0.40916691E+06</totfact>
</mgrwt>
</event>
<event>
 5    1  0.7934596E-005  0.1249986E+03  0.7818608E-02  0.1235072E+00
         21   -1    0    0  502  501  0.00000000000E+00  0.00000000000E+00  0.21778466980E+02  0.21778466980E+02  0.00000000000E+00 0. -1.
         21   -1    0    0  501  502 -0.00000000000E+00 -0.00000000000E+00 -0.17935882457E+03  0.17935882457E+03  0.00000000000E+00 0. -1.
         25    2    1    2    0    0  0.00000000000E+00  0.00000000000E+00 -0.15758035759E+03  0.20113729155E+03  0.12499856381E+03 0.  0.
        -13    1    3    3    0    0 -0.40722147678E+02 -0.47408836301E+02 -0.77972856639E+02  0.99928317388E+02  0.10570000000E+00 0.  1.
         13    1    3    3    0    0  0.40722147678E+02  0.47408836301E+02 -0.79607500951E+02  0.10120897416E+03  0.10570000000E+00 0.  1.
<mgrwt>
<rscale>  0 0.12499856E+03</rscale>
<asrwt>0</asrwt>
<pdfrwt beam="1">  1       21 0.33505334E-02 0.12499856E+03</pdfrwt>
<pdfrwt beam="2">  1       21 0.27593665E-01 0.12499856E+03</pdfrwt>
<totfact> 0.64806583E+06</totfact>
</mgrwt>
</event>
<event>
 5    1  0.7934596E-005  0.1250083E+03  0.7818608E-02  0.1235056E+00
         21   -1    0    0  502  501  0.00000000000E+00  0.00000000000E+00  0.13962522141E+03  0.13962522141E+03  0.00000000000E+00 0.  1.
         21   -1    0    0  501  502 -0.00000000000E+00 -0.00000000000E+00 -0.27980382442E+02  0.27980382442E+02  0.00000000000E+00 0.  1.
         25    2    1    2    0    0  0.00000000000E+00  0.00000000000E+00  0.11164483897E+03  0.16760560385E+03  0.12500827322E+03 0.  0.
        -13    1    3    3    0    0  0.37152125741E+02 -0.48428437800E+02  0.37776326288E+02  0.71782003560E+02  0.10570000000E+00 0.  1.
         13    1    3    3    0    0 -0.37152125741E+02  0.48428437800E+02  0.73868512680E+02  0.95823600292E+02  0.10570000000E+00 0.  1.
<mgrwt>
<rscale>  0 0.12500827E+03</rscale>
<asrwt>0</asrwt>
<pdfrwt beam="1">  1       21 0.21480803E-01 0.12500827E+03</pdfrwt>
<pdfrwt beam="2">  1       21 0.43046743E-02 0.12500827E+03</pdfrwt>
<totfact> 0.68587492E+06</totfact>
</mgrwt>
</event>
<event>
 5    1  0.7934596E-005  0.1250211E+03  0.7818608E-02  0.1235036E+00
         21   -1    0    0  502  501  0.00000000000E+00  0.00000000000E+00  0.13064984464E+03  0.13064984464E+03  0.00000000000E+00 0.  1.
         21   -1    0    0  501  502 -0.00000000000E+00 -0.00000000000E+00 -0.29908731277E+02  0.29908731277E+02  0.00000000000E+00 0.  1.
         25    2    1    2    0    0  0.00000000000E+00  0.00000000000E+00  0.10074111336E+03  0.16055857592E+03  0.12502113573E+03 0.  0.
        -13    1    3    3    0    0  0.31674200878E+02 -0.24193578608E+02 -0.11473527724E+02  0.41475743007E+02  0.10570000000E+00 0.  1.
         13    1    3    3    0    0 -0.31674200878E+02  0.24193578608E+02  0.11221464109E+03  0.11908283291E+03  0.10570000000E+00 0.  1.
<mgrwt>
<rscale>  0 0.12502114E+03</rscale>
<asrwt>0</asrwt>
<pdfrwt beam="1">  1       21 0.20099976E-01 0.12502114E+03</pdfrwt>
<pdfrwt beam="2">  1       21 0.46013433E-02 0.12502114E+03</pdfrwt>
<totfact> 0.69414003E+06</totfact>
</mgrwt>
</event>
<event>
 5    1  0.7934596E-005  0.1250029E+03  0.7818608E-02  0.1235065E+00
         21   -1    0    0  502  501  0.00000000000E+00  0.00000000000E+00  0.28077699083E+03  0.28077699083E+03  0.00000000000E+00 0. -1.
         21   -1    0    0  501  502 -0.00000000000E+00 -0.00000000000E+00 -0.13912932887E+02  0.13912932887E+02  0.00000000000E+00 0. -1.
         25    2    1    2    0    0  0.00000000000E+00  0.00000000000E+00  0.26686405795E+03  0.29468992372E+03  0.12500290284E+03 0.  0.
        -13    1    3    3    0    0  0.52775886121E+02  0.68469668080E+01  0.21069953383E+03  0.21731654295E+03  0.10570000000E+00 0. -1.
         13    1    3    3    0    0 -0.52775886121E+02 -0.68469668080E+01  0.56164524118E+02  0.77373380773E+02  0.10570000000E+00 0. -1.
<mgrwt>
<rscale>  0 0.12500290E+03</rscale>
<asrwt>0</asrwt>
<pdfrwt beam="1">  1       21 0.43196456E-01 0.12500290E+03</pdfrwt>
<pdfrwt beam="2">  1       21 0.21404514E-02 0.12500290E+03</pdfrwt>
<totfact> 0.55896292E+06</totfact>
</mgrwt>
</event>
<event>
 5    1  0.7934596E-005  0.1250003E+03  0.7818608E-02  0.1235069E+00
         21   -1    0    0  502  501  0.00000000000E+00  0.00000000000E+00  0.59400752242E+03  0.59400752242E+03  0.00000000000E+00 0.  1.
         21   -1    0    0  501  502 -0.00000000000E+00 -0.00000000000E+00 -0.65761266479E+01  0.65761266479E+01  0.00000000000E+00 0.  1.
         25    2    1    2    0    0  0.00000000000E+00  0.00000000000E+00  0.58743139577E+03  0.60058364907E+03  0.12500029916E+03 0.  0.
        -13    1    3    3    0    0  0.19730541885E+02 -0.59268747693E+02  0.28389397560E+03  0.29068518932E+03  0.10570000000E+00 0.  1.
         13    1    3    3    0    0 -0.19730541885E+02  0.59268747693E+02  0.30353742017E+03  0.30989845975E+03  0.10570000000E+00 0.  1.
<mgrwt>
<rscale>  0 0.12500030E+03</rscale>
<asrwt>0</asrwt>
<pdfrwt beam="1">  1       21 0.91385730E-01 0.12500030E+03</pdfrwt>
<pdfrwt beam="2">  1       21 0.10117123E-02 0.12500030E+03</pdfrwt>
<totfact> 0.37065986E+06</totfact>
</mgrwt>
</event>
<event>
 5    1  0.7934596E-005  0.1250005E+03  0.7818608E-02  0.1235069E+00
         21   -1    0    0  502  501  0.00000000000E+00  0.00000000000E+00  0.30102061052E+03  0.30102061052E+03  0.00000000000E+00 0.  1.
         21   -1    0    0  501  502 -0.00000000000E+00 -0.00000000000E+00 -0.12976783088E+02  0.12976783088E+02  0.00000000000E+00 0.  1.
         25    2    1    2    0    0  0.00000000000E+00  0.00000000000E+00  0.28804382743E+03  0.31399739361E+03  0.12500046669E+03 0.  0.
        -13    1    3    3    0    0  0.60632626119E+01  0.49666473282E+02  0.23810335686E+03  0.24330380482E+03  0.10570000000E+00 0.  1.
         13    1    3    3    0    0 -0.60632626119E+01 -0.49666473282E+02  0.49940470574E+02  0.70693588786E+02  0.10570000000E+00 0.  1.
<mgrwt>
<rscale>  0 0.12500047E+03</rscale>
<asrwt>0</asrwt>
<pdfrwt beam="1">  1       21 0.46310858E-01 0.12500047E+03</pdfrwt>
<pdfrwt beam="2">  1       21 0.19964284E-02 0.12500047E+03</pdfrwt>
<totfact> 0.54311839E+06</totfact>
</mgrwt>
</event>
<event>
 5    1  0.7934596E-005  0.1249995E+03  0.7818608E-02  0.1235070E+00
         21   -1    0    0  502  501  0.00000000000E+00  0.00000000000E+00  0.33681400215E+02  0.33681400215E+02  0.00000000000E+00 0. -1.
         21   -1    0    0  501  502 -0.00000000000E+00 -0.00000000000E+00 -0.11597559533E+03  0.11597559533E+03  0.00000000000E+00 0. -1.
         25    2    1    2    0    0  0.00000000000E+00  0.00000000000E+00 -0.82294195117E+02  0.14965699555E+03  0.12499952706E+03 0.  0.
        -13    1    3    3    0    0 -0.15896523815E+02 -0.49009331265E+02 -0.83503650124E+02  0.98119747131E+02  0.10570000000E+00 0. -1.
         13    1    3    3    0    0  0.15896523815E+02  0.49009331265E+02  0.12094550070E+01  0.51537248417E+02  0.10570000000E+00 0. -1.
<mgrwt>
<rscale>  0 0.12499953E+03</rscale>
<asrwt>0</asrwt>
<pdfrwt beam="1">  1       21 0.51817538E-02 0.12499953E+03</pdfrwt>
<pdfrwt beam="2">  1       21 0.17842400E-01 0.12499953E+03</pdfrwt>
<totfact> 0.70803167E+06</totfact>
</mgrwt>
</event>
<event>
 5    1  0.7934596E-005  0.1249995E+03  0.7818608E-02  0.1235070E+00
         21   -1    0    0  502  501  0.00000000000E+00  0.00000000000E+00  0.19191215831E+03  0.19191215831E+03  0.00000000000E+00 0. -1.
         21   -1    0    0  501  502 -0.00000000000E+00 -0.00000000000E+00 -0.20354187117E+02  0.20354187117E+02  0.00000000000E+00 0. -1.
         25    2    1    2    0    0  0.00000000000E+00  0.00000000000E+00  0.17155797120E+03  0.21226634543E+03  0.12499945569E+03 0.  0.
        -13    1    3    3    0    0  0.51241197106E+02  0.35408688660E+02  0.76992979852E+02  0.99032144440E+02  0.10570000000E+00 0.  1.
         13    1    3    3    0    0 -0.51241197106E+02 -0.35408688660E+02  0.94564991346E+02  0.11323420099E+03  0.10570000000E+00 0.  1.
<mgrwt>
<rscale>  0 0.12499946E+03</rscale>
<asrwt>0</asrwt>
<pdfrwt beam="1">  1       21 0.29524946E-01 0.12499946E+03</pdfrwt>
<pdfrwt beam="2">  1       21 0.31314135E-02 0.12499946E+03</pdfrwt>
<totfact> 0.63622753E+06</totfact>
</mgrwt>
</event>
<event>
 4    1  0.7934596E-005  0.1239126E+03  0.7818608E-02  0.1236778E+00
         21   -1    0    0  502  501  0.00000000000E+00  0.00000000000E+00  0.13386088111E+03  0.13386088111E+03  0.00000000000E+00 0. -1.
         21   -1    0    0  501  502 -0.00000000000E+00 -0.00000000000E+00 -0.28675931097E+02  0.28675931097E+02  0.00000000000E+00 0. -1.
        -13    1    1    2    0    0 -0.72652397399E+01  0.34869556621E+02  0.11908833918E+03  0.12430089859E+03  0.10570000000E+00 0. -1.
         13    1    1    2    0    0  0.72652397399E+01 -0.34869556621E+02 -0.13903389171E+02  0.38235913620E+02  0.10570000000E+00 0. -1.
<mgrwt>
<rscale>  0 0.12391264E+03</rscale>
<asrwt>0</asrwt>
<pdfrwt beam="1">  1       21 0.20593981E-01 0.12391264E+03</pdfrwt>
<pdfrwt beam="2">  1       21 0.44116818E-02 0.12391264E+03</pdfrwt>
<totfact> 0.71158096E+06</totfact>
</mgrwt>
</event>
<event>
 5    1  0.7934596E-005  0.1249991E+03  0.7818608E-02  0.1235071E+00
         21   -1    0    0  502  501  0.00000000000E+00  0.00000000000E+00  0.21626047237E+03  0.21626047237E+03  0.00000000000E+00 0. -1.
         21   -1    0    0  501  502 -0.00000000000E+00 -0.00000000000E+00 -0.18062443786E+02  0.18062443786E+02  0.00000000000E+00 0. -1.
         25    2    1    2    0    0  0.00000000000E+00  0.00000000000E+00  0.19819802858E+03  0.23432291615E+03  0.12499908200E+03 0.  0.
        -13    1    3    3    0    0 -0.30151492720E+02 -0.52787040766E+02  0.71894917896E+02  0.94151338694E+02  0.10570000000E+00 0. -1.
         13    1    3    3    0    0  0.30151492720E+02  0.52787040766E+02  0.12630311069E+03  0.14017157746E+03  0.10570000000E+00 0. -1.
<mgrwt>
<rscale>  0 0.12499908E+03</rscale>
<asrwt>0</asrwt>
<pdfrwt beam="1">  1       21 0.33270840E-01 0.12499908E+03</pdfrwt>
<pdfrwt beam="2">  1       21 0.27788377E-02 0.12499908E+03</pdfrwt>
<totfact> 0.61387810E+06</totfact>
</mgrwt>
</event>
<event>
 5    1  0.7934596E-005  0.1250014E+03  0.7818608E-02  0.1235067E+00
         21   -1    0    0  502  501  0.00000000000E+00  0.00000000000E+00  0.20364338638E+02  0.20364338638E+02  0.00000000000E+00 0. -1.
         21   -1    0    0  501  502 -0.00000000000E+00 -0.00000000000E+00 -0.19182241982E+03  0.19182241982E+03  0.00000000000E+00 0. -1.
         25    2    1    2    0    0  0.00000000000E+00  0.00000000000E+00 -0.17145808118E+03  0.21218675846E+03  0.12500138744E+03 0.  0.
        -13    1    3    3    0    0  0.27733881856E+02  0.55833812299E+02 -0.93271399687E+02  0.11218800279E+03  0.10570000000E+00 0.  1.
         13    1    3    3    0    0 -0.27733881856E+02 -0.55833812299E+02 -0.78186681494E+02  0.99998755663E+02  0.10570000000E+00 0.  1.
<mgrwt>
<rscale>  0 0.12500139E+03</rscale>
<asrwt>0</asrwt>
<pdfrwt beam="1">  1       21 0.31329753E-02 0.12500139E+03</pdfrwt>
<pdfrwt beam="2">  1       21 0.29511141E-01 0.12500139E+03</pdfrwt>
<totfact> 0.63627964E+06</totfact>
</mgrwt>
</event>
<event>
 5    1  0.7934596E-005  0.1250000E+03  0.7818608E-02  0.1235069E+00
         21   -1    0    0  502  501  0.00000000000E+00  0.00000000000E+00  0.91776801051E+02  0.91776801051E+02  0.00000000000E+00 0.  1.
         21   -1    0    0  501  502 -0.00000000000E+00 -0.00000000000E+00 -0.42562468385E+02  0.42562468385E+02  0.00000000000E+00 0.  1.
         25    2    1    2    0    0  0.00000000000E+00  0.00000000000E+00  0.49214332666E+02  0.13433926944E+03  0.12499995509E+03 0.  0.
        -13    1    3    3    0    0  0.47013099650E+02 -0.18285692367E+02 -0.15050207079E+02  0.52641409457E+02  0.10570000000E+00 0. -1.
         13    1    3    3    0    0 -0.47013099650E+02  0.18285692367E+02  0.64264539745E+02  0.81697859979E+02  0.10570000000E+00 0. -1.
<mgrwt>
<rscale>  0 0.12499996E+03</rscale>
<asrwt>0</asrwt>
<pdfrwt beam="1">  1       21 0.14119508E-01 0.12499996E+03</pdfrwt>
<pdfrwt beam="2">  1       21 0.65480721E-02 0.12499996E+03</pdfrwt>
<totfact> 0.72784160E+06</totfact>
</mgrwt>
</event>
<event>
 5    1  0.7934596E-005  0.1250049E+03  0.7818608E-02  0.1235062E+00
         21   -1    0    0  502  501  0.00000000000E+00  0.00000000000E+00  0.11179674777E+03  0.11179674777E+03  0.00000000000E+00 0.  1.
         21   -1    0    0  501  502 -0.00000000000E+00 -0.00000000000E+00 -0.34943362136E+02  0.34943362136E+02  0.00000000000E+00 0.  1.
         25    2    1    2    0    0  0.00000000000E+00  0.00000000000E+00  0.76853385634E+02  0.14674010991E+03  0.12500486779E+03 0.  0.
        -13    1    3    3    0    0 -0.40939969202E+02  0.20001826550E+02 -0.11795261052E+02  0.47066904502E+02  0.10570000000E+00 0.  1.
         13    1    3    3    0    0  0.40939969202E+02 -0.20001826550E+02  0.88648646686E+02  0.99673205403E+02  0.10570000000E+00 0.  1.
<mgrwt>
<rscale>  0 0.12500487E+03</rscale>
<asrwt>0</asrwt>
<pdfrwt beam="1">  1       21 0.17199500E-01 0.12500487E+03</pdfrwt>
<pdfrwt beam="2">  1       21 0.53759019E-02 0.12500487E+03</pdfrwt>
<totfact> 0.71162325E+06</totfact>
</mgrwt>
</event>
<event>
 5    1  0.7934596E-005  0.1249979E+03  0.7818608E-02  0.1235073E+00
         21   -1    0    0  502  501  0.00000000000E+00  0.00000000000E+00  0.10034442151E+03  0.10034442151E+03  0.00000000000E+00 0.  1.
         21   -1    0    0  501  502 -0.00000000000E+00 -0.00000000000E+00 -0.38927127814E+02  0.38927127814E+02  0.00000000000E+00 0.  1.
         25    2    1    2    0    0  0.00000000000E+00  0.00000000000E+00  0.61417293692E+02  0.13927154932E+03  0.12499792192E+03 0.  0.
        -13    1    3    3    0    0  0.55354448950E+02 -0.22678315268E+02  0.50877901420E+02  0.78530204554E+02  0.10570000000E+00 0.  1.
         13    1    3    3    0    0 -0.55354448950E+02  0.22678315268E+02  0.10539392272E+02  0.60741344765E+02  0.10570000000E+00 0.  1.
<mgrwt>
<rscale>  0 0.12499792E+03</rscale>
<asrwt>0</asrwt>
<pdfrwt beam="1">  1       21 0.15437603E-01 0.12499792E+03</pdfrwt>
<pdfrwt beam="2">  1       21 0.59887889E-02 0.12499792E+03</pdfrwt>
<totfact> 0.72138368E+06</totfact>
</mgrwt>
</event>
<event>
 5    1  0.7934596E-005  0.1250011E+03  0.7818608E-02  0.1235068E+00
         21   -1    0    0  502  501  0.00000000000E+00  0.00000000000E+00  0.38871783307E+02  0.38871783307E+02  0.00000000000E+00 0. -1.
         21   -1    0    0  501  502 -0.00000000000E+00 -0.00000000000E+00 -0.10049233611E+03  0.10049233611E+03  0.00000000000E+00 0. -1.
         25    2    1    2    0    0  0.00000000000E+00  0.00000000000E+00 -0.61620552807E+02  0.13936411942E+03  0.12500106101E+03 0.  0.
        -13    1    3    3    0    0  0.55771184781E+02 -0.27107791791E+02 -0.22099196928E+02  0.65830411703E+02  0.10570000000E+00 0.  1.
         13    1    3    3    0    0 -0.55771184781E+02  0.27107791791E+02 -0.39521355879E+02  0.73533707718E+02  0.10570000000E+00 0.  1.
<mgrwt>
<rscale>  0 0.12500106E+03</rscale>
<asrwt>0</asrwt>
<pdfrwt beam="1">  1       21 0.59802743E-02 0.12500106E+03</pdfrwt>
<pdfrwt beam="2">  1       21 0.15460359E-01 0.12500106E+03</pdfrwt>
<totfact> 0.72120480E+06</totfact>
</mgrwt>
</event>
<event>
 5    1  0.7934596E-005  0.1249996E+03  0.7818608E-02  0.1235070E+00
         21   -1    0    0  502  501  0.00000000000E+00  0.00000000000E+00  0.69342882575E+02  0.69342882575E+02  0.00000000000E+00 0.  1.
         21   -1    0    0  501  502 -0.00000000000E+00 -0.00000000000E+00 -0.56331988651E+02  0.56331988651E+02  0.00000000000E+00 0.  1.
         25    2    1    2    0    0  0.00000000000E+00  0.00000000000E+00  0.13010893924E+02  0.12567487123E+03  0.12499955959E+03 0.  0.
        -13    1    3    3    0    0  0.52442507383E+01  0.15779450626E+02 -0.54067180576E+02  0.56566460167E+02  0.10570000000E+00 0.  1.
         13    1    3    3    0    0 -0.52442507383E+01 -0.15779450626E+02  0.67078074500E+02  0.69108411058E+02  0.10570000000E+00 0.  1.
<mgrwt>
<rscale>  0 0.12499956E+03</rscale>
<asrwt>0</asrwt>
<pdfrwt beam="1">  1       21 0.10668136E-01 0.12499956E+03</pdfrwt>
<pdfrwt beam="2">  1       21 0.86664598E-02 0.12499956E+03</pdfrwt>
<totfact> 0.73951858E+06</totfact>
</mgrwt>
</event>
<event>
 5    1  0.7934596E-005  0.1249981E+03  0.7818608E-02  0.1235072E+00
         21   -1    0    0  502  501  0.00000000000E+00  0.00000000000E+00  0.31865614832E+02  0.31865614832E+02  0.00000000000E+00 0.  1.
         21   -1    0    0  501  502 -0.00000000000E+00 -0.00000000000E+00 -0.12258133779E+03  0.12258133779E+03  0.00000000000E+00 0.  1.
         25    2    1    2    0    0  0.00000000000E+00  0.00000000000E+00 -0.90715722961E+02  0.15444695262E+03  0.12499807512E+03 0.  0.
        -13    1    3    3    0    0 -0.23704016115E+02 -0.57634691942E+02 -0.39499471137E+02  0.73782501231E+02  0.10570000000E+00 0. -1.
         13    1    3    3    0    0  0.23704016115E+02  0.57634691942E+02 -0.51216251823E+02  0.80664451393E+02  0.10570000000E+00 0. -1.
<mgrwt>
<rscale>  0 0.12499808E+03</rscale>
<asrwt>0</asrwt>
<pdfrwt beam="1">  1       21 0.49024024E-02 0.12499808E+03</pdfrwt>
<pdfrwt beam="2">  1       21 0.18858667E-01 0.12499808E+03</pdfrwt>
<totfact> 0.70207898E+06</totfact>
</mgrwt>
</event>
<event>
 5    1  0.7934596E-005  0.1249983E+03  0.7818608E-02  0.1235072E+00
         21   -1    0    0  502  501  0.00000000000E+00  0.00000000000E+00  0.81601390307E+02  0.81601390307E+02  0.00000000000E+00 0. -1.
         21   -1    0    0  501  502 -0.00000000000E+00 -0.00000000000E+00 -0.47868611437E+02  0.47868611437E+02  0.00000000000E+00 0. -1.
         25    2    1    2    0    0  0.00000000000E+00  0.00000000000E+00  0.33732778870E+02  0.12947000174E+03  0.12499832391E+03 0.  0.
        -13    1    3    3    0    0 -0.26723224380E+00 -0.51920518513E+02 -0.19167861852E+02  0.55346452065E+02  0.10570000000E+00 0. -1.
         13    1    3    3    0    0  0.26723224380E+00  0.51920518513E+02  0.52900640722E+02  0.74123549679E+02  0.10570000000E+00 0. -1.
<mgrwt>
<rscale>  0 0.12499832E+03</rscale>
<asrwt>0</asrwt>
<pdfrwt beam="1">  1       21 0.12554060E-01 0.12499832E+03</pdfrwt>
<pdfrwt beam="2">  1       21 0.73644018E-02 0.12499832E+03</pdfrwt>
<totfact> 0.73438978E+06</totfact>
</mgrwt>
</event>
<event>
 4    1  0.7934596E-005  0.1251614E+03  0.7818608E-02  0.1234817E+00
         21   -1    0    0  502  501  0.00000000000E+00  0.00000000000E+00  0.23201002847E+03  0.23201002847E+03  0.00000000000E+00 0. -1.
         21   -1    0    0  501  502 -0.00000000000E+00 -0.00000000000E+00 -0.16880061186E+02  0.16880061186E+02  0.00000000000E+00 0. -1.
        -13    1    1    2    0    0  0.32360189043E+02 -0.24852052352E+02  0.13207641063E+02  0.42886586434E+02  0.10570000000E+00 0.  1.
         13    1    1    2    0    0 -0.32360189043E+02  0.24852052352E+02  0.20192232622E+03  0.20600350322E+03  0.10570000000E+00 0.  1.
<mgrwt>
<rscale>  0 0.12516139E+03</rscale>
<asrwt>0</asrwt>
<pdfrwt beam="1">  1       21 0.35693848E-01 0.12516139E+03</pdfrwt>
<pdfrwt beam="2">  1       21 0.25969327E-02 0.12516139E+03</pdfrwt>
<totfact> 0.59739433E+06</totfact>
</mgrwt>
</event>
<event>
 5    1  0.7934596E-005  0.1249990E+03  0.7818608E-02  0.1235071E+00
         21   -1    0    0  502  501  0.00000000000E+00  0.00000000000E+00  0.64736787157E+02  0.64736787157E+02  0.00000000000E+00 0. -1.
         21   -1    0    0  501  502 -0.00000000000E+00 -0.00000000000E+00 -0.60339519239E+02  0.60339519239E+02  0.00000000000E+00 0. -1.
         25    2    1    2    0    0  0.00000000000E+00  0.00000000000E+00  0.43972679175E+01  0.12507630640E+03  0.12499898582E+03 0.  0.
        -13    1    3    3    0    0  0.59221624504E+02 -0.17045585831E+02 -0.82204260650E+01  0.62171853619E+02  0.10570000000E+00 0. -1.
         13    1    3    3    0    0 -0.59221624504E+02  0.17045585831E+02  0.12617693982E+02  0.62904452777E+02  0.10570000000E+00 0. -1.
<mgrwt>
<rscale>  0 0.12499899E+03</rscale>
<asrwt>0</asrwt>
<pdfrwt beam="1">  1       21 0.99595056E-02 0.12499899E+03</pdfrwt>
<pdfrwt beam="2">  1       21 0.92830030E-02 0.12499899E+03</pdfrwt>
<totfact> 0.74035195E+06</totfact>
</mgrwt>
</event>
