<event>
 5    1  0.2989269E-047  0.1249994E+03  0.7818608E-02  0.1235070E+00
         -3   -1    0    0    0  501 -0.00000000000E+00  0.00000000000E+00  0.24754734643E+02  0.24754909337E+02  0.93000000000E-01 0.  1.
          3   -1    0    0  501    0  0.00000000000E+00 -0.00000000000E+00 -0.15779592891E+03  0.15779595632E+03  0.93000000000E-01 0. -1.
         25    2    1    2    0    0  0.00000000000E+00  0.00000000000E+00 -0.13304119427E+03  0.18255086565E+03  0.12499943671E+03 0.  0.
        -13    1    3    3    0    0  0.24165746311E+02 -0.56710895000E+02 -0.81563190552E+02  0.10223832027E+03  0.10570000000E+00 0. -1.
         13    1    3    3    0    0 -0.24165746311E+02  0.56710895000E+02 -0.51478003714E+02  0.80312545380E+02  0.10570000000E+00 0.  1.
<mgrwt>
<rscale>  0 0.12499944E+03</rscale>
<asrwt>0</asrwt>
<pdfrwt beam="2">  1        3 0.24276312E-01 0.12499944E+03</pdfrwt>
<pdfrwt beam="1">  1       -3 0.38084364E-02 0.12499944E+03</pdfrwt>
<totfact> 0.12337692E+04</totfact>
</mgrwt>
</event>
<event>
 5    1  0.2989269E-047  0.1249998E+03  0.7818608E-02  0.1235070E+00
         -3   -1    0    0    0  501 -0.00000000000E+00  0.00000000000E+00  0.77118623687E+02  0.77118679763E+02  0.93000000000E-01 0.  1.
          3   -1    0    0  501    0  0.00000000000E+00 -0.00000000000E+00 -0.50652245893E+02  0.50652331269E+02  0.93000000000E-01 0. -1.
         25    2    1    2    0    0  0.00000000000E+00  0.00000000000E+00  0.26466377794E+02  0.12777101103E+03  0.12499984843E+03 0.  0.
        -13    1    3    3    0    0  0.36138270373E+01 -0.54951998317E+02  0.43442529468E+02  0.70143042448E+02  0.10570000000E+00 0.  1.
         13    1    3    3    0    0 -0.36138270373E+01  0.54951998317E+02 -0.16976151674E+02  0.57627968583E+02  0.10570000000E+00 0. -1.
<mgrwt>
<rscale>  0 0.12499985E+03</rscale>
<asrwt>0</asrwt>
<pdfrwt beam="2">  1        3 0.77926641E-02 0.12499985E+03</pdfrwt>
<pdfrwt beam="1">  1       -3 0.11864414E-01 0.12499985E+03</pdfrwt>
<totfact> 0.13662597E+04</totfact>
</mgrwt>
</event>
<event>
 5    1  0.2989269E-047  0.1249985E+03  0.7818608E-02  0.1235072E+00
          3   -1    0    0  501    0  0.00000000000E+00  0.00000000000E+00  0.27686737909E+03  0.27686739471E+03  0.93000000000E-01 0. -1.
         -3   -1    0    0    0  501 -0.00000000000E+00 -0.00000000000E+00 -0.14108234887E+02  0.14108541407E+02  0.93000000000E-01 0.  1.
         25    2    1    2    0    0  0.00000000000E+00  0.00000000000E+00  0.26275914420E+03  0.29097593612E+03  0.12499851014E+03 0.  0.
        -13    1    3    3    0    0 -0.42499417290E+02  0.45631001022E+02  0.12157029777E+03  0.13662992789E+03  0.10570000000E+00 0.  1.
         13    1    3    3    0    0  0.42499417290E+02 -0.45631001022E+02  0.14118884644E+03  0.15434600822E+03  0.10570000000E+00 0. -1.
<mgrwt>
<rscale>  0 0.12499851E+03</rscale>
<asrwt>0</asrwt>
<pdfrwt beam="1">  1        3 0.42595007E-01 0.12499851E+03</pdfrwt>
<pdfrwt beam="2">  1       -3 0.21705224E-02 0.12499851E+03</pdfrwt>
<totfact> 0.10282288E+04</totfact>
</mgrwt>
</event>
<event>
 5    1  0.2989269E-047  0.1250009E+03  0.7818608E-02  0.1235068E+00
         -3   -1    0    0    0  501 -0.00000000000E+00  0.00000000000E+00  0.44520805148E+02  0.44520902282E+02  0.93000000000E-01 0.  1.
          3   -1    0    0  501    0  0.00000000000E+00 -0.00000000000E+00 -0.87740875211E+02  0.87740924498E+02  0.93000000000E-01 0. -1.
         25    2    1    2    0    0  0.00000000000E+00  0.00000000000E+00 -0.43220070063E+02  0.13226182678E+03  0.12500086547E+03 0.  0.
        -13    1    3    3    0    0 -0.83049978893E+01 -0.61003095605E+02 -0.10216922946E+02  0.62407910960E+02  0.10570000000E+00 0.  1.
         13    1    3    3    0    0  0.83049978893E+01  0.61003095605E+02 -0.33003147117E+02  0.69853915821E+02  0.10570000000E+00 0. -1.
<mgrwt>
<rscale>  0 0.12500087E+03</rscale>
<asrwt>0</asrwt>
<pdfrwt beam="2">  1        3 0.13498607E-01 0.12500087E+03</pdfrwt>
<pdfrwt beam="1">  1       -3 0.68493659E-02 0.12500087E+03</pdfrwt>
<totfact> 0.13544235E+04</totfact>
</mgrwt>
</event>
<event>
 5    1  0.2989269E-047  0.1249997E+03  0.7818608E-02  0.1235070E+00
          3   -1    0    0  501    0  0.00000000000E+00  0.00000000000E+00  0.38224076786E+02  0.38224189921E+02  0.93000000000E-01 0. -1.
         -3   -1    0    0    0  501 -0.00000000000E+00 -0.00000000000E+00 -0.10219264251E+03  0.10219268482E+03  0.93000000000E-01 0.  1.
         25    2    1    2    0    0  0.00000000000E+00  0.00000000000E+00 -0.63968565720E+02  0.14041687474E+03  0.12499968525E+03 0.  0.
        -13    1    3    3    0    0  0.44116377565E+02 -0.23105478576E+02  0.10437172411E+02  0.50882842394E+02  0.10570000000E+00 0. -1.
         13    1    3    3    0    0 -0.44116377565E+02  0.23105478576E+02 -0.74405738131E+02  0.89534032351E+02  0.10570000000E+00 0.  1.
<mgrwt>
<rscale>  0 0.12499969E+03</rscale>
<asrwt>0</asrwt>
<pdfrwt beam="1">  1        3 0.58806392E-02 0.12499969E+03</pdfrwt>
<pdfrwt beam="2">  1       -3 0.15721957E-01 0.12499969E+03</pdfrwt>
<totfact> 0.13334953E+04</totfact>
</mgrwt>
</event>
<event>
 5    1  0.2989269E-047  0.1250141E+03  0.7818608E-02  0.1235047E+00
         -3   -1    0    0    0  501 -0.00000000000E+00  0.00000000000E+00  0.48027196974E+02  0.48027287017E+02  0.93000000000E-01 0.  1.
          3   -1    0    0  501    0  0.00000000000E+00 -0.00000000000E+00 -0.81352313963E+02  0.81352367121E+02  0.93000000000E-01 0. -1.
         25    2    1    2    0    0  0.00000000000E+00  0.00000000000E+00 -0.33325116989E+02  0.12937965414E+03  0.12501412513E+03 0.  0.
        -13    1    3    3    0    0  0.77506913947E+01  0.39639383992E+02  0.32708321265E+02  0.51973064493E+02  0.10570000000E+00 0.  1.
         13    1    3    3    0    0 -0.77506913947E+01 -0.39639383992E+02 -0.66033438253E+02  0.77406589645E+02  0.10570000000E+00 0. -1.
<mgrwt>
<rscale>  0 0.12501413E+03</rscale>
<asrwt>0</asrwt>
<pdfrwt beam="2">  1        3 0.12515752E-01 0.12501413E+03</pdfrwt>
<pdfrwt beam="1">  1       -3 0.73888106E-02 0.12501413E+03</pdfrwt>
<totfact> 0.13615688E+04</totfact>
</mgrwt>
</event>
<event>
 5    1  0.2989269E-047  0.1249999E+03  0.7818608E-02  0.1235069E+00
         -3   -1    0    0    0  501 -0.00000000000E+00  0.00000000000E+00  0.28326180561E+02  0.28326333228E+02  0.93000000000E-01 0.  1.
          3   -1    0    0  501    0  0.00000000000E+00 -0.00000000000E+00 -0.13790176190E+03  0.13790179325E+03  0.93000000000E-01 0. -1.
         25    2    1    2    0    0  0.00000000000E+00  0.00000000000E+00 -0.10957558133E+03  0.16622812648E+03  0.12499992804E+03 0.  0.
        -13    1    3    3    0    0  0.47785620786E+02  0.34255019867E+02 -0.26597918443E+02  0.64531638581E+02  0.10570000000E+00 0.  1.
         13    1    3    3    0    0 -0.47785620786E+02 -0.34255019867E+02 -0.82977662892E+02  0.10169648790E+03  0.10570000000E+00 0. -1.
<mgrwt>
<rscale>  0 0.12499993E+03</rscale>
<asrwt>0</asrwt>
<pdfrwt beam="2">  1        3 0.21215669E-01 0.12499993E+03</pdfrwt>
<pdfrwt beam="1">  1       -3 0.43578882E-02 0.12499993E+03</pdfrwt>
<totfact> 0.12707876E+04</totfact>
</mgrwt>
</event>
<event>
 5    1  0.2989269E-047  0.1250040E+03  0.7818608E-02  0.1235063E+00
         -3   -1    0    0    0  501 -0.00000000000E+00  0.00000000000E+00  0.45320615266E+03  0.45320616220E+03  0.93000000000E-01 0.  1.
          3   -1    0    0  501    0  0.00000000000E+00 -0.00000000000E+00 -0.86194309698E+01  0.86199326705E+01  0.93000000000E-01 0. -1.
         25    2    1    2    0    0  0.00000000000E+00  0.00000000000E+00  0.44458672169E+03  0.46182609487E+03  0.12500395515E+03 0.  0.
        -13    1    3    3    0    0  0.34425074472E+02  0.51614388552E+02  0.25027292852E+03  0.25784817389E+03  0.10570000000E+00 0.  1.
         13    1    3    3    0    0 -0.34425074472E+02 -0.51614388552E+02  0.19431379317E+03  0.20397792098E+03  0.10570000000E+00 0. -1.
<mgrwt>
<rscale>  0 0.12500396E+03</rscale>
<asrwt>0</asrwt>
<pdfrwt beam="2">  1        3 0.13261054E-02 0.12500396E+03</pdfrwt>
<pdfrwt beam="1">  1       -3 0.69724077E-01 0.12500396E+03</pdfrwt>
<totfact> 0.79915908E+03</totfact>
</mgrwt>
</event>
<event>
 5    1  0.2989269E-047  0.1250053E+03  0.7818608E-02  0.1235061E+00
          3   -1    0    0  501    0  0.00000000000E+00  0.00000000000E+00  0.27015426685E+02  0.27015586760E+02  0.93000000000E-01 0. -1.
         -3   -1    0    0    0  501 -0.00000000000E+00 -0.00000000000E+00 -0.14460499931E+03  0.14460502921E+03  0.93000000000E-01 0.  1.
         25    2    1    2    0    0  0.00000000000E+00  0.00000000000E+00 -0.11758957262E+03  0.17162061597E+03  0.12500531284E+03 0.  0.
        -13    1    3    3    0    0 -0.58996537366E+02 -0.18741941749E+02 -0.46927354144E+02  0.77679080460E+02  0.10570000000E+00 0.  1.
         13    1    3    3    0    0  0.58996537366E+02  0.18741941749E+02 -0.70662218477E+02  0.93941535512E+02  0.10570000000E+00 0. -1.
<mgrwt>
<rscale>  0 0.12500531E+03</rscale>
<asrwt>0</asrwt>
<pdfrwt beam="1">  1        3 0.41562342E-02 0.12500531E+03</pdfrwt>
<pdfrwt beam="2">  1       -3 0.22246937E-01 0.12500531E+03</pdfrwt>
<totfact> 0.12581738E+04</totfact>
</mgrwt>
</event>
<event>
 5    1  0.2989269E-047  0.1249950E+03  0.7818608E-02  0.1235077E+00
         -3   -1    0    0    0  501 -0.00000000000E+00  0.00000000000E+00  0.42484860545E+02  0.42484962334E+02  0.93000000000E-01 0.  1.
          3   -1    0    0  501    0  0.00000000000E+00 -0.00000000000E+00 -0.91936996920E+02  0.91937043957E+02  0.93000000000E-01 0. -1.
         25    2    1    2    0    0  0.00000000000E+00  0.00000000000E+00 -0.49452136375E+02  0.13442200629E+03  0.12499504783E+03 0.  0.
        -13    1    3    3    0    0 -0.59274676597E+02  0.16350136722E+02 -0.36755147051E+02  0.71636347364E+02  0.10570000000E+00 0. -1.
         13    1    3    3    0    0  0.59274676597E+02 -0.16350136722E+02 -0.12696989324E+02  0.62785658927E+02  0.10570000000E+00 0.  1.
<mgrwt>
<rscale>  0 0.12499505E+03</rscale>
<asrwt>0</asrwt>
<pdfrwt beam="2">  1        3 0.14144165E-01 0.12499505E+03</pdfrwt>
<pdfrwt beam="1">  1       -3 0.65361439E-02 0.12499505E+03</pdfrwt>
<totfact> 0.13489837E+04</totfact>
</mgrwt>
</event>
<event>
 5    1  0.2989269E-047  0.1249975E+03  0.7818608E-02  0.1235073E+00
          3   -1    0    0  501    0  0.00000000000E+00  0.00000000000E+00  0.14040102733E+02  0.14040410741E+02  0.93000000000E-01 0. -1.
         -3   -1    0    0    0  501 -0.00000000000E+00 -0.00000000000E+00 -0.27820619913E+03  0.27820621467E+03  0.93000000000E-01 0.  1.
         25    2    1    2    0    0  0.00000000000E+00  0.00000000000E+00 -0.26416609639E+03  0.29224662541E+03  0.12499745430E+03 0.  0.
        -13    1    3    3    0    0 -0.12933531672E+02 -0.49138538540E+02 -0.21716282861E+03  0.22302819892E+03  0.10570000000E+00 0.  1.
         13    1    3    3    0    0  0.12933531672E+02  0.49138538540E+02 -0.47003267789E+02  0.69218426497E+02  0.10570000000E+00 0. -1.
<mgrwt>
<rscale>  0 0.12499745E+03</rscale>
<asrwt>0</asrwt>
<pdfrwt beam="1">  1        3 0.21600409E-02 0.12499745E+03</pdfrwt>
<pdfrwt beam="2">  1       -3 0.42800974E-01 0.12499745E+03</pdfrwt>
<totfact> 0.10258716E+04</totfact>
</mgrwt>
</event>
<event>
 5    1  0.2989269E-047  0.1249967E+03  0.7818608E-02  0.1235074E+00
          3   -1    0    0  501    0  0.00000000000E+00  0.00000000000E+00  0.70484713238E+03  0.70484713851E+03  0.93000000000E-01 0. -1.
         -3   -1    0    0    0  501 -0.00000000000E+00 -0.00000000000E+00 -0.55412927186E+01  0.55420730772E+01  0.93000000000E-01 0.  1.
         25    2    1    2    0    0  0.00000000000E+00  0.00000000000E+00  0.69930583966E+03  0.71038921159E+03  0.12499669821E+03 0.  0.
        -13    1    3    3    0    0  0.39650516223E+02  0.48135400991E+02  0.32632230656E+03  0.33222799280E+03  0.10570000000E+00 0. -1.
         13    1    3    3    0    0 -0.39650516223E+02 -0.48135400991E+02  0.37298353310E+03  0.37816121879E+03  0.10570000000E+00 0.  1.
<mgrwt>
<rscale>  0 0.12499670E+03</rscale>
<asrwt>0</asrwt>
<pdfrwt beam="1">  1        3 0.10843814E+00 0.12499670E+03</pdfrwt>
<pdfrwt beam="2">  1       -3 0.85256663E-03 0.12499670E+03</pdfrwt>
<totfact> 0.58511224E+03</totfact>
</mgrwt>
</event>
<event>
 5    1  0.2989269E-047  0.1250008E+03  0.7818608E-02  0.1235068E+00
          3   -1    0    0  501    0  0.00000000000E+00  0.00000000000E+00  0.71843885216E+02  0.71843945409E+02  0.93000000000E-01 0. -1.
         -3   -1    0    0    0  501 -0.00000000000E+00 -0.00000000000E+00 -0.54371947869E+02  0.54372027404E+02  0.93000000000E-01 0.  1.
         25    2    1    2    0    0  0.00000000000E+00  0.00000000000E+00  0.17471937347E+02  0.12621597281E+03  0.12500081279E+03 0.  0.
        -13    1    3    3    0    0 -0.16878476785E+02 -0.38025899286E+02 -0.38359031250E+02  0.56588677719E+02  0.10570000000E+00 0.  1.
         13    1    3    3    0    0  0.16878476785E+02  0.38025899286E+02  0.55830968597E+02  0.69627295094E+02  0.10570000000E+00 0. -1.
<mgrwt>
<rscale>  0 0.12500081E+03</rscale>
<asrwt>0</asrwt>
<pdfrwt beam="1">  1        3 0.11052916E-01 0.12500081E+03</pdfrwt>
<pdfrwt beam="2">  1       -3 0.83649259E-02 0.12500081E+03</pdfrwt>
<totfact> 0.13703535E+04</totfact>
</mgrwt>
</event>
<event>
 5    1  0.2989269E-047  0.1250021E+03  0.7818608E-02  0.1235066E+00
         -3   -1    0    0    0  501 -0.00000000000E+00  0.00000000000E+00  0.70717467627E+02  0.70717528779E+02  0.93000000000E-01 0.  1.
          3   -1    0    0  501    0  0.00000000000E+00 -0.00000000000E+00 -0.55239102722E+02  0.55239181009E+02  0.93000000000E-01 0. -1.
         25    2    1    2    0    0  0.00000000000E+00  0.00000000000E+00  0.15478364905E+02  0.12595670979E+03  0.12500205183E+03 0.  0.
        -13    1    3    3    0    0 -0.38847468026E+02  0.48325187035E+02 -0.18968577974E+00  0.62004004929E+02  0.10570000000E+00 0.  1.
         13    1    3    3    0    0  0.38847468026E+02 -0.48325187035E+02  0.15668050685E+02  0.63952704859E+02  0.10570000000E+00 0. -1.
<mgrwt>
<rscale>  0 0.12500205E+03</rscale>
<asrwt>0</asrwt>
<pdfrwt beam="2">  1        3 0.84983343E-02 0.12500205E+03</pdfrwt>
<pdfrwt beam="1">  1       -3 0.10879621E-01 0.12500205E+03</pdfrwt>
<totfact> 0.13710187E+04</totfact>
</mgrwt>
</event>
<event>
 5    1  0.2989269E-047  0.1250009E+03  0.7818608E-02  0.1235068E+00
          3   -1    0    0  501    0  0.00000000000E+00  0.00000000000E+00  0.73738954648E+01  0.73744819022E+01  0.93000000000E-01 0. -1.
         -3   -1    0    0    0  501 -0.00000000000E+00 -0.00000000000E+00 -0.52972592292E+03  0.52972593108E+03  0.93000000000E-01 0.  1.
         25    2    1    2    0    0  0.00000000000E+00  0.00000000000E+00 -0.52235202746E+03  0.53710041299E+03  0.12500085217E+03 0.  0.
        -13    1    3    3    0    0 -0.51481845709E+02 -0.33724683087E+02 -0.21439099063E+03  0.22304986600E+03  0.10570000000E+00 0.  1.
         13    1    3    3    0    0  0.51481845709E+02  0.33724683087E+02 -0.30796103683E+03  0.31405054699E+03  0.10570000000E+00 0. -1.
<mgrwt>
<rscale>  0 0.12500085E+03</rscale>
<asrwt>0</asrwt>
<pdfrwt beam="1">  1        3 0.11344916E-02 0.12500085E+03</pdfrwt>
<pdfrwt beam="2">  1       -3 0.81496312E-01 0.12500085E+03</pdfrwt>
<totfact> 0.72274002E+03</totfact>
</mgrwt>
</event>
<event>
 5    1  0.2989269E-047  0.1249924E+03  0.7818608E-02  0.1235081E+00
         -3   -1    0    0    0  501 -0.00000000000E+00  0.00000000000E+00  0.30648186822E+02  0.30648327923E+02  0.93000000000E-01 0.  1.
          3   -1    0    0  501    0  0.00000000000E+00 -0.00000000000E+00 -0.12743853180E+03  0.12743856573E+03  0.93000000000E-01 0. -1.
         25    2    1    2    0    0  0.00000000000E+00  0.00000000000E+00 -0.96790344979E+02  0.15808689366E+03  0.12499238003E+03 0.  0.
        -13    1    3    3    0    0 -0.76570814387E+01 -0.49026270295E+02 -0.34120787900E+00  0.49621907163E+02  0.10570000000E+00 0.  1.
         13    1    3    3    0    0  0.76570814387E+01  0.49026270295E+02 -0.96449137100E+02  0.10846498649E+03  0.10570000000E+00 0. -1.
<mgrwt>
<rscale>  0 0.12499238E+03</rscale>
<asrwt>0</asrwt>
<pdfrwt beam="2">  1        3 0.19605941E-01 0.12499238E+03</pdfrwt>
<pdfrwt beam="1">  1       -3 0.47151192E-02 0.12499238E+03</pdfrwt>
<totfact> 0.12902114E+04</totfact>
</mgrwt>
</event>
<event>
 5    1  0.2989269E-047  0.1250009E+03  0.7818608E-02  0.1235068E+00
          3   -1    0    0  501    0  0.00000000000E+00  0.00000000000E+00  0.16998197046E+03  0.16998199590E+03  0.93000000000E-01 0. -1.
         -3   -1    0    0    0  501 -0.00000000000E+00 -0.00000000000E+00 -0.22980571022E+02  0.22980759202E+02  0.93000000000E-01 0.  1.
         25    2    1    2    0    0  0.00000000000E+00  0.00000000000E+00  0.14700139943E+03  0.19296275510E+03  0.12500085368E+03 0.  0.
        -13    1    3    3    0    0 -0.57354369744E+02 -0.23376335639E+02  0.60556187352E+02  0.86620088869E+02  0.10570000000E+00 0.  1.
         13    1    3    3    0    0  0.57354369744E+02  0.23376335639E+02  0.86445212082E+02  0.10634266623E+03  0.10570000000E+00 0. -1.
<mgrwt>
<rscale>  0 0.12500085E+03</rscale>
<asrwt>0</asrwt>
<pdfrwt beam="1">  1        3 0.26151089E-01 0.12500085E+03</pdfrwt>
<pdfrwt beam="2">  1       -3 0.35354888E-02 0.12500085E+03</pdfrwt>
<totfact> 0.12110960E+04</totfact>
</mgrwt>
</event>
<event>
 5    1  0.2989269E-047  0.1250001E+03  0.7818608E-02  0.1235069E+00
          3   -1    0    0  501    0  0.00000000000E+00  0.00000000000E+00  0.15557541807E+03  0.15557544587E+03  0.93000000000E-01 0. -1.
         -3   -1    0    0    0  501 -0.00000000000E+00 -0.00000000000E+00 -0.25108321220E+02  0.25108493453E+02  0.93000000000E-01 0.  1.
         25    2    1    2    0    0  0.00000000000E+00  0.00000000000E+00  0.13046709685E+03  0.18068393932E+03  0.12500009027E+03 0.  0.
        -13    1    3    3    0    0  0.41079439897E+02  0.35663170996E+02  0.20754791474E+02  0.58225034903E+02  0.10570000000E+00 0.  1.
         13    1    3    3    0    0 -0.41079439897E+02 -0.35663170996E+02  0.10971230537E+03  0.12245890442E+03  0.10570000000E+00 0. -1.
<mgrwt>
<rscale>  0 0.12500009E+03</rscale>
<asrwt>0</asrwt>
<pdfrwt beam="1">  1        3 0.23934695E-01 0.12500009E+03</pdfrwt>
<pdfrwt beam="2">  1       -3 0.38628340E-02 0.12500009E+03</pdfrwt>
<totfact> 0.12378892E+04</totfact>
</mgrwt>
</event>
<event>
 5    1  0.2989269E-047  0.1250005E+03  0.7818608E-02  0.1235068E+00
          3   -1    0    0  501    0  0.00000000000E+00  0.00000000000E+00  0.31586318226E+02  0.31586455136E+02  0.93000000000E-01 0.  1.
         -3   -1    0    0    0  501 -0.00000000000E+00 -0.00000000000E+00 -0.12366969402E+03  0.12366972899E+03  0.93000000000E-01 0. -1.
         25    2    1    2    0    0  0.00000000000E+00  0.00000000000E+00 -0.92083375797E+02  0.15525618413E+03  0.12500053845E+03 0.  0.
        -13    1    3    3    0    0 -0.98621353894E+01  0.56796918173E+02 -0.76034439453E+02  0.95416973248E+02  0.10570000000E+00 0. -1.
         13    1    3    3    0    0  0.98621353894E+01 -0.56796918173E+02 -0.16048936344E+02  0.59839210880E+02  0.10570000000E+00 0.  1.
<mgrwt>
<rscale>  0 0.12500054E+03</rscale>
<asrwt>0</asrwt>
<pdfrwt beam="1">  1        3 0.48594469E-02 0.12500054E+03</pdfrwt>
<pdfrwt beam="2">  1       -3 0.19026120E-01 0.12500054E+03</pdfrwt>
<totfact> 0.12967840E+04</totfact>
</mgrwt>
</event>
<event>
 5    1  0.2989269E-047  0.1250037E+03  0.7818608E-02  0.1235063E+00
         -3   -1    0    0    0  501 -0.00000000000E+00  0.00000000000E+00  0.15715748896E+03  0.15715751648E+03  0.93000000000E-01 0. -1.
          3   -1    0    0  501    0  0.00000000000E+00 -0.00000000000E+00 -0.24856997702E+02  0.24857171677E+02  0.93000000000E-01 0.  1.
         25    2    1    2    0    0  0.00000000000E+00  0.00000000000E+00  0.13230049126E+03  0.18201468815E+03  0.12500370681E+03 0.  0.
        -13    1    3    3    0    0  0.53891578482E+02 -0.12167583606E+02  0.10870445524E+03  0.12193859965E+03  0.10570000000E+00 0. -1.
         13    1    3    3    0    0 -0.53891578482E+02  0.12167583606E+02  0.23596036017E+02  0.60076088507E+02  0.10570000000E+00 0.  1.
<mgrwt>
<rscale>  0 0.12500371E+03</rscale>
<asrwt>0</asrwt>
<pdfrwt beam="2">  1        3 0.38241690E-02 0.12500371E+03</pdfrwt>
<pdfrwt beam="1">  1       -3 0.24178091E-01 0.12500371E+03</pdfrwt>
<totfact> 0.12348017E+04</totfact>
</mgrwt>
</event>
<event>
 5    1  0.2989269E-047  0.1249993E+03  0.7818608E-02  0.1235070E+00
         -3   -1    0    0    0  501 -0.00000000000E+00  0.00000000000E+00  0.10202381035E+03  0.10202385273E+03  0.93000000000E-01 0.  1.
          3   -1    0    0  501    0  0.00000000000E+00 -0.00000000000E+00 -0.38287113791E+02  0.38287226740E+02  0.93000000000E-01 0. -1.
         25    2    1    2    0    0  0.00000000000E+00  0.00000000000E+00  0.63736696557E+02  0.14031107947E+03  0.12499933014E+03 0.  0.
        -13    1    3    3    0    0  0.36174021514E+02  0.37024504834E+02  0.71184885902E+02  0.88015185872E+02  0.10570000000E+00 0.  1.
         13    1    3    3    0    0 -0.36174021514E+02 -0.37024504834E+02 -0.74481893453E+01  0.52295893603E+02  0.10570000000E+00 0. -1.
<mgrwt>
<rscale>  0 0.12499933E+03</rscale>
<asrwt>0</asrwt>
<pdfrwt beam="2">  1        3 0.58903372E-02 0.12499933E+03</pdfrwt>
<pdfrwt beam="1">  1       -3 0.15695983E-01 0.12499933E+03</pdfrwt>
<totfact> 0.13337747E+04</totfact>
</mgrwt>
</event>
<event>
 5    1  0.2989269E-047  0.1250026E+03  0.7818608E-02  0.1235065E+00
          3   -1    0    0  501    0  0.00000000000E+00  0.00000000000E+00  0.74673446046E+01  0.74679237037E+01  0.93000000000E-01 0. -1.
         -3   -1    0    0    0  501 -0.00000000000E+00 -0.00000000000E+00 -0.52311204971E+03  0.52311205798E+03  0.93000000000E-01 0.  1.
         25    2    1    2    0    0  0.00000000000E+00  0.00000000000E+00 -0.51564470511E+03  0.53057998169E+03  0.12500262020E+03 0.  0.
        -13    1    3    3    0    0 -0.55525522116E+02 -0.19219465670E+02 -0.16738939694E+03  0.17740262920E+03  0.10570000000E+00 0.  1.
         13    1    3    3    0    0  0.55525522116E+02  0.19219465670E+02 -0.34825530817E+03  0.35317735248E+03  0.10570000000E+00 0. -1.
<mgrwt>
<rscale>  0 0.12500262E+03</rscale>
<asrwt>0</asrwt>
<pdfrwt beam="1">  1        3 0.11488678E-02 0.12500262E+03</pdfrwt>
<pdfrwt beam="2">  1       -3 0.80478793E-01 0.12500262E+03</pdfrwt>
<totfact> 0.72888107E+03</totfact>
</mgrwt>
</event>
<event>
 5    1  0.2989269E-047  0.1250109E+03  0.7818608E-02  0.1235052E+00
         -3   -1    0    0    0  501 -0.00000000000E+00  0.00000000000E+00  0.10163901380E+03  0.10163905635E+03  0.93000000000E-01 0.  1.
          3   -1    0    0  501    0  0.00000000000E+00 -0.00000000000E+00 -0.38439207941E+02  0.38439320443E+02  0.93000000000E-01 0. -1.
         25    2    1    2    0    0  0.00000000000E+00  0.00000000000E+00  0.63199805862E+02  0.14007837679E+03  0.12501094426E+03 0.  0.
        -13    1    3    3    0    0 -0.59446840447E+01 -0.61354331060E+02  0.19996629131E+02  0.64804085961E+02  0.10570000000E+00 0.  1.
         13    1    3    3    0    0  0.59446840447E+01  0.61354331060E+02  0.43203176730E+02  0.75274290832E+02  0.10570000000E+00 0. -1.
<mgrwt>
<rscale>  0 0.12501094E+03</rscale>
<asrwt>0</asrwt>
<pdfrwt beam="2">  1        3 0.59137364E-02 0.12501094E+03</pdfrwt>
<pdfrwt beam="1">  1       -3 0.15636783E-01 0.12501094E+03</pdfrwt>
<totfact> 0.13340170E+04</totfact>
</mgrwt>
</event>
<event>
 5    1  0.2989269E-047  0.1250093E+03  0.7818608E-02  0.1235055E+00
         -3   -1    0    0    0  501 -0.00000000000E+00  0.00000000000E+00  0.10337300829E+03  0.10337305012E+03  0.93000000000E-01 0.  1.
          3   -1    0    0  501    0  0.00000000000E+00 -0.00000000000E+00 -0.37793428476E+02  0.37793542901E+02  0.93000000000E-01 0. -1.
         25    2    1    2    0    0  0.00000000000E+00  0.00000000000E+00  0.65579579814E+02  0.14116659302E+03  0.12500930244E+03 0.  0.
        -13    1    3    3    0    0 -0.41599889069E+02  0.33100616304E+02 -0.43317374810E+01  0.53338322925E+02  0.10570000000E+00 0.  1.
         13    1    3    3    0    0  0.41599889069E+02 -0.33100616304E+02  0.69911317295E+02  0.87828270100E+02  0.10570000000E+00 0. -1.
<mgrwt>
<rscale>  0 0.12500930E+03</rscale>
<asrwt>0</asrwt>
<pdfrwt beam="2">  1        3 0.58143856E-02 0.12500930E+03</pdfrwt>
<pdfrwt beam="1">  1       -3 0.15903552E-01 0.12500930E+03</pdfrwt>
<totfact> 0.13313057E+04</totfact>
</mgrwt>
</event>
<event>
 5    1  0.2989269E-047  0.1249986E+03  0.7818608E-02  0.1235072E+00
         -3   -1    0    0    0  501 -0.00000000000E+00  0.00000000000E+00  0.73376348625E+01  0.73382241977E+01  0.93000000000E-01 0. -1.
          3   -1    0    0  501    0  0.00000000000E+00 -0.00000000000E+00 -0.53232392126E+03  0.53232392938E+03  0.93000000000E-01 0.  1.
         25    2    1    2    0    0  0.00000000000E+00  0.00000000000E+00 -0.52498628639E+03  0.53966215358E+03  0.12499855640E+03 0.  0.
        -13    1    3    3    0    0 -0.87414794200E+00  0.62176289163E+02 -0.28962502810E+03  0.29622512240E+03  0.10570000000E+00 0. -1.
         13    1    3    3    0    0  0.87414794200E+00 -0.62176289163E+02 -0.23536125830E+03  0.24343703118E+03  0.10570000000E+00 0.  1.
<mgrwt>
<rscale>  0 0.12499856E+03</rscale>
<asrwt>0</asrwt>
<pdfrwt beam="2">  1        3 0.81896004E-01 0.12499856E+03</pdfrwt>
<pdfrwt beam="1">  1       -3 0.11289133E-02 0.12499856E+03</pdfrwt>
<totfact> 0.72136389E+03</totfact>
</mgrwt>
</event>
<event>
 5    1  0.2989269E-047  0.1249999E+03  0.7818608E-02  0.1235069E+00
          3   -1    0    0  501    0  0.00000000000E+00  0.00000000000E+00  0.12109561732E+03  0.12109565304E+03  0.93000000000E-01 0. -1.
         -3   -1    0    0    0  501 -0.00000000000E+00 -0.00000000000E+00 -0.32257415344E+02  0.32257549406E+02  0.93000000000E-01 0.  1.
         25    2    1    2    0    0  0.00000000000E+00  0.00000000000E+00  0.88838201980E+02  0.15335320244E+03  0.12499991427E+03 0.  0.
        -13    1    3    3    0    0 -0.45959081327E+02  0.29570556702E+02  0.72161374637E+01  0.55124756620E+02  0.10570000000E+00 0.  1.
         13    1    3    3    0    0  0.45959081327E+02 -0.29570556702E+02  0.81622064516E+02  0.98228445821E+02  0.10570000000E+00 0. -1.
<mgrwt>
<rscale>  0 0.12499991E+03</rscale>
<asrwt>0</asrwt>
<pdfrwt beam="1">  1        3 0.18630108E-01 0.12499991E+03</pdfrwt>
<pdfrwt beam="2">  1       -3 0.49626923E-02 0.12499991E+03</pdfrwt>
<totfact> 0.13014008E+04</totfact>
</mgrwt>
</event>
<event>
 5    1  0.2989269E-047  0.1249984E+03  0.7818608E-02  0.1235072E+00
          3   -1    0    0  501    0  0.00000000000E+00  0.00000000000E+00  0.11504929157E+02  0.11505305034E+02  0.93000000000E-01 0. -1.
         -3   -1    0    0    0  501 -0.00000000000E+00 -0.00000000000E+00 -0.33951384336E+03  0.33951385610E+03  0.93000000000E-01 0.  1.
         25    2    1    2    0    0  0.00000000000E+00  0.00000000000E+00 -0.32800891420E+03  0.35101916113E+03  0.12499841473E+03 0.  0.
        -13    1    3    3    0    0 -0.20180773687E+02 -0.52817474130E+02 -0.23878830172E+03  0.24539114371E+03  0.10570000000E+00 0.  1.
         13    1    3    3    0    0  0.20180773687E+02  0.52817474130E+02 -0.89220612477E+02  0.10562801742E+03  0.10570000000E+00 0. -1.
<mgrwt>
<rscale>  0 0.12499841E+03</rscale>
<asrwt>0</asrwt>
<pdfrwt beam="1">  1        3 0.17700192E-02 0.12499841E+03</pdfrwt>
<pdfrwt beam="2">  1       -3 0.52232921E-01 0.12499841E+03</pdfrwt>
<totfact> 0.93694570E+03</totfact>
</mgrwt>
</event>
<event>
 5    1  0.2989269E-047  0.1249977E+03  0.7818608E-02  0.1235073E+00
         -3   -1    0    0    0  501 -0.00000000000E+00  0.00000000000E+00  0.21696284579E+02  0.21696483898E+02  0.93000000000E-01 0.  1.
          3   -1    0    0  501    0  0.00000000000E+00 -0.00000000000E+00 -0.18003471477E+03  0.18003473879E+03  0.93000000000E-01 0. -1.
         25    2    1    2    0    0  0.00000000000E+00  0.00000000000E+00 -0.15833843019E+03  0.20173122269E+03  0.12499771091E+03 0.  0.
        -13    1    3    3    0    0  0.55082901882E+02  0.59851215305E+01 -0.12583651123E+03  0.13749467804E+03  0.10570000000E+00 0.  1.
         13    1    3    3    0    0 -0.55082901882E+02 -0.59851215305E+01 -0.32501918966E+02  0.64236544649E+02  0.10570000000E+00 0. -1.
<mgrwt>
<rscale>  0 0.12499771E+03</rscale>
<asrwt>0</asrwt>
<pdfrwt beam="2">  1        3 0.27697665E-01 0.12499771E+03</pdfrwt>
<pdfrwt beam="1">  1       -3 0.33379072E-02 0.12499771E+03</pdfrwt>
<totfact> 0.11926650E+04</totfact>
</mgrwt>
</event>
<event>
 5    1  0.4266049E-047  0.1250029E+03  0.7818608E-02  0.1235065E+00
          3   -1    0    0  501    0  0.00000000000E+00  0.00000000000E+00  0.21809018438E+03  0.21809020421E+03  0.93000000000E-01 0. -1.
         -3   -1    0    0    0  501 -0.00000000000E+00 -0.00000000000E+00 -0.17911848488E+02  0.17912089919E+02  0.93000000000E-01 0.  1.
         25    2    1    2    0    0  0.00000000000E+00  0.00000000000E+00  0.20017833590E+03  0.23600229413E+03  0.12500286666E+03 0.  0.
        -13    1    3    3    0    0  0.96075467048E+01  0.60984828087E+02  0.11848736478E+03  0.13360659039E+03  0.10570000000E+00 0.  1.
         13    1    3    3    0    0 -0.96075467048E+01 -0.60984828087E+02  0.81690971118E+02  0.10239570374E+03  0.10570000000E+00 0. -1.
<mgrwt>
<rscale>  0 0.12500287E+03</rscale>
<asrwt>0</asrwt>
<pdfrwt beam="1">  1        3 0.33552356E-01 0.12500287E+03</pdfrwt>
<pdfrwt beam="2">  1       -3 0.27556891E-02 0.12500287E+03</pdfrwt>
<totfact> 0.11245115E+04</totfact>
</mgrwt>
</event>
<event>
 5    1  0.2989269E-047  0.1249786E+03  0.7818608E-02  0.1235103E+00
         -3   -1    0    0    0  501 -0.00000000000E+00  0.00000000000E+00  0.33781327217E+02  0.33781455231E+02  0.93000000000E-01 0.  1.
          3   -1    0    0  501    0  0.00000000000E+00 -0.00000000000E+00 -0.11559336791E+03  0.11559340532E+03  0.93000000000E-01 0. -1.
         25    2    1    2    0    0  0.00000000000E+00  0.00000000000E+00 -0.81812040691E+02  0.14937486055E+03  0.12497855401E+03 0.  0.
        -13    1    3    3    0    0  0.35172229182E+02 -0.48404360809E+02 -0.62447253565E+02  0.86485481447E+02  0.10570000000E+00 0.  1.
         13    1    3    3    0    0 -0.35172229182E+02  0.48404360809E+02 -0.19364787126E+02  0.62889379102E+02  0.10570000000E+00 0. -1.
<mgrwt>
<rscale>  0 0.12497855E+03</rscale>
<asrwt>0</asrwt>
<pdfrwt beam="2">  1        3 0.17783608E-01 0.12497855E+03</pdfrwt>
<pdfrwt beam="1">  1       -3 0.51971400E-02 0.12497855E+03</pdfrwt>
<totfact> 0.13117345E+04</totfact>
</mgrwt>
</event>
<event>
 5    1  0.2989269E-047  0.1249987E+03  0.7818608E-02  0.1235071E+00
         -3   -1    0    0    0  501 -0.00000000000E+00  0.00000000000E+00  0.11701365544E+02  0.11701735110E+02  0.93000000000E-01 0.  1.
          3   -1    0    0  501    0  0.00000000000E+00 -0.00000000000E+00 -0.33381597326E+03  0.33381598621E+03  0.93000000000E-01 0. -1.
         25    2    1    2    0    0  0.00000000000E+00  0.00000000000E+00 -0.32211460771E+03  0.34551772132E+03  0.12499870098E+03 0.  0.
        -13    1    3    3    0    0  0.35302626453E+02 -0.51324765497E+02 -0.17505685218E+03  0.18581017102E+03  0.10570000000E+00 0.  1.
         13    1    3    3    0    0 -0.35302626453E+02  0.51324765497E+02 -0.14705775553E+03  0.15970755030E+03  0.10570000000E+00 0. -1.
<mgrwt>
<rscale>  0 0.12499870E+03</rscale>
<asrwt>0</asrwt>
<pdfrwt beam="2">  1        3 0.51356326E-01 0.12499870E+03</pdfrwt>
<pdfrwt beam="1">  1       -3 0.18002398E-02 0.12499870E+03</pdfrwt>
<totfact> 0.94519820E+03</totfact>
</mgrwt>
</event>
<event>
 5    1  0.2989269E-047  0.1250006E+03  0.7818608E-02  0.1235068E+00
          3   -1    0    0  501    0  0.00000000000E+00  0.00000000000E+00  0.53098232500E+02  0.53098313943E+02  0.93000000000E-01 0.  1.
         -3   -1    0    0    0  501 -0.00000000000E+00 -0.00000000000E+00 -0.73567012240E+02  0.73567071023E+02  0.93000000000E-01 0. -1.
         25    2    1    2    0    0  0.00000000000E+00  0.00000000000E+00 -0.20468779739E+02  0.12666538497E+03  0.12500059522E+03 0.  0.
        -13    1    3    3    0    0 -0.37295157104E+02 -0.13695400219E+02 -0.59124063748E+02  0.71233130053E+02  0.10570000000E+00 0. -1.
         13    1    3    3    0    0  0.37295157104E+02  0.13695400219E+02  0.38655284008E+02  0.55432254914E+02  0.10570000000E+00 0.  1.
<mgrwt>
<rscale>  0 0.12500060E+03</rscale>
<asrwt>0</asrwt>
<pdfrwt beam="1">  1        3 0.81689696E-02 0.12500060E+03</pdfrwt>
<pdfrwt beam="2">  1       -3 0.11318013E-01 0.12500060E+03</pdfrwt>
<totfact> 0.13691701E+04</totfact>
</mgrwt>
</event>
<event>
 5    1  0.2989269E-047  0.1249994E+03  0.7818608E-02  0.1235070E+00
         -3   -1    0    0    0  501 -0.00000000000E+00  0.00000000000E+00  0.43311433433E+02  0.43311533280E+02  0.93000000000E-01 0.  1.
          3   -1    0    0  501    0  0.00000000000E+00 -0.00000000000E+00 -0.90188683298E+02  0.90188731248E+02  0.93000000000E-01 0. -1.
         25    2    1    2    0    0  0.00000000000E+00  0.00000000000E+00 -0.46877249865E+02  0.13350026453E+03  0.12499937629E+03 0.  0.
        -13    1    3    3    0    0  0.61178924838E+02  0.53106707823E+01 -0.11023261060E+02  0.62390604464E+02  0.10570000000E+00 0. -1.
         13    1    3    3    0    0 -0.61178924838E+02 -0.53106707823E+01 -0.35853988805E+02  0.71109660063E+02  0.10570000000E+00 0.  1.
<mgrwt>
<rscale>  0 0.12499938E+03</rscale>
<asrwt>0</asrwt>
<pdfrwt beam="2">  1        3 0.13875193E-01 0.12499938E+03</pdfrwt>
<pdfrwt beam="1">  1       -3 0.66633089E-02 0.12499938E+03</pdfrwt>
<totfact> 0.13512428E+04</totfact>
</mgrwt>
</event>
<event>
 5    1  0.2989269E-047  0.1249752E+03  0.7818608E-02  0.1235108E+00
          3   -1    0    0  501    0  0.00000000000E+00  0.00000000000E+00  0.30265197485E+02  0.30265340371E+02  0.93000000000E-01 0. -1.
         -3   -1    0    0    0  501 -0.00000000000E+00 -0.00000000000E+00 -0.12901570651E+03  0.12901574003E+03  0.93000000000E-01 0.  1.
         25    2    1    2    0    0  0.00000000000E+00  0.00000000000E+00 -0.98750509025E+02  0.15928108040E+03  0.12497519570E+03 0.  0.
        -13    1    3    3    0    0 -0.93238955847E+01  0.60174261245E+02 -0.67255197054E+02  0.90725682409E+02  0.10570000000E+00 0.  1.
         13    1    3    3    0    0  0.93238955847E+01 -0.60174261245E+02 -0.31495311971E+02  0.68555397992E+02  0.10570000000E+00 0. -1.
<mgrwt>
<rscale>  0 0.12497520E+03</rscale>
<asrwt>0</asrwt>
<pdfrwt beam="1">  1        3 0.46561979E-02 0.12497520E+03</pdfrwt>
<pdfrwt beam="2">  1       -3 0.19848583E-01 0.12497520E+03</pdfrwt>
<totfact> 0.12878608E+04</totfact>
</mgrwt>
</event>
<event>
 5    1  0.2989269E-047  0.1250004E+03  0.7818608E-02  0.1235069E+00
         -3   -1    0    0    0  501 -0.00000000000E+00  0.00000000000E+00  0.64361953067E+02  0.64362020257E+02  0.93000000000E-01 0.  1.
          3   -1    0    0  501    0  0.00000000000E+00 -0.00000000000E+00 -0.60692202605E+02  0.60692273858E+02  0.93000000000E-01 0. -1.
         25    2    1    2    0    0  0.00000000000E+00  0.00000000000E+00  0.36697504615E+01  0.12505429412E+03  0.12500043763E+03 0.  0.
        -13    1    3    3    0    0 -0.42577917262E+02 -0.45728163928E+02  0.31035354717E+00  0.62482409576E+02  0.10570000000E+00 0.  1.
         13    1    3    3    0    0  0.42577917262E+02  0.45728163928E+02  0.33593969143E+01  0.62571884539E+02  0.10570000000E+00 0. -1.
<mgrwt>
<rscale>  0 0.12500044E+03</rscale>
<asrwt>0</asrwt>
<pdfrwt beam="2">  1        3 0.93372725E-02 0.12500044E+03</pdfrwt>
<pdfrwt beam="1">  1       -3 0.99018497E-02 0.12500044E+03</pdfrwt>
<totfact> 0.13734856E+04</totfact>
</mgrwt>
</event>
<event>
 5    1  0.2989269E-047  0.1250044E+03  0.7818608E-02  0.1235062E+00
         -3   -1    0    0    0  501 -0.00000000000E+00  0.00000000000E+00  0.25662952025E+02  0.25663120536E+02  0.93000000000E-01 0.  1.
          3   -1    0    0  501    0  0.00000000000E+00 -0.00000000000E+00 -0.15222355579E+03  0.15222358420E+03  0.93000000000E-01 0. -1.
         25    2    1    2    0    0  0.00000000000E+00  0.00000000000E+00 -0.12656060376E+03  0.17788670473E+03  0.12500437311E+03 0.  0.
        -13    1    3    3    0    0 -0.47423936375E+02 -0.27195571208E+02 -0.20166926863E+02  0.58269588520E+02  0.10570000000E+00 0.  1.
         13    1    3    3    0    0  0.47423936375E+02  0.27195571208E+02 -0.10639367690E+03  0.11961711621E+03  0.10570000000E+00 0. -1.
<mgrwt>
<rscale>  0 0.12500437E+03</rscale>
<asrwt>0</asrwt>
<pdfrwt beam="2">  1        3 0.23419023E-01 0.12500437E+03</pdfrwt>
<pdfrwt beam="1">  1       -3 0.39481617E-02 0.12500437E+03</pdfrwt>
<totfact> 0.12440164E+04</totfact>
</mgrwt>
</event>
<event>
 5    1  0.2989269E-047  0.1250015E+03  0.7818608E-02  0.1235067E+00
         -3   -1    0    0    0  501 -0.00000000000E+00  0.00000000000E+00  0.52564661780E+02  0.52564744050E+02  0.93000000000E-01 0.  1.
          3   -1    0    0  501    0  0.00000000000E+00 -0.00000000000E+00 -0.74314871927E+02  0.74314930118E+02  0.93000000000E-01 0. -1.
         25    2    1    2    0    0  0.00000000000E+00  0.00000000000E+00 -0.21750210147E+02  0.12687967417E+03  0.12500152029E+03 0.  0.
        -13    1    3    3    0    0 -0.56619784607E+02 -0.12538292572E+02 -0.34534663057E+02  0.67495651079E+02  0.10570000000E+00 0. -1.
         13    1    3    3    0    0  0.56619784607E+02  0.12538292572E+02  0.12784452910E+02  0.59384023089E+02  0.10570000000E+00 0.  1.
<mgrwt>
<rscale>  0 0.12500152E+03</rscale>
<asrwt>0</asrwt>
<pdfrwt beam="2">  1        3 0.11433068E-01 0.12500152E+03</pdfrwt>
<pdfrwt beam="1">  1       -3 0.80868818E-02 0.12500152E+03</pdfrwt>
<totfact> 0.13685601E+04</totfact>
</mgrwt>
</event>
<event>
 5    1  0.2989269E-047  0.1250066E+03  0.7818608E-02  0.1235059E+00
          3   -1    0    0  501    0  0.00000000000E+00  0.00000000000E+00  0.61874923681E+02  0.61874993572E+02  0.93000000000E-01 0. -1.
         -3   -1    0    0    0  501 -0.00000000000E+00 -0.00000000000E+00 -0.63137963229E+02  0.63138031722E+02  0.93000000000E-01 0.  1.
         25    2    1    2    0    0  0.00000000000E+00  0.00000000000E+00 -0.12630395485E+01  0.12501302529E+03  0.12500664472E+03 0.  0.
        -13    1    3    3    0    0  0.38029976019E+02  0.36611287896E+02 -0.34099459533E+02  0.62844648065E+02  0.10570000000E+00 0.  1.
         13    1    3    3    0    0 -0.38029976019E+02 -0.36611287896E+02  0.32836419985E+02  0.62168377229E+02  0.10570000000E+00 0. -1.
<mgrwt>
<rscale>  0 0.12500664E+03</rscale>
<asrwt>0</asrwt>
<pdfrwt beam="1">  1        3 0.95192297E-02 0.12500664E+03</pdfrwt>
<pdfrwt beam="2">  1       -3 0.97135434E-02 0.12500664E+03</pdfrwt>
<totfact> 0.13734017E+04</totfact>
</mgrwt>
</event>
<event>
 5    1  0.2989269E-047  0.1250003E+03  0.7818608E-02  0.1235069E+00
         -3   -1    0    0    0  501 -0.00000000000E+00  0.00000000000E+00  0.10576539589E+03  0.10576543677E+03  0.93000000000E-01 0.  1.
          3   -1    0    0  501    0  0.00000000000E+00 -0.00000000000E+00 -0.36933257158E+02  0.36933374247E+02  0.93000000000E-01 0. -1.
         25    2    1    2    0    0  0.00000000000E+00  0.00000000000E+00  0.68832138728E+02  0.14269881102E+03  0.12500034938E+03 0.  0.
        -13    1    3    3    0    0  0.19626581554E+02 -0.48358846462E+02  0.73672066804E+02  0.90284911997E+02  0.10570000000E+00 0.  1.
         13    1    3    3    0    0 -0.19626581554E+02  0.48358846462E+02 -0.48399280761E+01  0.52413899024E+02  0.10570000000E+00 0. -1.
<mgrwt>
<rscale>  0 0.12500035E+03</rscale>
<asrwt>0</asrwt>
<pdfrwt beam="2">  1        3 0.56820517E-02 0.12500035E+03</pdfrwt>
<pdfrwt beam="1">  1       -3 0.16271611E-01 0.12500035E+03</pdfrwt>
<totfact> 0.13277058E+04</totfact>
</mgrwt>
</event>
<event>
 5    1  0.2989269E-047  0.1250009E+03  0.7818608E-02  0.1235068E+00
          3   -1    0    0  501    0  0.00000000000E+00  0.00000000000E+00  0.14828928604E+03  0.14828931520E+03  0.93000000000E-01 0. -1.
         -3   -1    0    0    0  501 -0.00000000000E+00 -0.00000000000E+00 -0.26342346831E+02  0.26342510996E+02  0.93000000000E-01 0.  1.
         25    2    1    2    0    0  0.00000000000E+00  0.00000000000E+00  0.12194693921E+03  0.17463182620E+03  0.12500087495E+03 0.  0.
        -13    1    3    3    0    0 -0.28506145350E+02  0.48591973544E+02  0.23162475219E+02  0.60912163370E+02  0.10570000000E+00 0.  1.
         13    1    3    3    0    0  0.28506145350E+02 -0.48591973544E+02  0.98784463987E+02  0.11371966283E+03  0.10570000000E+00 0. -1.
<mgrwt>
<rscale>  0 0.12500087E+03</rscale>
<asrwt>0</asrwt>
<pdfrwt beam="1">  1        3 0.22813751E-01 0.12500087E+03</pdfrwt>
<pdfrwt beam="2">  1       -3 0.40526836E-02 0.12500087E+03</pdfrwt>
<totfact> 0.12514547E+04</totfact>
</mgrwt>
</event>
<event>
 5    1  0.2989269E-047  0.1249972E+03  0.7818608E-02  0.1235074E+00
         -3   -1    0    0    0  501 -0.00000000000E+00  0.00000000000E+00  0.14690765002E+03  0.14690767945E+03  0.93000000000E-01 0.  1.
          3   -1    0    0  501    0  0.00000000000E+00 -0.00000000000E+00 -0.26588509304E+02  0.26588671949E+02  0.93000000000E-01 0. -1.
         25    2    1    2    0    0  0.00000000000E+00  0.00000000000E+00  0.12031914071E+03  0.17349635140E+03  0.12499715328E+03 0.  0.
        -13    1    3    3    0    0  0.37539772858E+02  0.49177204506E+02  0.72451734233E+02  0.95272750328E+02  0.10570000000E+00 0.  1.
         13    1    3    3    0    0 -0.37539772858E+02 -0.49177204506E+02  0.47867406479E+02  0.78223601073E+02  0.10570000000E+00 0. -1.
<mgrwt>
<rscale>  0 0.12499715E+03</rscale>
<asrwt>0</asrwt>
<pdfrwt beam="2">  1        3 0.40905547E-02 0.12499715E+03</pdfrwt>
<pdfrwt beam="1">  1       -3 0.22601191E-01 0.12499715E+03</pdfrwt>
<totfact> 0.12541191E+04</totfact>
</mgrwt>
</event>
<event>
 5    1  0.2989269E-047  0.1249978E+03  0.7818608E-02  0.1235073E+00
         -3   -1    0    0    0  501 -0.00000000000E+00  0.00000000000E+00  0.48049425545E+02  0.48049515546E+02  0.93000000000E-01 0.  1.
          3   -1    0    0  501    0  0.00000000000E+00 -0.00000000000E+00 -0.81293505810E+02  0.81293559006E+02  0.93000000000E-01 0. -1.
         25    2    1    2    0    0  0.00000000000E+00  0.00000000000E+00 -0.33244080265E+02  0.12934307455E+03  0.12499784823E+03 0.  0.
        -13    1    3    3    0    0 -0.52037959828E+02  0.88462398628E+00  0.19183916939E+02  0.55468600706E+02  0.10570000000E+00 0.  1.
         13    1    3    3    0    0  0.52037959828E+02 -0.88462398628E+00 -0.52427997204E+02  0.73874473846E+02  0.10570000000E+00 0. -1.
<mgrwt>
<rscale>  0 0.12499785E+03</rscale>
<asrwt>0</asrwt>
<pdfrwt beam="2">  1        3 0.12506704E-01 0.12499785E+03</pdfrwt>
<pdfrwt beam="1">  1       -3 0.73922303E-02 0.12499785E+03</pdfrwt>
<totfact> 0.13621650E+04</totfact>
</mgrwt>
</event>
<event>
 5    1  0.2989269E-047  0.1250023E+03  0.7818608E-02  0.1235066E+00
         -3   -1    0    0    0  501 -0.00000000000E+00  0.00000000000E+00  0.26172736348E+02  0.26172901577E+02  0.93000000000E-01 0.  1.
          3   -1    0    0  501    0  0.00000000000E+00 -0.00000000000E+00 -0.14925368904E+03  0.14925371802E+03  0.93000000000E-01 0. -1.
         25    2    1    2    0    0  0.00000000000E+00  0.00000000000E+00 -0.12308095269E+03  0.17542661959E+03  0.12500231176E+03 0.  0.
        -13    1    3    3    0    0  0.47027072410E+02 -0.39828706870E+02 -0.46921529025E+02  0.77456519990E+02  0.10570000000E+00 0.  1.
         13    1    3    3    0    0 -0.47027072410E+02  0.39828706870E+02 -0.76159423668E+02  0.97970099603E+02  0.10570000000E+00 0. -1.
<mgrwt>
<rscale>  0 0.12500231E+03</rscale>
<asrwt>0</asrwt>
<pdfrwt beam="2">  1        3 0.22962120E-01 0.12500231E+03</pdfrwt>
<pdfrwt beam="1">  1       -3 0.40265898E-02 0.12500231E+03</pdfrwt>
<totfact> 0.12496147E+04</totfact>
</mgrwt>
</event>
<event>
 5    1  0.2989269E-047  0.1250038E+03  0.7818608E-02  0.1235063E+00
          3   -1    0    0  501    0  0.00000000000E+00  0.00000000000E+00  0.52218265032E+02  0.52218347848E+02  0.93000000000E-01 0. -1.
         -3   -1    0    0    0  501 -0.00000000000E+00 -0.00000000000E+00 -0.74810636812E+02  0.74810694618E+02  0.93000000000E-01 0.  1.
         25    2    1    2    0    0  0.00000000000E+00  0.00000000000E+00 -0.22592371781E+02  0.12702904247E+03  0.12500384941E+03 0.  0.
        -13    1    3    3    0    0 -0.39579435245E+02  0.42628506780E+02 -0.34530509675E+02  0.67646792648E+02  0.10570000000E+00 0.  1.
         13    1    3    3    0    0  0.39579435245E+02 -0.42628506780E+02  0.11938137894E+02  0.59382249818E+02  0.10570000000E+00 0. -1.
<mgrwt>
<rscale>  0 0.12500385E+03</rscale>
<asrwt>0</asrwt>
<pdfrwt beam="1">  1        3 0.80335901E-02 0.12500385E+03</pdfrwt>
<pdfrwt beam="2">  1       -3 0.11509339E-01 0.12500385E+03</pdfrwt>
<totfact> 0.13681024E+04</totfact>
</mgrwt>
</event>
<event>
 5    1  0.2989269E-047  0.1249989E+03  0.7818608E-02  0.1235071E+00
          3   -1    0    0  501    0  0.00000000000E+00  0.00000000000E+00  0.64611281825E+01  0.64617974582E+01  0.93000000000E-01 0. -1.
         -3   -1    0    0    0  501 -0.00000000000E+00 -0.00000000000E+00 -0.60453458463E+03  0.60453459179E+03  0.93000000000E-01 0.  1.
         25    2    1    2    0    0  0.00000000000E+00  0.00000000000E+00 -0.59807345645E+03  0.61099638924E+03  0.12499891343E+03 0.  0.
        -13    1    3    3    0    0 -0.49260069418E+02 -0.37325584550E+02 -0.34447612341E+03  0.34997651989E+03  0.10570000000E+00 0.  1.
         13    1    3    3    0    0  0.49260069418E+02  0.37325584550E+02 -0.25359733304E+03  0.26101986935E+03  0.10570000000E+00 0. -1.
<mgrwt>
<rscale>  0 0.12499891E+03</rscale>
<asrwt>0</asrwt>
<pdfrwt beam="1">  1        3 0.99407223E-03 0.12499891E+03</pdfrwt>
<pdfrwt beam="2">  1       -3 0.93005328E-01 0.12499891E+03</pdfrwt>
<totfact> 0.65817001E+03</totfact>
</mgrwt>
</event>
<event>
 5    1  0.2989269E-047  0.1249990E+03  0.7818608E-02  0.1235071E+00
          3   -1    0    0  501    0  0.00000000000E+00  0.00000000000E+00  0.52016692656E+02  0.52016775793E+02  0.93000000000E-01 0. -1.
         -3   -1    0    0    0  501 -0.00000000000E+00 -0.00000000000E+00 -0.75094712966E+02  0.75094770554E+02  0.93000000000E-01 0.  1.
         25    2    1    2    0    0  0.00000000000E+00  0.00000000000E+00 -0.23078020310E+02  0.12711154635E+03  0.12499900077E+03 0.  0.
        -13    1    3    3    0    0  0.23027631359E+02  0.54914842244E+02 -0.30840431821E+02  0.67060085834E+02  0.10570000000E+00 0.  1.
         13    1    3    3    0    0 -0.23027631359E+02 -0.54914842244E+02  0.77624115111E+01  0.60051460512E+02  0.10570000000E+00 0. -1.
<mgrwt>
<rscale>  0 0.12499900E+03</rscale>
<asrwt>0</asrwt>
<pdfrwt beam="1">  1        3 0.80025789E-02 0.12499900E+03</pdfrwt>
<pdfrwt beam="2">  1       -3 0.11553044E-01 0.12499900E+03</pdfrwt>
<totfact> 0.13680330E+04</totfact>
</mgrwt>
</event>
<event>
 5    1  0.2989269E-047  0.1249961E+03  0.7818608E-02  0.1235075E+00
          3   -1    0    0  501    0  0.00000000000E+00  0.00000000000E+00  0.98834276289E+02  0.98834320044E+02  0.93000000000E-01 0. -1.
         -3   -1    0    0    0  501 -0.00000000000E+00 -0.00000000000E+00 -0.39520636211E+02  0.39520745635E+02  0.93000000000E-01 0.  1.
         25    2    1    2    0    0  0.00000000000E+00  0.00000000000E+00  0.59313640078E+02  0.13835506568E+03  0.12499606514E+03 0.  0.
        -13    1    3    3    0    0 -0.18588568623E+02  0.50423011376E+02 -0.56588871373E+01  0.54037478992E+02  0.10570000000E+00 0.  1.
         13    1    3    3    0    0  0.18588568623E+02 -0.50423011376E+02  0.64972527215E+02  0.84317586688E+02  0.10570000000E+00 0. -1.
<mgrwt>
<rscale>  0 0.12499607E+03</rscale>
<asrwt>0</asrwt>
<pdfrwt beam="1">  1        3 0.15205285E-01 0.12499607E+03</pdfrwt>
<pdfrwt beam="2">  1       -3 0.60801097E-02 0.12499607E+03</pdfrwt>
<totfact> 0.13388417E+04</totfact>
</mgrwt>
</event>
<event>
 5    1  0.2989269E-047  0.1250027E+03  0.7818608E-02  0.1235065E+00
         -3   -1    0    0    0  501 -0.00000000000E+00  0.00000000000E+00  0.97420245110E+01  0.97424684024E+01  0.93000000000E-01 0.  1.
          3   -1    0    0  501    0  0.00000000000E+00 -0.00000000000E+00 -0.40097667338E+03  0.40097668416E+03  0.93000000000E-01 0. -1.
         25    2    1    2    0    0  0.00000000000E+00  0.00000000000E+00 -0.39123464887E+03  0.41071915256E+03  0.12500268721E+03 0.  0.
        -13    1    3    3    0    0  0.49112034573E+02  0.31547794776E+02 -0.12220959524E+03  0.13543430746E+03  0.10570000000E+00 0.  1.
         13    1    3    3    0    0 -0.49112034573E+02 -0.31547794776E+02 -0.26902505362E+03  0.27528484510E+03  0.10570000000E+00 0. -1.
<mgrwt>
<rscale>  0 0.12500269E+03</rscale>
<asrwt>0</asrwt>
<pdfrwt beam="2">  1        3 0.61688741E-01 0.12500269E+03</pdfrwt>
<pdfrwt beam="1">  1       -3 0.14988083E-02 0.12500269E+03</pdfrwt>
<totfact> 0.85911785E+03</totfact>
</mgrwt>
</event>
<event>
 5    1  0.2989269E-047  0.1250002E+03  0.7818608E-02  0.1235069E+00
         -3   -1    0    0    0  501 -0.00000000000E+00  0.00000000000E+00  0.65483906831E+02  0.65483972870E+02  0.93000000000E-01 0.  1.
          3   -1    0    0  501    0  0.00000000000E+00 -0.00000000000E+00 -0.59652133894E+02  0.59652206389E+02  0.93000000000E-01 0. -1.
         25    2    1    2    0    0  0.00000000000E+00  0.00000000000E+00  0.58317729363E+01  0.12513617926E+03  0.12500021514E+03 0.  0.
        -13    1    3    3    0    0  0.56739856888E+02  0.22316385487E+02 -0.10840233584E+02  0.61927007497E+02  0.10570000000E+00 0.  1.
         13    1    3    3    0    0 -0.56739856888E+02 -0.22316385487E+02  0.16672006520E+02  0.63209171762E+02  0.10570000000E+00 0. -1.
<mgrwt>
<rscale>  0 0.12500022E+03</rscale>
<asrwt>0</asrwt>
<pdfrwt beam="2">  1        3 0.91772621E-02 0.12500022E+03</pdfrwt>
<pdfrwt beam="1">  1       -3 0.10074458E-01 0.12500022E+03</pdfrwt>
<totfact> 0.13732759E+04</totfact>
</mgrwt>
</event>
<event>
 5    1  0.2989269E-047  0.1249982E+03  0.7818608E-02  0.1235072E+00
          3   -1    0    0  501    0  0.00000000000E+00  0.00000000000E+00  0.28426116378E+02  0.28426268508E+02  0.93000000000E-01 0. -1.
         -3   -1    0    0    0  501 -0.00000000000E+00 -0.00000000000E+00 -0.13741325970E+03  0.13741329117E+03  0.93000000000E-01 0.  1.
         25    2    1    2    0    0  0.00000000000E+00  0.00000000000E+00 -0.10898714332E+03  0.16583955968E+03  0.12499824857E+03 0.  0.
        -13    1    3    3    0    0 -0.61230221835E+02  0.40974426956E+01 -0.70202936265E+02  0.93243726520E+02  0.10570000000E+00 0.  1.
         13    1    3    3    0    0  0.61230221835E+02 -0.40974426956E+01 -0.38784207060E+02  0.72595833161E+02  0.10570000000E+00 0. -1.
<mgrwt>
<rscale>  0 0.12499825E+03</rscale>
<asrwt>0</asrwt>
<pdfrwt beam="1">  1        3 0.43732629E-02 0.12499825E+03</pdfrwt>
<pdfrwt beam="2">  1       -3 0.21140515E-01 0.12499825E+03</pdfrwt>
<totfact> 0.12717333E+04</totfact>
</mgrwt>
</event>
<event>
 5    1  0.2989269E-047  0.1250006E+03  0.7818608E-02  0.1235068E+00
          3   -1    0    0  501    0  0.00000000000E+00  0.00000000000E+00  0.15512919137E+03  0.15512921925E+03  0.93000000000E-01 0. -1.
         -3   -1    0    0    0  501 -0.00000000000E+00 -0.00000000000E+00 -0.25180769267E+02  0.25180941004E+02  0.93000000000E-01 0.  1.
         25    2    1    2    0    0  0.00000000000E+00  0.00000000000E+00  0.12994842211E+03  0.18031016025E+03  0.12500064593E+03 0.  0.
        -13    1    3    3    0    0  0.21862829129E+02 -0.38169951320E+02  0.12901989823E+03  0.13631241247E+03  0.10570000000E+00 0. -1.
         13    1    3    3    0    0 -0.21862829129E+02  0.38169951320E+02  0.92852387855E+00  0.43997747788E+02  0.10570000000E+00 0.  1.
<mgrwt>
<rscale>  0 0.12500065E+03</rscale>
<asrwt>0</asrwt>
<pdfrwt beam="1">  1        3 0.23866045E-01 0.12500065E+03</pdfrwt>
<pdfrwt beam="2">  1       -3 0.38739798E-02 0.12500065E+03</pdfrwt>
<totfact> 0.12387052E+04</totfact>
</mgrwt>
</event>
<event>
 5    1  0.2989269E-047  0.1249973E+03  0.7818608E-02  0.1235074E+00
         -3   -1    0    0    0  501 -0.00000000000E+00  0.00000000000E+00  0.79207217474E+02  0.79207272071E+02  0.93000000000E-01 0.  1.
          3   -1    0    0  501    0  0.00000000000E+00 -0.00000000000E+00 -0.49314567325E+02  0.49314655017E+02  0.93000000000E-01 0. -1.
         25    2    1    2    0    0  0.00000000000E+00  0.00000000000E+00  0.29892650149E+02  0.12852192709E+03  0.12499726081E+03 0.  0.
        -13    1    3    3    0    0  0.16121224639E+02 -0.47060119858E+02 -0.23955974213E+02  0.55212757927E+02  0.10570000000E+00 0. -1.
         13    1    3    3    0    0 -0.16121224639E+02  0.47060119858E+02  0.53848624362E+02  0.73309169161E+02  0.10570000000E+00 0.  1.
<mgrwt>
<rscale>  0 0.12499726E+03</rscale>
<asrwt>0</asrwt>
<pdfrwt beam="2">  1        3 0.75868675E-02 0.12499726E+03</pdfrwt>
<pdfrwt beam="1">  1       -3 0.12185737E-01 0.12499726E+03</pdfrwt>
<totfact> 0.13643577E+04</totfact>
</mgrwt>
</event>
<event>
 5    1  0.2989269E-047  0.1250038E+03  0.7818608E-02  0.1235063E+00
         -3   -1    0    0    0  501 -0.00000000000E+00  0.00000000000E+00  0.11075672236E+03  0.11075676140E+03  0.93000000000E-01 0.  1.
          3   -1    0    0  501    0  0.00000000000E+00 -0.00000000000E+00 -0.35270794545E+02  0.35270917154E+02  0.93000000000E-01 0. -1.
         25    2    1    2    0    0  0.00000000000E+00  0.00000000000E+00  0.75485927814E+02  0.14602767856E+03  0.12500383037E+03 0.  0.
        -13    1    3    3    0    0 -0.41360815123E+02 -0.29378750437E+02  0.80388143595E+02  0.95058365271E+02  0.10570000000E+00 0.  1.
         13    1    3    3    0    0  0.41360815123E+02  0.29378750437E+02 -0.49022157814E+01  0.50969313287E+02  0.10570000000E+00 0. -1.
<mgrwt>
<rscale>  0 0.12500383E+03</rscale>
<asrwt>0</asrwt>
<pdfrwt beam="2">  1        3 0.54262886E-02 0.12500383E+03</pdfrwt>
<pdfrwt beam="1">  1       -3 0.17039508E-01 0.12500383E+03</pdfrwt>
<totfact> 0.13192738E+04</totfact>
</mgrwt>
</event>
<event>
 5    1  0.2989269E-047  0.1249984E+03  0.7818608E-02  0.1235072E+00
         -3   -1    0    0    0  501 -0.00000000000E+00  0.00000000000E+00  0.92992420004E+02  0.92992466508E+02  0.93000000000E-01 0.  1.
          3   -1    0    0  501    0  0.00000000000E+00 -0.00000000000E+00 -0.42004931234E+02  0.42005034186E+02  0.93000000000E-01 0. -1.
         25    2    1    2    0    0  0.00000000000E+00  0.00000000000E+00  0.50987488770E+02  0.13499750069E+03  0.12499840472E+03 0.  0.
        -13    1    3    3    0    0  0.16705883496E+02  0.39329733186E+02  0.74751699507E+02  0.86103090581E+02  0.10570000000E+00 0.  1.
         13    1    3    3    0    0 -0.16705883496E+02 -0.39329733186E+02 -0.23764210737E+02  0.48894410114E+02  0.10570000000E+00 0. -1.
<mgrwt>
<rscale>  0 0.12499840E+03</rscale>
<asrwt>0</asrwt>
<pdfrwt beam="2">  1        3 0.64623087E-02 0.12499840E+03</pdfrwt>
<pdfrwt beam="1">  1       -3 0.14306537E-01 0.12499840E+03</pdfrwt>
<totfact> 0.13474128E+04</totfact>
</mgrwt>
</event>
<event>
 5    1  0.2989269E-047  0.1249917E+03  0.7818608E-02  0.1235082E+00
          3   -1    0    0  501    0  0.00000000000E+00  0.00000000000E+00  0.93435630028E+02  0.93435676312E+02  0.93000000000E-01 0. -1.
         -3   -1    0    0    0  501 -0.00000000000E+00 -0.00000000000E+00 -0.41801223493E+02  0.41801326947E+02  0.93000000000E-01 0.  1.
         25    2    1    2    0    0  0.00000000000E+00  0.00000000000E+00  0.51634406535E+02  0.13523700326E+03  0.12499174018E+03 0.  0.
        -13    1    3    3    0    0  0.28833546196E+01 -0.54267380966E+02  0.59208835656E+02  0.80367653711E+02  0.10570000000E+00 0.  1.
         13    1    3    3    0    0 -0.28833546196E+01  0.54267380966E+02 -0.75744291207E+01  0.54869349547E+02  0.10570000000E+00 0. -1.
<mgrwt>
<rscale>  0 0.12499174E+03</rscale>
<asrwt>0</asrwt>
<pdfrwt beam="1">  1        3 0.14374724E-01 0.12499174E+03</pdfrwt>
<pdfrwt beam="2">  1       -3 0.64309690E-02 0.12499174E+03</pdfrwt>
<totfact> 0.13469774E+04</totfact>
</mgrwt>
</event>
<event>
 5    1  0.2989269E-047  0.1249981E+03  0.7818608E-02  0.1235072E+00
          3   -1    0    0  501    0  0.00000000000E+00  0.00000000000E+00  0.73312760178E+02  0.73312819165E+02  0.93000000000E-01 0. -1.
         -3   -1    0    0    0  501 -0.00000000000E+00 -0.00000000000E+00 -0.53280287845E+02  0.53280369010E+02  0.93000000000E-01 0.  1.
         25    2    1    2    0    0  0.00000000000E+00  0.00000000000E+00  0.20032472333E+02  0.12659318817E+03  0.12499814136E+03 0.  0.
        -13    1    3    3    0    0 -0.33145712628E+02 -0.52929210462E+02  0.75389903226E+01  0.62904587538E+02  0.10570000000E+00 0.  1.
         13    1    3    3    0    0  0.33145712628E+02  0.52929210462E+02  0.12493482010E+02  0.63688600636E+02  0.10570000000E+00 0. -1.
<mgrwt>
<rscale>  0 0.12499814E+03</rscale>
<asrwt>0</asrwt>
<pdfrwt beam="1">  1        3 0.11278897E-01 0.12499814E+03</pdfrwt>
<pdfrwt beam="2">  1       -3 0.81969781E-02 0.12499814E+03</pdfrwt>
<totfact> 0.13694279E+04</totfact>
</mgrwt>
</event>
<event>
 5    1  0.2989269E-047  0.1250042E+03  0.7818608E-02  0.1235063E+00
          3   -1    0    0  501    0  0.00000000000E+00  0.00000000000E+00  0.11369059583E+03  0.11369063387E+03  0.93000000000E-01 0. -1.
         -3   -1    0    0    0  501 -0.00000000000E+00 -0.00000000000E+00 -0.34360810864E+02  0.34360936719E+02  0.93000000000E-01 0.  1.
         25    2    1    2    0    0  0.00000000000E+00  0.00000000000E+00  0.79329784964E+02  0.14805157058E+03  0.12500421101E+03 0.  0.
        -13    1    3    3    0    0  0.50842849400E+02  0.32591233769E+02  0.20592514435E+02  0.63806321606E+02  0.10570000000E+00 0.  1.
         13    1    3    3    0    0 -0.50842849400E+02 -0.32591233769E+02  0.58737270529E+02  0.84245248978E+02  0.10570000000E+00 0. -1.
<mgrwt>
<rscale>  0 0.12500421E+03</rscale>
<asrwt>0</asrwt>
<pdfrwt beam="1">  1        3 0.17490874E-01 0.12500421E+03</pdfrwt>
<pdfrwt beam="2">  1       -3 0.52862911E-02 0.12500421E+03</pdfrwt>
<totfact> 0.13142343E+04</totfact>
</mgrwt>
</event>
<event>
 5    1  0.2989269E-047  0.1249985E+03  0.7818608E-02  0.1235072E+00
          3   -1    0    0  501    0  0.00000000000E+00  0.00000000000E+00  0.15051062311E+02  0.15051349631E+02  0.93000000000E-01 0. -1.
         -3   -1    0    0    0  501 -0.00000000000E+00 -0.00000000000E+00 -0.25952406547E+03  0.25952408213E+03  0.93000000000E-01 0.  1.
         25    2    1    2    0    0  0.00000000000E+00  0.00000000000E+00 -0.24447300316E+03  0.27457543176E+03  0.12499847381E+03 0.  0.
        -13    1    3    3    0    0 -0.53366609636E+02 -0.15354641937E+02 -0.18522976810E+03  0.19337486449E+03  0.10570000000E+00 0.  1.
         13    1    3    3    0    0  0.53366609636E+02  0.15354641937E+02 -0.59243235055E+02  0.81200567272E+02  0.10570000000E+00 0. -1.
<mgrwt>
<rscale>  0 0.12499847E+03</rscale>
<asrwt>0</asrwt>
<pdfrwt beam="1">  1        3 0.23155716E-02 0.12499847E+03</pdfrwt>
<pdfrwt beam="2">  1       -3 0.39926799E-01 0.12499847E+03</pdfrwt>
<totfact> 0.10552618E+04</totfact>
</mgrwt>
</event>
<event>
 5    1  0.2989269E-047  0.1250003E+03  0.7818608E-02  0.1235069E+00
         -3   -1    0    0    0  501 -0.00000000000E+00  0.00000000000E+00  0.28700115387E+03  0.28700116894E+03  0.93000000000E-01 0.  1.
          3   -1    0    0  501    0  0.00000000000E+00 -0.00000000000E+00 -0.13610461035E+02  0.13610778764E+02  0.93000000000E-01 0. -1.
         25    2    1    2    0    0  0.00000000000E+00  0.00000000000E+00  0.27339069284E+03  0.30061194771E+03  0.12500028869E+03 0.  0.
        -13    1    3    3    0    0 -0.55736147174E+02 -0.11654319789E+02  0.74729603936E+02  0.93951403121E+02  0.10570000000E+00 0.  1.
         13    1    3    3    0    0  0.55736147174E+02  0.11654319789E+02  0.19866108890E+03  0.20666054458E+03  0.10570000000E+00 0. -1.
<mgrwt>
<rscale>  0 0.12500029E+03</rscale>
<asrwt>0</asrwt>
<pdfrwt beam="2">  1        3 0.20939428E-02 0.12500029E+03</pdfrwt>
<pdfrwt beam="1">  1       -3 0.44154048E-01 0.12500029E+03</pdfrwt>
<totfact> 0.10123463E+04</totfact>
</mgrwt>
</event>
<event>
 5    1  0.2989269E-047  0.1249968E+03  0.7818608E-02  0.1235074E+00
         -3   -1    0    0    0  501 -0.00000000000E+00  0.00000000000E+00  0.52767609572E+02  0.52767691525E+02  0.93000000000E-01 0.  1.
          3   -1    0    0  501    0  0.00000000000E+00 -0.00000000000E+00 -0.74023435167E+02  0.74023493588E+02  0.93000000000E-01 0. -1.
         25    2    1    2    0    0  0.00000000000E+00  0.00000000000E+00 -0.21255825596E+02  0.12679118511E+03  0.12499677796E+03 0.  0.
        -13    1    3    3    0    0  0.57471636956E+02 -0.58553664435E+01 -0.34819030934E+02  0.67451096791E+02  0.10570000000E+00 0.  1.
         13    1    3    3    0    0 -0.57471636956E+02  0.58553664435E+01  0.13563205339E+02  0.59340088323E+02  0.10570000000E+00 0. -1.
<mgrwt>
<rscale>  0 0.12499678E+03</rscale>
<asrwt>0</asrwt>
<pdfrwt beam="2">  1        3 0.11388232E-01 0.12499678E+03</pdfrwt>
<pdfrwt beam="1">  1       -3 0.81181046E-02 0.12499678E+03</pdfrwt>
<totfact> 0.13689421E+04</totfact>
</mgrwt>
</event>
<event>
 5    1  0.2989269E-047  0.1249790E+03  0.7818608E-02  0.1235102E+00
         -3   -1    0    0    0  501 -0.00000000000E+00  0.00000000000E+00  0.13455008424E+03  0.13455011639E+03  0.93000000000E-01 0.  1.
          3   -1    0    0  501    0  0.00000000000E+00 -0.00000000000E+00 -0.29022096344E+02  0.29022245351E+02  0.93000000000E-01 0. -1.
         25    2    1    2    0    0  0.00000000000E+00  0.00000000000E+00  0.10552798790E+03  0.16357236174E+03  0.12497904342E+03 0.  0.
        -13    1    3    3    0    0  0.60308564475E+02  0.10408457886E+02  0.69291697177E+02  0.92448955726E+02  0.10570000000E+00 0.  1.
         13    1    3    3    0    0 -0.60308564475E+02 -0.10408457886E+02  0.36236290724E+02  0.71123406010E+02  0.10570000000E+00 0. -1.
<mgrwt>
<rscale>  0 0.12497904E+03</rscale>
<asrwt>0</asrwt>
<pdfrwt beam="2">  1        3 0.44649519E-02 0.12497904E+03</pdfrwt>
<pdfrwt beam="1">  1       -3 0.20700027E-01 0.12497904E+03</pdfrwt>
<totfact> 0.12775911E+04</totfact>
</mgrwt>
</event>
<event>
 5    1  0.2989269E-047  0.1250010E+03  0.7818608E-02  0.1235068E+00
          3   -1    0    0  501    0  0.00000000000E+00  0.00000000000E+00  0.19936911216E+02  0.19937128124E+02  0.93000000000E-01 0.  1.
         -3   -1    0    0    0  501 -0.00000000000E+00 -0.00000000000E+00 -0.19593224587E+03  0.19593226794E+03  0.93000000000E-01 0. -1.
         25    2    1    2    0    0  0.00000000000E+00  0.00000000000E+00 -0.17599533465E+03  0.21586939606E+03  0.12500095335E+03 0.  0.
        -13    1    3    3    0    0 -0.43230904272E+02 -0.26852852093E+02 -0.25342468026E+02  0.56852780124E+02  0.10570000000E+00 0. -1.
         13    1    3    3    0    0  0.43230904272E+02  0.26852852093E+02 -0.15065286662E+03  0.15901661594E+03  0.10570000000E+00 0.  1.
<mgrwt>
<rscale>  0 0.12500095E+03</rscale>
<asrwt>0</asrwt>
<pdfrwt beam="1">  1        3 0.30672356E-02 0.12500095E+03</pdfrwt>
<pdfrwt beam="2">  1       -3 0.30143440E-01 0.12500095E+03</pdfrwt>
<totfact> 0.11635860E+04</totfact>
</mgrwt>
</event>
<event>
 5    1  0.2989269E-047  0.1250002E+03  0.7818608E-02  0.1235069E+00
         -3   -1    0    0    0  501 -0.00000000000E+00  0.00000000000E+00  0.12254075868E+03  0.12254079397E+03  0.93000000000E-01 0.  1.
          3   -1    0    0  501    0  0.00000000000E+00 -0.00000000000E+00 -0.31877162489E+02  0.31877298150E+02  0.93000000000E-01 0. -1.
         25    2    1    2    0    0  0.00000000000E+00  0.00000000000E+00  0.90663596193E+02  0.15441809212E+03  0.12500023800E+03 0.  0.
        -13    1    3    3    0    0 -0.36365635975E+02 -0.35110047695E+02  0.90739307117E+02  0.10386918676E+03  0.10570000000E+00 0.  1.
         13    1    3    3    0    0  0.36365635975E+02  0.35110047695E+02 -0.75710924578E-01  0.50548905365E+02  0.10570000000E+00 0. -1.
<mgrwt>
<rscale>  0 0.12500024E+03</rscale>
<asrwt>0</asrwt>
<pdfrwt beam="2">  1        3 0.49041919E-02 0.12500024E+03</pdfrwt>
<pdfrwt beam="1">  1       -3 0.18852438E-01 0.12500024E+03</pdfrwt>
<totfact> 0.12988203E+04</totfact>
</mgrwt>
</event>
<event>
 5    1  0.2989269E-047  0.1250007E+03  0.7818608E-02  0.1235068E+00
         -3   -1    0    0    0  501 -0.00000000000E+00  0.00000000000E+00  0.21394496275E+02  0.21394698405E+02  0.93000000000E-01 0.  1.
          3   -1    0    0  501    0  0.00000000000E+00 -0.00000000000E+00 -0.18258287115E+03  0.18258289484E+03  0.93000000000E-01 0. -1.
         25    2    1    2    0    0  0.00000000000E+00  0.00000000000E+00 -0.16118837488E+03  0.20397759324E+03  0.12500066540E+03 0.  0.
        -13    1    3    3    0    0 -0.58024332808E+02 -0.51653474607E+01 -0.43642510356E+02  0.72788624763E+02  0.10570000000E+00 0.  1.
         13    1    3    3    0    0  0.58024332808E+02  0.51653474607E+01 -0.11754586452E+03  0.13118896848E+03  0.10570000000E+00 0. -1.
<mgrwt>
<rscale>  0 0.12500067E+03</rscale>
<asrwt>0</asrwt>
<pdfrwt beam="2">  1        3 0.28089689E-01 0.12500067E+03</pdfrwt>
<pdfrwt beam="1">  1       -3 0.32914784E-02 0.12500067E+03</pdfrwt>
<totfact> 0.11879147E+04</totfact>
</mgrwt>
</event>
<event>
 5    1  0.2989269E-047  0.1250026E+03  0.7818608E-02  0.1235065E+00
          3   -1    0    0  501    0  0.00000000000E+00  0.00000000000E+00  0.26055413766E+03  0.26055415426E+03  0.93000000000E-01 0. -1.
         -3   -1    0    0    0  501 -0.00000000000E+00 -0.00000000000E+00 -0.14992556292E+02  0.14992844732E+02  0.93000000000E-01 0.  1.
         25    2    1    2    0    0  0.00000000000E+00  0.00000000000E+00  0.24556158137E+03  0.27554699899E+03  0.12500263360E+03 0.  0.
        -13    1    3    3    0    0 -0.52198227096E+02  0.33701919763E+02  0.13771975856E+03  0.15108678757E+03  0.10570000000E+00 0. -1.
         13    1    3    3    0    0  0.52198227096E+02 -0.33701919763E+02  0.10784182281E+03  0.12446021142E+03  0.10570000000E+00 0.  1.
<mgrwt>
<rscale>  0 0.12500263E+03</rscale>
<asrwt>0</asrwt>
<pdfrwt beam="1">  1        3 0.40085272E-01 0.12500263E+03</pdfrwt>
<pdfrwt beam="2">  1       -3 0.23065708E-02 0.12500263E+03</pdfrwt>
<totfact> 0.10537783E+04</totfact>
</mgrwt>
</event>
<event>
 5    1  0.2989269E-047  0.1249955E+03  0.7818608E-02  0.1235076E+00
          3   -1    0    0  501    0  0.00000000000E+00  0.00000000000E+00  0.41391493722E+03  0.41391494767E+03  0.93000000000E-01 0. -1.
         -3   -1    0    0    0  501 -0.00000000000E+00 -0.00000000000E+00 -0.94364062776E+01  0.94368645448E+01  0.93000000000E-01 0.  1.
         25    2    1    2    0    0  0.00000000000E+00  0.00000000000E+00  0.40447853094E+03  0.42335181221E+03  0.12499549956E+03 0.  0.
        -13    1    3    3    0    0 -0.56875052887E+02 -0.87336472566E+01  0.11962930148E+03  0.13274874455E+03  0.10570000000E+00 0.  1.
         13    1    3    3    0    0  0.56875052887E+02  0.87336472566E+01  0.28484922947E+03  0.29060306766E+03  0.10570000000E+00 0. -1.
<mgrwt>
<rscale>  0 0.12499550E+03</rscale>
<asrwt>0</asrwt>
<pdfrwt beam="1">  1        3 0.63679241E-01 0.12499550E+03</pdfrwt>
<pdfrwt beam="2">  1       -3 0.14517912E-02 0.12499550E+03</pdfrwt>
<totfact> 0.84401543E+03</totfact>
</mgrwt>
</event>
<event>
 5    1  0.2989269E-047  0.1250027E+03  0.7818608E-02  0.1235065E+00
         -3   -1    0    0    0  501 -0.00000000000E+00  0.00000000000E+00  0.95383724413E+02  0.95383769751E+02  0.93000000000E-01 0.  1.
          3   -1    0    0  501    0  0.00000000000E+00 -0.00000000000E+00 -0.40954664760E+02  0.40954770352E+02  0.93000000000E-01 0. -1.
         25    2    1    2    0    0  0.00000000000E+00  0.00000000000E+00  0.54429059653E+02  0.13633854010E+03  0.12500269990E+03 0.  0.
        -13    1    3    3    0    0 -0.56213337437E+02  0.21330008579E+02  0.45836163617E+02  0.75603397010E+02  0.10570000000E+00 0.  1.
         13    1    3    3    0    0  0.56213337437E+02 -0.21330008579E+02  0.85928960362E+01  0.60735143093E+02  0.10570000000E+00 0. -1.
<mgrwt>
<rscale>  0 0.12500270E+03</rscale>
<asrwt>0</asrwt>
<pdfrwt beam="2">  1        3 0.63007293E-02 0.12500270E+03</pdfrwt>
<pdfrwt beam="1">  1       -3 0.14674431E-01 0.12500270E+03</pdfrwt>
<totfact> 0.13438278E+04</totfact>
</mgrwt>
</event>
<event>
 5    1  0.2989269E-047  0.1249889E+03  0.7818608E-02  0.1235087E+00
         -3   -1    0    0    0  501 -0.00000000000E+00  0.00000000000E+00  0.10990610116E+03  0.10990614051E+03  0.93000000000E-01 0.  1.
          3   -1    0    0  501    0  0.00000000000E+00 -0.00000000000E+00 -0.35535299170E+02  0.35535420866E+02  0.93000000000E-01 0. -1.
         25    2    1    2    0    0  0.00000000000E+00  0.00000000000E+00  0.74370801994E+02  0.14544156138E+03  0.12498892586E+03 0.  0.
        -13    1    3    3    0    0  0.32500117535E+02 -0.52717000871E+02  0.46935452331E+02  0.77706419803E+02  0.10570000000E+00 0.  1.
         13    1    3    3    0    0 -0.32500117535E+02  0.52717000871E+02  0.27435349663E+02  0.67735141575E+02  0.10570000000E+00 0. -1.
<mgrwt>
<rscale>  0 0.12498893E+03</rscale>
<asrwt>0</asrwt>
<pdfrwt beam="2">  1        3 0.54669815E-02 0.12498893E+03</pdfrwt>
<pdfrwt beam="1">  1       -3 0.16908643E-01 0.12498893E+03</pdfrwt>
<totfact> 0.13211761E+04</totfact>
</mgrwt>
</event>
<event>
 5    1  0.2989269E-047  0.1250105E+03  0.7818608E-02  0.1235053E+00
          3   -1    0    0  501    0  0.00000000000E+00  0.00000000000E+00  0.39905389043E+03  0.39905390127E+03  0.93000000000E-01 0. -1.
         -3   -1    0    0    0  501 -0.00000000000E+00 -0.00000000000E+00 -0.97901851988E+01  0.97906269067E+01  0.93000000000E-01 0.  1.
         25    2    1    2    0    0  0.00000000000E+00  0.00000000000E+00  0.38926370524E+03  0.40884452818E+03  0.12501046359E+03 0.  0.
        -13    1    3    3    0    0 -0.25828353534E+02  0.56203034281E+02  0.16519607141E+03  0.17639625306E+03  0.10570000000E+00 0. -1.
         13    1    3    3    0    0  0.25828353534E+02 -0.56203034281E+02  0.22406763382E+03  0.23244827512E+03  0.10570000000E+00 0.  1.
<mgrwt>
<rscale>  0 0.12501046E+03</rscale>
<asrwt>0</asrwt>
<pdfrwt beam="1">  1        3 0.61392946E-01 0.12501046E+03</pdfrwt>
<pdfrwt beam="2">  1       -3 0.15062170E-02 0.12501046E+03</pdfrwt>
<totfact> 0.86126690E+03</totfact>
</mgrwt>
</event>
<event>
 5    1  0.2989269E-047  0.1250023E+03  0.7818608E-02  0.1235066E+00
          3   -1    0    0  501    0  0.00000000000E+00  0.00000000000E+00  0.33692309656E+03  0.33692310940E+03  0.93000000000E-01 0. -1.
         -3   -1    0    0    0  501 -0.00000000000E+00 -0.00000000000E+00 -0.11594114246E+02  0.11594487231E+02  0.93000000000E-01 0.  1.
         25    2    1    2    0    0  0.00000000000E+00  0.00000000000E+00  0.32532898232E+03  0.34851759663E+03  0.12500227368E+03 0.  0.
        -13    1    3    3    0    0 -0.54255202168E+02 -0.24289947852E+02  0.21649357955E+03  0.22450636892E+03  0.10570000000E+00 0.  1.
         13    1    3    3    0    0  0.54255202168E+02  0.24289947852E+02  0.10883540277E+03  0.12401122770E+03  0.10570000000E+00 0. -1.
<mgrwt>
<rscale>  0 0.12500227E+03</rscale>
<asrwt>0</asrwt>
<pdfrwt beam="1">  1        3 0.51834351E-01 0.12500227E+03</pdfrwt>
<pdfrwt beam="2">  1       -3 0.17837396E-02 0.12500227E+03</pdfrwt>
<totfact> 0.94087162E+03</totfact>
</mgrwt>
</event>
<event>
 5    1  0.2989269E-047  0.1249947E+03  0.7818608E-02  0.1235078E+00
         -3   -1    0    0    0  501 -0.00000000000E+00  0.00000000000E+00  0.17663118570E+02  0.17663363400E+02  0.93000000000E-01 0. -1.
          3   -1    0    0  501    0  0.00000000000E+00 -0.00000000000E+00 -0.22113233985E+03  0.22113235940E+03  0.93000000000E-01 0.  1.
         25    2    1    2    0    0  0.00000000000E+00  0.00000000000E+00 -0.20346922128E+03  0.23879572281E+03  0.12499469278E+03 0.  0.
        -13    1    3    3    0    0  0.53741032634E+02 -0.18776073528E+01 -0.40891056888E+02  0.67555264072E+02  0.10570000000E+00 0. -1.
         13    1    3    3    0    0 -0.53741032634E+02  0.18776073528E+01 -0.16257816439E+03  0.17124045873E+03  0.10570000000E+00 0.  1.
<mgrwt>
<rscale>  0 0.12499469E+03</rscale>
<asrwt>0</asrwt>
<pdfrwt beam="2">  1        3 0.34020378E-01 0.12499469E+03</pdfrwt>
<pdfrwt beam="1">  1       -3 0.27174233E-02 0.12499469E+03</pdfrwt>
<totfact> 0.11194607E+04</totfact>
</mgrwt>
</event>
<event>
 5    1  0.2989269E-047  0.1249997E+03  0.7818608E-02  0.1235070E+00
         -3   -1    0    0    0  501 -0.00000000000E+00  0.00000000000E+00  0.26953869402E+03  0.26953871006E+03  0.93000000000E-01 0.  1.
          3   -1    0    0  501    0  0.00000000000E+00 -0.00000000000E+00 -0.14492108348E+02  0.14492406749E+02  0.93000000000E-01 0. -1.
         25    2    1    2    0    0  0.00000000000E+00  0.00000000000E+00  0.25504658567E+03  0.28403111681E+03  0.12499965782E+03 0.  0.
        -13    1    3    3    0    0  0.24599762736E+02 -0.57429705595E+02  0.13139148929E+03  0.14548901691E+03  0.10570000000E+00 0.  1.
         13    1    3    3    0    0 -0.24599762736E+02  0.57429705595E+02  0.12365509638E+03  0.13854209990E+03  0.10570000000E+00 0. -1.
<mgrwt>
<rscale>  0 0.12499966E+03</rscale>
<asrwt>0</asrwt>
<pdfrwt beam="2">  1        3 0.22295792E-02 0.12499966E+03</pdfrwt>
<pdfrwt beam="1">  1       -3 0.41467517E-01 0.12499966E+03</pdfrwt>
<totfact> 0.10393266E+04</totfact>
</mgrwt>
</event>
<event>
 5    1  0.2989269E-047  0.1249974E+03  0.7818608E-02  0.1235073E+00
          3   -1    0    0  501    0  0.00000000000E+00  0.00000000000E+00  0.91679450817E+02  0.91679497987E+02  0.93000000000E-01 0. -1.
         -3   -1    0    0    0  501 -0.00000000000E+00 -0.00000000000E+00 -0.42605821683E+02  0.42605923184E+02  0.93000000000E-01 0.  1.
         25    2    1    2    0    0  0.00000000000E+00  0.00000000000E+00  0.49073629134E+02  0.13428542117E+03  0.12499741302E+03 0.  0.
        -13    1    3    3    0    0 -0.46153312752E+02 -0.42141257117E+02  0.24266495328E+02  0.67043924388E+02  0.10570000000E+00 0.  1.
         13    1    3    3    0    0  0.46153312752E+02  0.42141257117E+02  0.24807133806E+02  0.67241496783E+02  0.10570000000E+00 0. -1.
<mgrwt>
<rscale>  0 0.12499741E+03</rscale>
<asrwt>0</asrwt>
<pdfrwt beam="1">  1        3 0.14104542E-01 0.12499741E+03</pdfrwt>
<pdfrwt beam="2">  1       -3 0.65547533E-02 0.12499741E+03</pdfrwt>
<totfact> 0.13492655E+04</totfact>
</mgrwt>
</event>
<event>
 5    1  0.2989269E-047  0.1249997E+03  0.7818608E-02  0.1235070E+00
         -3   -1    0    0    0  501 -0.00000000000E+00  0.00000000000E+00  0.11497081163E+02  0.11497457296E+02  0.93000000000E-01 0.  1.
          3   -1    0    0  501    0  0.00000000000E+00 -0.00000000000E+00 -0.33975245490E+03  0.33975246763E+03  0.93000000000E-01 0. -1.
         25    2    1    2    0    0  0.00000000000E+00  0.00000000000E+00 -0.32825537374E+03  0.35124992493E+03  0.12499967749E+03 0.  0.
        -13    1    3    3    0    0  0.48890772753E+02 -0.34832834454E+02 -0.11524773194E+03  0.12994493028E+03  0.10570000000E+00 0.  1.
         13    1    3    3    0    0 -0.48890772753E+02  0.34832834454E+02 -0.21300764180E+03  0.22130499464E+03  0.10570000000E+00 0. -1.
<mgrwt>
<rscale>  0 0.12499968E+03</rscale>
<asrwt>0</asrwt>
<pdfrwt beam="2">  1        3 0.52269631E-01 0.12499968E+03</pdfrwt>
<pdfrwt beam="1">  1       -3 0.17688119E-02 0.12499968E+03</pdfrwt>
<totfact> 0.93708007E+03</totfact>
</mgrwt>
</event>
<event>
 5    1  0.2989269E-047  0.1250002E+03  0.7818608E-02  0.1235069E+00
          3   -1    0    0  501    0  0.00000000000E+00  0.00000000000E+00  0.71237992380E+02  0.71238053085E+02  0.93000000000E-01 0. -1.
         -3   -1    0    0    0  501 -0.00000000000E+00 -0.00000000000E+00 -0.54833841124E+02  0.54833919990E+02  0.93000000000E-01 0.  1.
         25    2    1    2    0    0  0.00000000000E+00  0.00000000000E+00  0.16404151256E+02  0.12607197307E+03  0.12500018487E+03 0.  0.
        -13    1    3    3    0    0  0.25730840328E+02  0.32204689824E+02  0.55583949061E+02  0.69201190426E+02  0.10570000000E+00 0. -1.
         13    1    3    3    0    0 -0.25730840328E+02 -0.32204689824E+02 -0.39179797805E+02  0.56870782649E+02  0.10570000000E+00 0.  1.
<mgrwt>
<rscale>  0 0.12500018E+03</rscale>
<asrwt>0</asrwt>
<pdfrwt beam="1">  1        3 0.10959702E-01 0.12500018E+03</pdfrwt>
<pdfrwt beam="2">  1       -3 0.84359863E-02 0.12500018E+03</pdfrwt>
<totfact> 0.13707588E+04</totfact>
</mgrwt>
</event>
<event>
 5    1  0.3042773E-047  0.1249965E+03  0.7818608E-02  0.1235075E+00
          3   -1    0    0  501    0  0.00000000000E+00  0.00000000000E+00  0.16167082603E+03  0.16167085278E+03  0.93000000000E-01 0. -1.
         -3   -1    0    0    0  501 -0.00000000000E+00 -0.00000000000E+00 -0.24160262203E+02  0.24160441195E+02  0.93000000000E-01 0.  1.
         25    2    1    2    0    0  0.00000000000E+00  0.00000000000E+00  0.13751056383E+03  0.18583129398E+03  0.12499645858E+03 0.  0.
        -13    1    3    3    0    0 -0.31319836227E+02 -0.44247990647E+02  0.22519368947E+02  0.58702214335E+02  0.10570000000E+00 0.  1.
         13    1    3    3    0    0  0.31319836227E+02  0.44247990647E+02  0.11499119488E+03  0.12712907964E+03  0.10570000000E+00 0. -1.
<mgrwt>
<rscale>  0 0.12499646E+03</rscale>
<asrwt>0</asrwt>
<pdfrwt beam="1">  1        3 0.24872452E-01 0.12499646E+03</pdfrwt>
<pdfrwt beam="2">  1       -3 0.37169791E-02 0.12499646E+03</pdfrwt>
<totfact> 0.12266393E+04</totfact>
</mgrwt>
</event>
<event>
 5    1  0.2989269E-047  0.1250064E+03  0.7818608E-02  0.1235059E+00
         -3   -1    0    0    0  501 -0.00000000000E+00  0.00000000000E+00  0.36028804564E+02  0.36028924593E+02  0.93000000000E-01 0.  1.
          3   -1    0    0  501    0  0.00000000000E+00 -0.00000000000E+00 -0.10843096169E+03  0.10843100157E+03  0.93000000000E-01 0. -1.
         25    2    1    2    0    0  0.00000000000E+00  0.00000000000E+00 -0.72402157122E+02  0.14445992616E+03  0.12500639148E+03 0.  0.
        -13    1    3    3    0    0 -0.16836864844E+02 -0.51037025950E+02 -0.73079316164E+02  0.90713040182E+02  0.10570000000E+00 0.  1.
         13    1    3    3    0    0  0.16836864844E+02  0.51037025950E+02  0.67715904231E+00  0.53746885979E+02  0.10570000000E+00 0. -1.
<mgrwt>
<rscale>  0 0.12500639E+03</rscale>
<asrwt>0</asrwt>
<pdfrwt beam="2">  1        3 0.16681699E-01 0.12500639E+03</pdfrwt>
<pdfrwt beam="1">  1       -3 0.55429054E-02 0.12500639E+03</pdfrwt>
<totfact> 0.13230898E+04</totfact>
</mgrwt>
</event>
<event>
 5    1  0.2989269E-047  0.1250295E+03  0.7818608E-02  0.1235023E+00
         -3   -1    0    0    0  501 -0.00000000000E+00  0.00000000000E+00  0.50467402585E+02  0.50467488274E+02  0.93000000000E-01 0.  1.
          3   -1    0    0  501    0  0.00000000000E+00 -0.00000000000E+00 -0.77437775590E+02  0.77437831435E+02  0.93000000000E-01 0. -1.
         25    2    1    2    0    0  0.00000000000E+00  0.00000000000E+00 -0.26970373005E+02  0.12790531971E+03  0.12502947568E+03 0.  0.
        -13    1    3    3    0    0 -0.54987361866E+02 -0.22385697544E+02  0.65445383050E+01  0.59729151791E+02  0.10570000000E+00 0.  1.
         13    1    3    3    0    0  0.54987361866E+02  0.22385697544E+02 -0.33514911310E+02  0.68176167919E+02  0.10570000000E+00 0. -1.
<mgrwt>
<rscale>  0 0.12502948E+03</rscale>
<asrwt>0</asrwt>
<pdfrwt beam="2">  1        3 0.11913515E-01 0.12502948E+03</pdfrwt>
<pdfrwt beam="1">  1       -3 0.77642267E-02 0.12502948E+03</pdfrwt>
<totfact> 0.13649784E+04</totfact>
</mgrwt>
</event>
<event>
 5    1  0.2989269E-047  0.1250036E+03  0.7818608E-02  0.1235064E+00
          3   -1    0    0  501    0  0.00000000000E+00  0.00000000000E+00  0.96814357219E+02  0.96814401887E+02  0.93000000000E-01 0. -1.
         -3   -1    0    0    0  501 -0.00000000000E+00 -0.00000000000E+00 -0.40350050369E+02  0.40350157544E+02  0.93000000000E-01 0.  1.
         25    2    1    2    0    0  0.00000000000E+00  0.00000000000E+00  0.56464306850E+02  0.13716455943E+03  0.12500359361E+03 0.  0.
        -13    1    3    3    0    0  0.29246330749E+02  0.33870876922E+02 -0.19646190124E+02  0.48872979494E+02  0.10570000000E+00 0.  1.
         13    1    3    3    0    0 -0.29246330749E+02 -0.33870876922E+02  0.76110496974E+02  0.88291579937E+02  0.10570000000E+00 0. -1.
<mgrwt>
<rscale>  0 0.12500359E+03</rscale>
<asrwt>0</asrwt>
<pdfrwt beam="1">  1        3 0.14894528E-01 0.12500359E+03</pdfrwt>
<pdfrwt beam="2">  1       -3 0.62077118E-02 0.12500359E+03</pdfrwt>
<totfact> 0.13416621E+04</totfact>
</mgrwt>
</event>
<event>
 5    1  0.2989269E-047  0.1249995E+03  0.7818608E-02  0.1235070E+00
         -3   -1    0    0    0  501 -0.00000000000E+00  0.00000000000E+00  0.19817639017E+03  0.19817641199E+03  0.93000000000E-01 0.  1.
          3   -1    0    0  501    0  0.00000000000E+00 -0.00000000000E+00 -0.19710681646E+02  0.19710901044E+02  0.93000000000E-01 0. -1.
         25    2    1    2    0    0  0.00000000000E+00  0.00000000000E+00  0.17846570853E+03  0.21788731304E+03  0.12499948825E+03 0.  0.
        -13    1    3    3    0    0  0.43290421565E+02  0.44523541995E+02  0.10153385236E+03  0.11901907720E+03  0.10570000000E+00 0.  1.
         13    1    3    3    0    0 -0.43290421565E+02 -0.44523541995E+02  0.76931856169E+02  0.98868235835E+02  0.10570000000E+00 0. -1.
<mgrwt>
<rscale>  0 0.12499949E+03</rscale>
<asrwt>0</asrwt>
<pdfrwt beam="2">  1        3 0.30324311E-02 0.12499949E+03</pdfrwt>
<pdfrwt beam="1">  1       -3 0.30488694E-01 0.12499949E+03</pdfrwt>
<totfact> 0.11595946E+04</totfact>
</mgrwt>
</event>
<event>
 5    1  0.2989269E-047  0.1250148E+03  0.7818608E-02  0.1235046E+00
         -3   -1    0    0    0  501 -0.00000000000E+00  0.00000000000E+00  0.47775891516E+02  0.47775982033E+02  0.93000000000E-01 0.  1.
          3   -1    0    0  501    0  0.00000000000E+00 -0.00000000000E+00 -0.81781067381E+02  0.81781120260E+02  0.93000000000E-01 0. -1.
         25    2    1    2    0    0  0.00000000000E+00  0.00000000000E+00 -0.34005175865E+02  0.12955710229E+03  0.12501476220E+03 0.  0.
        -13    1    3    3    0    0  0.34534859296E+02 -0.51902247948E+02 -0.21713257574E+02  0.66014972360E+02  0.10570000000E+00 0.  1.
         13    1    3    3    0    0 -0.34534859296E+02  0.51902247948E+02 -0.12291918291E+02  0.63542129933E+02  0.10570000000E+00 0. -1.
<mgrwt>
<rscale>  0 0.12501476E+03</rscale>
<asrwt>0</asrwt>
<pdfrwt beam="2">  1        3 0.12581714E-01 0.12501476E+03</pdfrwt>
<pdfrwt beam="1">  1       -3 0.73501482E-02 0.12501476E+03</pdfrwt>
<totfact> 0.13610838E+04</totfact>
</mgrwt>
</event>
<event>
 5    1  0.2989269E-047  0.1249991E+03  0.7818608E-02  0.1235071E+00
         -3   -1    0    0    0  501 -0.00000000000E+00  0.00000000000E+00  0.31894580542E+02  0.31894716129E+02  0.93000000000E-01 0.  1.
          3   -1    0    0  501    0  0.00000000000E+00 -0.00000000000E+00 -0.12247151651E+03  0.12247155182E+03  0.93000000000E-01 0. -1.
         25    2    1    2    0    0  0.00000000000E+00  0.00000000000E+00 -0.90576935967E+02  0.15436626795E+03  0.12499905340E+03 0.  0.
        -13    1    3    3    0    0 -0.58551989414E+02 -0.16960017653E+02 -0.28256955293E+02  0.67189614957E+02  0.10570000000E+00 0.  1.
         13    1    3    3    0    0  0.58551989414E+02  0.16960017653E+02 -0.62319980674E+02  0.87176652992E+02  0.10570000000E+00 0. -1.
<mgrwt>
<rscale>  0 0.12499905E+03</rscale>
<asrwt>0</asrwt>
<pdfrwt beam="2">  1        3 0.18841785E-01 0.12499905E+03</pdfrwt>
<pdfrwt beam="1">  1       -3 0.49068717E-02 0.12499905E+03</pdfrwt>
<totfact> 0.12989723E+04</totfact>
</mgrwt>
</event>
<event>
 5    1  0.2989269E-047  0.1249935E+03  0.7818608E-02  0.1235079E+00
         -3   -1    0    0    0  501 -0.00000000000E+00  0.00000000000E+00  0.77043756254E+02  0.77043812384E+02  0.93000000000E-01 0.  1.
          3   -1    0    0  501    0  0.00000000000E+00 -0.00000000000E+00 -0.50696315247E+02  0.50696400549E+02  0.93000000000E-01 0. -1.
         25    2    1    2    0    0  0.00000000000E+00  0.00000000000E+00  0.26347441007E+02  0.12774021293E+03  0.12499349724E+03 0.  0.
        -13    1    3    3    0    0  0.37856029442E+02 -0.26085795814E+02 -0.30091977627E+02  0.54946210045E+02  0.10570000000E+00 0. -1.
         13    1    3    3    0    0 -0.37856029442E+02  0.26085795814E+02  0.56439418634E+02  0.72794002888E+02  0.10570000000E+00 0.  1.
<mgrwt>
<rscale>  0 0.12499350E+03</rscale>
<asrwt>0</asrwt>
<pdfrwt beam="2">  1        3 0.77994440E-02 0.12499350E+03</pdfrwt>
<pdfrwt beam="1">  1       -3 0.11852896E-01 0.12499350E+03</pdfrwt>
<totfact> 0.13665370E+04</totfact>
</mgrwt>
</event>
<event>
 5    1  0.2989269E-047  0.1250006E+03  0.7818608E-02  0.1235068E+00
          3   -1    0    0  501    0  0.00000000000E+00  0.00000000000E+00  0.47193443550E+02  0.47193535184E+02  0.93000000000E-01 0.  1.
         -3   -1    0    0    0  501 -0.00000000000E+00 -0.00000000000E+00 -0.82771664597E+02  0.82771716843E+02  0.93000000000E-01 0. -1.
         25    2    1    2    0    0  0.00000000000E+00  0.00000000000E+00 -0.35578221047E+02  0.12996525203E+03  0.12500062768E+03 0.  0.
        -13    1    3    3    0    0  0.19140970144E+02 -0.55363101628E+02 -0.40445116793E+02  0.71184748400E+02  0.10570000000E+00 0. -1.
         13    1    3    3    0    0 -0.19140970144E+02  0.55363101628E+02  0.48668957468E+01  0.58780503626E+02  0.10570000000E+00 0.  1.
<mgrwt>
<rscale>  0 0.12500063E+03</rscale>
<asrwt>0</asrwt>
<pdfrwt beam="1">  1        3 0.72605409E-02 0.12500063E+03</pdfrwt>
<pdfrwt beam="2">  1       -3 0.12734113E-01 0.12500063E+03</pdfrwt>
<totfact> 0.13604649E+04</totfact>
</mgrwt>
</event>
<event>
 5    1  0.2989269E-047  0.1249971E+03  0.7818608E-02  0.1235074E+00
          3   -1    0    0  501    0  0.00000000000E+00  0.00000000000E+00  0.16381757018E+02  0.16382020998E+02  0.93000000000E-01 0. -1.
         -3   -1    0    0    0  501 -0.00000000000E+00 -0.00000000000E+00 -0.23843809239E+03  0.23843811052E+03  0.93000000000E-01 0.  1.
         25    2    1    2    0    0  0.00000000000E+00  0.00000000000E+00 -0.22205633537E+03  0.25482013152E+03  0.12499713337E+03 0.  0.
        -13    1    3    3    0    0 -0.57107567466E+02  0.28933426670E+01 -0.59599705875E+02  0.82594078520E+02  0.10570000000E+00 0. -1.
         13    1    3    3    0    0  0.57107567466E+02 -0.28933426670E+01 -0.16245662950E+03  0.17222605300E+03  0.10570000000E+00 0.  1.
<mgrwt>
<rscale>  0 0.12499713E+03</rscale>
<asrwt>0</asrwt>
<pdfrwt beam="1">  1        3 0.25202922E-02 0.12499713E+03</pdfrwt>
<pdfrwt beam="2">  1       -3 0.36682803E-01 0.12499713E+03</pdfrwt>
<totfact> 0.10898227E+04</totfact>
</mgrwt>
</event>
<event>
 5    1  0.2989269E-047  0.1250016E+03  0.7818608E-02  0.1235067E+00
         -3   -1    0    0    0  501 -0.00000000000E+00  0.00000000000E+00  0.83658292069E+02  0.83658343762E+02  0.93000000000E-01 0.  1.
          3   -1    0    0  501    0  0.00000000000E+00 -0.00000000000E+00 -0.46693995971E+02  0.46694088585E+02  0.93000000000E-01 0. -1.
         25    2    1    2    0    0  0.00000000000E+00  0.00000000000E+00  0.36964296098E+02  0.13035243235E+03  0.12500158972E+03 0.  0.
        -13    1    3    3    0    0 -0.14328093314E+02  0.49867271439E+02  0.54820602482E+02  0.75480783301E+02  0.10570000000E+00 0.  1.
         13    1    3    3    0    0  0.14328093314E+02 -0.49867271439E+02 -0.17856306384E+02  0.54871649045E+02  0.10570000000E+00 0. -1.
<mgrwt>
<rscale>  0 0.12500159E+03</rscale>
<asrwt>0</asrwt>
<pdfrwt beam="2">  1        3 0.71837028E-02 0.12500159E+03</pdfrwt>
<pdfrwt beam="1">  1       -3 0.12870518E-01 0.12500159E+03</pdfrwt>
<totfact> 0.13594229E+04</totfact>
</mgrwt>
</event>
<event>
 5    1  0.2989269E-047  0.1249992E+03  0.7818608E-02  0.1235070E+00
          3   -1    0    0  501    0  0.00000000000E+00  0.00000000000E+00  0.17578539084E+03  0.17578541544E+03  0.93000000000E-01 0.  1.
         -3   -1    0    0    0  501 -0.00000000000E+00 -0.00000000000E+00 -0.22221304803E+02  0.22221499413E+02  0.93000000000E-01 0. -1.
         25    2    1    2    0    0  0.00000000000E+00  0.00000000000E+00  0.15356408603E+03  0.19800691485E+03  0.12499923923E+03 0.  0.
        -13    1    3    3    0    0 -0.12083172670E+02 -0.56050299022E+02  0.37385223368E+02  0.68449289120E+02  0.10570000000E+00 0. -1.
         13    1    3    3    0    0  0.12083172670E+02  0.56050299022E+02  0.11617886266E+03  0.12955762573E+03  0.10570000000E+00 0.  1.
<mgrwt>
<rscale>  0 0.12499924E+03</rscale>
<asrwt>0</asrwt>
<pdfrwt beam="1">  1        3 0.27043924E-01 0.12499924E+03</pdfrwt>
<pdfrwt beam="2">  1       -3 0.34186791E-02 0.12499924E+03</pdfrwt>
<totfact> 0.12004355E+04</totfact>
</mgrwt>
</event>
<event>
 5    1  0.2989269E-047  0.1249997E+03  0.7818608E-02  0.1235070E+00
          3   -1    0    0  501    0  0.00000000000E+00  0.00000000000E+00  0.21687433261E+02  0.21687632661E+02  0.93000000000E-01 0. -1.
         -3   -1    0    0    0  501 -0.00000000000E+00 -0.00000000000E+00 -0.18011399500E+03  0.18011401900E+03  0.93000000000E-01 0.  1.
         25    2    1    2    0    0  0.00000000000E+00  0.00000000000E+00 -0.15842656173E+03  0.20180165167E+03  0.12499972461E+03 0.  0.
        -13    1    3    3    0    0  0.61713184137E+02 -0.56016010606E+01 -0.92361274297E+02  0.11122279979E+03  0.10570000000E+00 0.  1.
         13    1    3    3    0    0 -0.61713184137E+02  0.56016010606E+01 -0.66065287437E+02  0.90578851877E+02  0.10570000000E+00 0. -1.
<mgrwt>
<rscale>  0 0.12499972E+03</rscale>
<asrwt>0</asrwt>
<pdfrwt beam="1">  1        3 0.33365455E-02 0.12499972E+03</pdfrwt>
<pdfrwt beam="2">  1       -3 0.27709862E-01 0.12499972E+03</pdfrwt>
<totfact> 0.11923880E+04</totfact>
</mgrwt>
</event>
<event>
 5    1  0.2989269E-047  0.1249970E+03  0.7818608E-02  0.1235074E+00
          3   -1    0    0  501    0  0.00000000000E+00  0.00000000000E+00  0.19214670839E+03  0.19214673089E+03  0.93000000000E-01 0. -1.
         -3   -1    0    0    0  501 -0.00000000000E+00 -0.00000000000E+00 -0.20328422551E+02  0.20328635282E+02  0.93000000000E-01 0.  1.
         25    2    1    2    0    0  0.00000000000E+00  0.00000000000E+00  0.17181828583E+03  0.21247536617E+03  0.12499703150E+03 0.  0.
        -13    1    3    3    0    0 -0.55573469736E+02 -0.24337919478E+02  0.60394023050E+02  0.85604871682E+02  0.10570000000E+00 0.  1.
         13    1    3    3    0    0  0.55573469736E+02  0.24337919478E+02  0.11142426278E+03  0.12687049449E+03  0.10570000000E+00 0. -1.
<mgrwt>
<rscale>  0 0.12499703E+03</rscale>
<asrwt>0</asrwt>
<pdfrwt beam="1">  1        3 0.29561049E-01 0.12499703E+03</pdfrwt>
<pdfrwt beam="2">  1       -3 0.31274678E-02 0.12499703E+03</pdfrwt>
<totfact> 0.11706213E+04</totfact>
</mgrwt>
</event>
<event>
 5    1  0.2989269E-047  0.1249859E+03  0.7818608E-02  0.1235091E+00
         -3   -1    0    0    0  501 -0.00000000000E+00  0.00000000000E+00  0.13937822228E+02  0.13938132496E+02  0.93000000000E-01 0.  1.
          3   -1    0    0  501    0  0.00000000000E+00 -0.00000000000E+00 -0.28019580122E+03  0.28019581666E+03  0.93000000000E-01 0. -1.
         25    2    1    2    0    0  0.00000000000E+00  0.00000000000E+00 -0.26625797899E+03  0.29413394915E+03  0.12498587386E+03 0.  0.
        -13    1    3    3    0    0 -0.46024430035E+02 -0.32764842297E+02 -0.19599319195E+03  0.20397334511E+03  0.10570000000E+00 0.  1.
         13    1    3    3    0    0  0.46024430035E+02  0.32764842297E+02 -0.70264787041E+02  0.90160604042E+02  0.10570000000E+00 0. -1.
<mgrwt>
<rscale>  0 0.12498587E+03</rscale>
<asrwt>0</asrwt>
<pdfrwt beam="2">  1        3 0.43107067E-01 0.12498587E+03</pdfrwt>
<pdfrwt beam="1">  1       -3 0.21443056E-02 0.12498587E+03</pdfrwt>
<totfact> 0.10233937E+04</totfact>
</mgrwt>
</event>
<event>
 5    1  0.2989269E-047  0.1250102E+03  0.7818608E-02  0.1235053E+00
          3   -1    0    0  501    0  0.00000000000E+00  0.00000000000E+00  0.57169725534E+02  0.57169801177E+02  0.93000000000E-01 0. -1.
         -3   -1    0    0    0  501 -0.00000000000E+00 -0.00000000000E+00 -0.68338242450E+02  0.68338305731E+02  0.93000000000E-01 0.  1.
         25    2    1    2    0    0  0.00000000000E+00  0.00000000000E+00 -0.11168516916E+02  0.12550810691E+03  0.12501019610E+03 0.  0.
        -13    1    3    3    0    0  0.48801796398E+02 -0.37450444022E+02 -0.16706514781E+02  0.63743783209E+02  0.10570000000E+00 0.  1.
         13    1    3    3    0    0 -0.48801796398E+02  0.37450444022E+02  0.55379978645E+01  0.61764323699E+02  0.10570000000E+00 0. -1.
<mgrwt>
<rscale>  0 0.12501020E+03</rscale>
<asrwt>0</asrwt>
<pdfrwt beam="1">  1        3 0.87953531E-02 0.12501020E+03</pdfrwt>
<pdfrwt beam="2">  1       -3 0.10513586E-01 0.12501020E+03</pdfrwt>
<totfact> 0.13719744E+04</totfact>
</mgrwt>
</event>
<event>
 5    1  0.2989269E-047  0.1250013E+03  0.7818608E-02  0.1235067E+00
         -3   -1    0    0    0  501 -0.00000000000E+00  0.00000000000E+00  0.84491296672E+02  0.84491347854E+02  0.93000000000E-01 0.  1.
          3   -1    0    0  501    0  0.00000000000E+00 -0.00000000000E+00 -0.46233431208E+02  0.46233524744E+02  0.93000000000E-01 0. -1.
         25    2    1    2    0    0  0.00000000000E+00  0.00000000000E+00  0.38257865464E+02  0.13072487260E+03  0.12500131218E+03 0.  0.
        -13    1    3    3    0    0 -0.61179192521E+02 -0.11586093717E+02  0.24779060606E+02  0.67015999448E+02  0.10570000000E+00 0.  1.
         13    1    3    3    0    0  0.61179192521E+02  0.11586093717E+02  0.13478804858E+02  0.63708873150E+02  0.10570000000E+00 0. -1.
<mgrwt>
<rscale>  0 0.12500131E+03</rscale>
<asrwt>0</asrwt>
<pdfrwt beam="2">  1        3 0.71128467E-02 0.12500131E+03</pdfrwt>
<pdfrwt beam="1">  1       -3 0.12998672E-01 0.12500131E+03</pdfrwt>
<totfact> 0.13584544E+04</totfact>
</mgrwt>
</event>
<event>
 5    1  0.2989269E-047  0.1250002E+03  0.7818608E-02  0.1235069E+00
          3   -1    0    0  501    0  0.00000000000E+00  0.00000000000E+00  0.18007211202E+03  0.18007213603E+03  0.93000000000E-01 0. -1.
         -3   -1    0    0    0  501 -0.00000000000E+00 -0.00000000000E+00 -0.21692658081E+02  0.21692857433E+02  0.93000000000E-01 0.  1.
         25    2    1    2    0    0  0.00000000000E+00  0.00000000000E+00  0.15837945394E+03  0.20176499347E+03  0.12500024464E+03 0.  0.
        -13    1    3    3    0    0  0.34716944781E+02  0.51289600859E+02  0.65649922467E+02  0.90254157265E+02  0.10570000000E+00 0.  1.
         13    1    3    3    0    0 -0.34716944781E+02 -0.51289600859E+02  0.92729531471E+02  0.11151083620E+03  0.10570000000E+00 0. -1.
<mgrwt>
<rscale>  0 0.12500024E+03</rscale>
<asrwt>0</asrwt>
<pdfrwt beam="1">  1        3 0.27703418E-01 0.12500024E+03</pdfrwt>
<pdfrwt beam="2">  1       -3 0.33373493E-02 0.12500024E+03</pdfrwt>
<totfact> 0.11925268E+04</totfact>
</mgrwt>
</event>
<event>
 5    1  0.2989269E-047  0.1249987E+03  0.7818608E-02  0.1235071E+00
         -3   -1    0    0    0  501 -0.00000000000E+00  0.00000000000E+00  0.99638297851E+02  0.99638341253E+02  0.93000000000E-01 0.  1.
          3   -1    0    0  501    0  0.00000000000E+00 -0.00000000000E+00 -0.39203372481E+02  0.39203482790E+02  0.93000000000E-01 0. -1.
         25    2    1    2    0    0  0.00000000000E+00  0.00000000000E+00  0.60434925370E+02  0.13884182404E+03  0.12499868759E+03 0.  0.
        -13    1    3    3    0    0  0.25383594034E+02 -0.10191516886E+02  0.92636687654E+02  0.96590687618E+02  0.10570000000E+00 0.  1.
         13    1    3    3    0    0 -0.25383594034E+02  0.10191516886E+02 -0.32201762284E+02  0.42251136425E+02  0.10570000000E+00 0. -1.
<mgrwt>
<rscale>  0 0.12499869E+03</rscale>
<asrwt>0</asrwt>
<pdfrwt beam="2">  1        3 0.60313000E-02 0.12499869E+03</pdfrwt>
<pdfrwt beam="1">  1       -3 0.15328980E-01 0.12499869E+03</pdfrwt>
<totfact> 0.13375372E+04</totfact>
</mgrwt>
</event>
<event>
 5    1  0.2989269E-047  0.1250033E+03  0.7818608E-02  0.1235064E+00
          3   -1    0    0  501    0  0.00000000000E+00  0.00000000000E+00  0.34876030929E+03  0.34876032169E+03  0.93000000000E-01 0. -1.
         -3   -1    0    0    0  501 -0.00000000000E+00 -0.00000000000E+00 -0.11200774917E+02  0.11201161000E+02  0.93000000000E-01 0.  1.
         25    2    1    2    0    0  0.00000000000E+00  0.00000000000E+00  0.33755953437E+03  0.35996148269E+03  0.12500331905E+03 0.  0.
        -13    1    3    3    0    0 -0.38684988836E+02 -0.35642401158E+02  0.26598703385E+03  0.27113838252E+03  0.10570000000E+00 0. -1.
         13    1    3    3    0    0  0.38684988836E+02  0.35642401158E+02  0.71572500514E+02  0.88823100170E+02  0.10570000000E+00 0.  1.
<mgrwt>
<rscale>  0 0.12500332E+03</rscale>
<asrwt>0</asrwt>
<pdfrwt beam="1">  1        3 0.53655469E-01 0.12500332E+03</pdfrwt>
<pdfrwt beam="2">  1       -3 0.17232266E-02 0.12500332E+03</pdfrwt>
<totfact> 0.92490915E+03</totfact>
</mgrwt>
</event>
<event>
 5    1  0.2989269E-047  0.1250035E+03  0.7818608E-02  0.1235064E+00
          3   -1    0    0  501    0  0.00000000000E+00  0.00000000000E+00  0.56072431661E+02  0.56072508784E+02  0.93000000000E-01 0.  1.
         -3   -1    0    0    0  501 -0.00000000000E+00 -0.00000000000E+00 -0.69668155544E+02  0.69668217617E+02  0.93000000000E-01 0. -1.
         25    2    1    2    0    0  0.00000000000E+00  0.00000000000E+00 -0.13595723883E+02  0.12574072640E+03  0.12500354622E+03 0.  0.
        -13    1    3    3    0    0 -0.59220212269E+02 -0.15134080175E+02 -0.19928060097E+02  0.64290066695E+02  0.10570000000E+00 0. -1.
         13    1    3    3    0    0  0.59220212269E+02  0.15134080175E+02  0.63323362136E+01  0.61450659706E+02  0.10570000000E+00 0.  1.
<mgrwt>
<rscale>  0 0.12500355E+03</rscale>
<asrwt>0</asrwt>
<pdfrwt beam="1">  1        3 0.86265387E-02 0.12500355E+03</pdfrwt>
<pdfrwt beam="2">  1       -3 0.10718188E-01 0.12500355E+03</pdfrwt>
<totfact> 0.13715527E+04</totfact>
</mgrwt>
</event>
<event>
 5    1  0.3238313E-047  0.1249969E+03  0.7818608E-02  0.1235074E+00
          3   -1    0    0  501    0  0.00000000000E+00  0.00000000000E+00  0.40485437529E+02  0.40485544345E+02  0.93000000000E-01 0.  1.
         -3   -1    0    0    0  501 -0.00000000000E+00 -0.00000000000E+00 -0.96480342280E+02  0.96480387102E+02  0.93000000000E-01 0. -1.
         25    2    1    2    0    0  0.00000000000E+00  0.00000000000E+00 -0.55994904751E+02  0.13696593145E+03  0.12499694804E+03 0.  0.
        -13    1    3    3    0    0  0.58426243823E+02 -0.74631018719E+01 -0.50896466642E+02  0.77844623102E+02  0.10570000000E+00 0. -1.
         13    1    3    3    0    0 -0.58426243823E+02  0.74631018719E+01 -0.50984381093E+01  0.59121308345E+02  0.10570000000E+00 0.  1.
<mgrwt>
<rscale>  0 0.12499695E+03</rscale>
<asrwt>0</asrwt>
<pdfrwt beam="1">  1        3 0.62285406E-02 0.12499695E+03</pdfrwt>
<pdfrwt beam="2">  1       -3 0.14843141E-01 0.12499695E+03</pdfrwt>
<totfact> 0.13423918E+04</totfact>
</mgrwt>
</event>
<event>
 5    1  0.2989269E-047  0.1249932E+03  0.7818608E-02  0.1235080E+00
          3   -1    0    0  501    0  0.00000000000E+00  0.00000000000E+00  0.15499024408E+02  0.15499303423E+02  0.93000000000E-01 0. -1.
         -3   -1    0    0    0  501 -0.00000000000E+00 -0.00000000000E+00 -0.25200186127E+03  0.25200187843E+03  0.93000000000E-01 0.  1.
         25    2    1    2    0    0  0.00000000000E+00  0.00000000000E+00 -0.23650283686E+03  0.26750118186E+03  0.12499316161E+03 0.  0.
        -13    1    3    3    0    0 -0.31404201753E+02  0.51422222065E+02 -0.15376350412E+03  0.16514749524E+03  0.10570000000E+00 0.  1.
         13    1    3    3    0    0  0.31404201753E+02 -0.51422222065E+02 -0.82739332738E+02  0.10235368662E+03  0.10570000000E+00 0. -1.
<mgrwt>
<rscale>  0 0.12499316E+03</rscale>
<asrwt>0</asrwt>
<pdfrwt beam="1">  1        3 0.23844883E-02 0.12499316E+03</pdfrwt>
<pdfrwt beam="2">  1       -3 0.38769537E-01 0.12499316E+03</pdfrwt>
<totfact> 0.10675456E+04</totfact>
</mgrwt>
</event>
<event>
 5    1  0.2989269E-047  0.1249953E+03  0.7818608E-02  0.1235077E+00
         -3   -1    0    0    0  501 -0.00000000000E+00  0.00000000000E+00  0.15477999211E+02  0.15478278606E+02  0.93000000000E-01 0.  1.
          3   -1    0    0  501    0  0.00000000000E+00 -0.00000000000E+00 -0.25235284665E+03  0.25235286379E+03  0.93000000000E-01 0. -1.
         25    2    1    2    0    0  0.00000000000E+00  0.00000000000E+00 -0.23687484744E+03  0.26783114239E+03  0.12499530986E+03 0.  0.
        -13    1    3    3    0    0 -0.89614262325E+01  0.60901578702E+02 -0.95296316670E+02  0.11344914540E+03  0.10570000000E+00 0. -1.
         13    1    3    3    0    0  0.89614262325E+01 -0.60901578702E+02 -0.14157853077E+03  0.15438199699E+03  0.10570000000E+00 0.  1.
<mgrwt>
<rscale>  0 0.12499531E+03</rscale>
<asrwt>0</asrwt>
<pdfrwt beam="2">  1        3 0.38823535E-01 0.12499531E+03</pdfrwt>
<pdfrwt beam="1">  1       -3 0.23812536E-02 0.12499531E+03</pdfrwt>
<totfact> 0.10671680E+04</totfact>
</mgrwt>
</event>
<event>
 5    1  0.2989269E-047  0.1250034E+03  0.7818608E-02  0.1235064E+00
          3   -1    0    0  501    0  0.00000000000E+00  0.00000000000E+00  0.22697434642E+02  0.22697625169E+02  0.93000000000E-01 0. -1.
         -3   -1    0    0    0  501 -0.00000000000E+00 -0.00000000000E+00 -0.17210949418E+03  0.17210951931E+03  0.93000000000E-01 0.  1.
         25    2    1    2    0    0  0.00000000000E+00  0.00000000000E+00 -0.14941205954E+03  0.19480714448E+03  0.12500343997E+03 0.  0.
        -13    1    3    3    0    0  0.52207073785E+02  0.25071715678E+02 -0.11132990397E+03  0.12549313994E+03  0.10570000000E+00 0.  1.
         13    1    3    3    0    0 -0.52207073785E+02 -0.25071715678E+02 -0.38082155567E+02  0.69314004540E+02  0.10570000000E+00 0. -1.
<mgrwt>
<rscale>  0 0.12500344E+03</rscale>
<asrwt>0</asrwt>
<pdfrwt beam="1">  1        3 0.34919297E-02 0.12500344E+03</pdfrwt>
<pdfrwt beam="2">  1       -3 0.26478399E-01 0.12500344E+03</pdfrwt>
<totfact> 0.12070320E+04</totfact>
</mgrwt>
</event>
<event>
 5    1  0.2989269E-047  0.1249978E+03  0.7818608E-02  0.1235073E+00
         -3   -1    0    0    0  501 -0.00000000000E+00  0.00000000000E+00  0.62286053852E+02  0.62286123282E+02  0.93000000000E-01 0.  1.
          3   -1    0    0  501    0  0.00000000000E+00 -0.00000000000E+00 -0.62712365085E+02  0.62712434043E+02  0.93000000000E-01 0. -1.
         25    2    1    2    0    0  0.00000000000E+00  0.00000000000E+00 -0.42631123242E+00  0.12499855732E+03  0.12499783035E+03 0.  0.
        -13    1    3    3    0    0  0.15102736412E+02  0.56510700452E+02  0.21799498677E+02  0.62424203862E+02  0.10570000000E+00 0.  1.
         13    1    3    3    0    0 -0.15102736412E+02 -0.56510700452E+02 -0.22225809909E+02  0.62574353463E+02  0.10570000000E+00 0. -1.
<mgrwt>
<rscale>  0 0.12499783E+03</rscale>
<asrwt>0</asrwt>
<pdfrwt beam="2">  1        3 0.96480668E-02 0.12499783E+03</pdfrwt>
<pdfrwt beam="1">  1       -3 0.95824804E-02 0.12499783E+03</pdfrwt>
<totfact> 0.13737132E+04</totfact>
</mgrwt>
</event>
<event>
 5    1  0.2989269E-047  0.1249992E+03  0.7818608E-02  0.1235071E+00
          3   -1    0    0  501    0  0.00000000000E+00  0.00000000000E+00  0.42946739314E+02  0.42946840008E+02  0.93000000000E-01 0. -1.
         -3   -1    0    0    0  501 -0.00000000000E+00 -0.00000000000E+00 -0.90954289394E+02  0.90954336939E+02  0.93000000000E-01 0.  1.
         25    2    1    2    0    0  0.00000000000E+00  0.00000000000E+00 -0.48007550080E+02  0.13390117695E+03  0.12499920129E+03 0.  0.
        -13    1    3    3    0    0 -0.13752490914E+02 -0.59575341223E+02 -0.37881571672E+02  0.71926190870E+02  0.10570000000E+00 0.  1.
         13    1    3    3    0    0  0.13752490914E+02  0.59575341223E+02 -0.10125978407E+02  0.61974986078E+02  0.10570000000E+00 0. -1.
<mgrwt>
<rscale>  0 0.12499920E+03</rscale>
<asrwt>0</asrwt>
<pdfrwt beam="1">  1        3 0.66072021E-02 0.12499920E+03</pdfrwt>
<pdfrwt beam="2">  1       -3 0.13992979E-01 0.12499920E+03</pdfrwt>
<totfact> 0.13502263E+04</totfact>
</mgrwt>
</event>
<event>
 5    1  0.2989269E-047  0.1249995E+03  0.7818608E-02  0.1235070E+00
         -3   -1    0    0    0  501 -0.00000000000E+00  0.00000000000E+00  0.28500385395E+03  0.28500386912E+03  0.93000000000E-01 0.  1.
          3   -1    0    0  501    0  0.00000000000E+00 -0.00000000000E+00 -0.13705675639E+02  0.13705991161E+02  0.93000000000E-01 0. -1.
         25    2    1    2    0    0  0.00000000000E+00  0.00000000000E+00  0.27129817831E+03  0.29870986028E+03  0.12499951630E+03 0.  0.
        -13    1    3    3    0    0 -0.52893569387E+02 -0.24097923201E+02  0.80750248962E+02  0.99493987079E+02  0.10570000000E+00 0.  1.
         13    1    3    3    0    0  0.52893569387E+02  0.24097923201E+02  0.19054792935E+03  0.19921587320E+03  0.10570000000E+00 0. -1.
<mgrwt>
<rscale>  0 0.12499952E+03</rscale>
<asrwt>0</asrwt>
<pdfrwt beam="2">  1        3 0.21085911E-02 0.12499952E+03</pdfrwt>
<pdfrwt beam="1">  1       -3 0.43846769E-01 0.12499952E+03</pdfrwt>
<totfact> 0.10153991E+04</totfact>
</mgrwt>
</event>
<event>
 5    1  0.2989269E-047  0.1249964E+03  0.7818608E-02  0.1235075E+00
         -3   -1    0    0    0  501 -0.00000000000E+00  0.00000000000E+00  0.77967022055E+02  0.77967077521E+02  0.93000000000E-01 0.  1.
          3   -1    0    0  501    0  0.00000000000E+00 -0.00000000000E+00 -0.50098313704E+02  0.50098400024E+02  0.93000000000E-01 0. -1.
         25    2    1    2    0    0  0.00000000000E+00  0.00000000000E+00  0.27868708351E+02  0.12806547755E+03  0.12499640648E+03 0.  0.
        -13    1    3    3    0    0 -0.10164580795E+02 -0.58897479556E+02 -0.47839407166E+01  0.59959395111E+02  0.10570000000E+00 0.  1.
         13    1    3    3    0    0  0.10164580795E+02  0.58897479556E+02  0.32652649068E+02  0.68106082434E+02  0.10570000000E+00 0. -1.
<mgrwt>
<rscale>  0 0.12499641E+03</rscale>
<asrwt>0</asrwt>
<pdfrwt beam="2">  1        3 0.77074438E-02 0.12499641E+03</pdfrwt>
<pdfrwt beam="1">  1       -3 0.11994937E-01 0.12499641E+03</pdfrwt>
<totfact> 0.13655877E+04</totfact>
</mgrwt>
</event>
<event>
 5    1  0.2989269E-047  0.1249925E+03  0.7818608E-02  0.1235081E+00
          3   -1    0    0  501    0  0.00000000000E+00  0.00000000000E+00  0.13291207313E+02  0.13291532674E+02  0.93000000000E-01 0. -1.
         -3   -1    0    0    0  501 -0.00000000000E+00 -0.00000000000E+00 -0.29385819029E+03  0.29385820501E+03  0.93000000000E-01 0.  1.
         25    2    1    2    0    0  0.00000000000E+00  0.00000000000E+00 -0.28056698298E+03  0.30714973768E+03  0.12499251746E+03 0.  0.
        -13    1    3    3    0    0  0.48221330269E+02 -0.39538732984E+02 -0.13010311608E+03  0.14427556995E+03  0.10570000000E+00 0. -1.
         13    1    3    3    0    0 -0.48221330269E+02  0.39538732984E+02 -0.15046386690E+03  0.16287416773E+03  0.10570000000E+00 0.  1.
<mgrwt>
<rscale>  0 0.12499252E+03</rscale>
<asrwt>0</asrwt>
<pdfrwt beam="1">  1        3 0.20448275E-02 0.12499252E+03</pdfrwt>
<pdfrwt beam="2">  1       -3 0.45208974E-01 0.12499252E+03</pdfrwt>
<totfact> 0.10021982E+04</totfact>
</mgrwt>
</event>
<event>
 5    1  0.2989269E-047  0.1250026E+03  0.7818608E-02  0.1235065E+00
          3   -1    0    0  501    0  0.00000000000E+00  0.00000000000E+00  0.26865888383E+03  0.26865889992E+03  0.93000000000E-01 0. -1.
         -3   -1    0    0    0  501 -0.00000000000E+00 -0.00000000000E+00 -0.14540260012E+02  0.14540557425E+02  0.93000000000E-01 0.  1.
         25    2    1    2    0    0  0.00000000000E+00  0.00000000000E+00  0.25411862382E+03  0.28319945735E+03  0.12500263066E+03 0.  0.
        -13    1    3    3    0    0 -0.51951356850E+02 -0.47578144808E+01  0.49076301500E+02  0.71624540617E+02  0.10570000000E+00 0.  1.
         13    1    3    3    0    0  0.51951356850E+02  0.47578144808E+01  0.20504232232E+03  0.21157491673E+03  0.10570000000E+00 0. -1.
<mgrwt>
<rscale>  0 0.12500263E+03</rscale>
<asrwt>0</asrwt>
<pdfrwt beam="1">  1        3 0.41332158E-01 0.12500263E+03</pdfrwt>
<pdfrwt beam="2">  1       -3 0.22369873E-02 0.12500263E+03</pdfrwt>
<totfact> 0.10409298E+04</totfact>
</mgrwt>
</event>
<event>
 5    1  0.2989269E-047  0.1249987E+03  0.7818608E-02  0.1235071E+00
          3   -1    0    0  501    0  0.00000000000E+00  0.00000000000E+00  0.64513593308E+03  0.64513593978E+03  0.93000000000E-01 0.  1.
         -3   -1    0    0    0  501 -0.00000000000E+00 -0.00000000000E+00 -0.60544378936E+01  0.60551521209E+01  0.93000000000E-01 0. -1.
         25    2    1    2    0    0  0.00000000000E+00  0.00000000000E+00  0.63908149519E+03  0.65119109191E+03  0.12499872274E+03 0.  0.
        -13    1    3    3    0    0 -0.47441271784E+02 -0.40682168015E+02  0.32301962550E+03  0.32900973039E+03  0.10570000000E+00 0. -1.
         13    1    3    3    0    0  0.47441271784E+02  0.40682168015E+02  0.31606186969E+03  0.32218136151E+03  0.10570000000E+00 0.  1.
<mgrwt>
<rscale>  0 0.12499872E+03</rscale>
<asrwt>0</asrwt>
<pdfrwt beam="1">  1        3 0.99251743E-01 0.12499872E+03</pdfrwt>
<pdfrwt beam="2">  1       -3 0.93150739E-03 0.12499872E+03</pdfrwt>
<totfact> 0.62783685E+03</totfact>
</mgrwt>
</event>
<event>
 5    1  0.2989269E-047  0.1250007E+03  0.7818608E-02  0.1235068E+00
          3   -1    0    0  501    0  0.00000000000E+00  0.00000000000E+00  0.11745626916E+02  0.11745995090E+02  0.93000000000E-01 0. -1.
         -3   -1    0    0    0  501 -0.00000000000E+00 -0.00000000000E+00 -0.33256846662E+03  0.33256847963E+03  0.93000000000E-01 0.  1.
         25    2    1    2    0    0  0.00000000000E+00  0.00000000000E+00 -0.32082283971E+03  0.34431447472E+03  0.12500065209E+03 0.  0.
        -13    1    3    3    0    0 -0.39449000400E+02  0.46667150805E+02 -0.19656082604E+03  0.20584026842E+03  0.10570000000E+00 0.  1.
         13    1    3    3    0    0  0.39449000400E+02 -0.46667150805E+02 -0.12426201367E+03  0.13847420630E+03  0.10570000000E+00 0. -1.
<mgrwt>
<rscale>  0 0.12500065E+03</rscale>
<asrwt>0</asrwt>
<pdfrwt beam="1">  1        3 0.18070491E-02 0.12500065E+03</pdfrwt>
<pdfrwt beam="2">  1       -3 0.51164402E-01 0.12500065E+03</pdfrwt>
<totfact> 0.94640596E+03</totfact>
</mgrwt>
</event>
<event>
 5    1  0.2989269E-047  0.1249898E+03  0.7818608E-02  0.1235085E+00
         -3   -1    0    0    0  501 -0.00000000000E+00  0.00000000000E+00  0.29375691485E+03  0.29375692957E+03  0.93000000000E-01 0.  1.
          3   -1    0    0  501    0  0.00000000000E+00 -0.00000000000E+00 -0.13295221549E+02  0.13295546812E+02  0.93000000000E-01 0. -1.
         25    2    1    2    0    0  0.00000000000E+00  0.00000000000E+00  0.28046169330E+03  0.30705247638E+03  0.12498984696E+03 0.  0.
        -13    1    3    3    0    0 -0.24756437834E+02 -0.49597611104E+02  0.69337049462E+02  0.88771852758E+02  0.10570000000E+00 0. -1.
         13    1    3    3    0    0  0.24756437834E+02  0.49597611104E+02  0.21112464383E+03  0.21828062362E+03  0.10570000000E+00 0.  1.
<mgrwt>
<rscale>  0 0.12498985E+03</rscale>
<asrwt>0</asrwt>
<pdfrwt beam="2">  1        3 0.20454447E-02 0.12498985E+03</pdfrwt>
<pdfrwt beam="1">  1       -3 0.45193400E-01 0.12498985E+03</pdfrwt>
<totfact> 0.10024101E+04</totfact>
</mgrwt>
</event>
<event>
 5    1  0.2989269E-047  0.1249934E+03  0.7818608E-02  0.1235080E+00
          3   -1    0    0  501    0  0.00000000000E+00  0.00000000000E+00  0.21077674854E+02  0.21077880023E+02  0.93000000000E-01 0. -1.
         -3   -1    0    0    0  501 -0.00000000000E+00 -0.00000000000E+00 -0.18530587269E+03  0.18530589603E+03  0.93000000000E-01 0.  1.
         25    2    1    2    0    0  0.00000000000E+00  0.00000000000E+00 -0.16422819783E+03  0.20638377605E+03  0.12499344804E+03 0.  0.
        -13    1    3    3    0    0 -0.52184186135E+02 -0.31840282868E+02 -0.10356874748E+03  0.12026424873E+03  0.10570000000E+00 0.  1.
         13    1    3    3    0    0  0.52184186135E+02  0.31840282868E+02 -0.60659450350E+02  0.86119527315E+02  0.10570000000E+00 0. -1.
<mgrwt>
<rscale>  0 0.12499345E+03</rscale>
<asrwt>0</asrwt>
<pdfrwt beam="1">  1        3 0.32427369E-02 0.12499345E+03</pdfrwt>
<pdfrwt beam="2">  1       -3 0.28508612E-01 0.12499345E+03</pdfrwt>
<totfact> 0.11830508E+04</totfact>
</mgrwt>
</event>
<event>
 5    1  0.2989269E-047  0.1249998E+03  0.7818608E-02  0.1235070E+00
          3   -1    0    0  501    0  0.00000000000E+00  0.00000000000E+00  0.21568686319E+02  0.21568886817E+02  0.93000000000E-01 0. -1.
         -3   -1    0    0    0  501 -0.00000000000E+00 -0.00000000000E+00 -0.18110574443E+03  0.18110576831E+03  0.93000000000E-01 0.  1.
         25    2    1    2    0    0  0.00000000000E+00  0.00000000000E+00 -0.15953705811E+03  0.20267465513E+03  0.12499977168E+03 0.  0.
        -13    1    3    3    0    0  0.39450345341E+02 -0.48275252219E+02 -0.72627953068E+02  0.95716563163E+02  0.10570000000E+00 0.  1.
         13    1    3    3    0    0 -0.39450345341E+02  0.48275252219E+02 -0.86909105044E+02  0.10695809196E+03  0.10570000000E+00 0. -1.
<mgrwt>
<rscale>  0 0.12499977E+03</rscale>
<asrwt>0</asrwt>
<pdfrwt beam="1">  1        3 0.33182768E-02 0.12499977E+03</pdfrwt>
<pdfrwt beam="2">  1       -3 0.27862438E-01 0.12499977E+03</pdfrwt>
<totfact> 0.11905660E+04</totfact>
</mgrwt>
</event>
<event>
 5    1  0.2989269E-047  0.1250054E+03  0.7818608E-02  0.1235061E+00
         -3   -1    0    0    0  501 -0.00000000000E+00  0.00000000000E+00  0.24962916255E+02  0.24963089492E+02  0.93000000000E-01 0.  1.
          3   -1    0    0  501    0  0.00000000000E+00 -0.00000000000E+00 -0.15649492009E+03  0.15649494772E+03  0.93000000000E-01 0. -1.
         25    2    1    2    0    0  0.00000000000E+00  0.00000000000E+00 -0.13153200383E+03  0.18145803721E+03  0.12500540483E+03 0.  0.
        -13    1    3    3    0    0 -0.43966624684E+02  0.32041426210E+02 -0.21098650489E+02  0.58351360777E+02  0.10570000000E+00 0.  1.
         13    1    3    3    0    0  0.43966624684E+02 -0.32041426210E+02 -0.11043335334E+03  0.12310667643E+03  0.10570000000E+00 0. -1.
<mgrwt>
<rscale>  0 0.12500540E+03</rscale>
<asrwt>0</asrwt>
<pdfrwt beam="2">  1        3 0.24076156E-01 0.12500540E+03</pdfrwt>
<pdfrwt beam="1">  1       -3 0.38404642E-02 0.12500540E+03</pdfrwt>
<totfact> 0.12360229E+04</totfact>
</mgrwt>
</event>
<event>
 5    1  0.2989269E-047  0.1249995E+03  0.7818608E-02  0.1235070E+00
         -3   -1    0    0    0  501 -0.00000000000E+00  0.00000000000E+00  0.27205789447E+02  0.27205948402E+02  0.93000000000E-01 0.  1.
          3   -1    0    0  501    0  0.00000000000E+00 -0.00000000000E+00 -0.14357980636E+03  0.14357983648E+03  0.93000000000E-01 0. -1.
         25    2    1    2    0    0  0.00000000000E+00  0.00000000000E+00 -0.11637401691E+03  0.17078578488E+03  0.12499949002E+03 0.  0.
        -13    1    3    3    0    0 -0.14550810106E+02  0.58262719852E+02 -0.34524649782E+02  0.69269280452E+02  0.10570000000E+00 0.  1.
         13    1    3    3    0    0  0.14550810106E+02 -0.58262719852E+02 -0.81849367128E+02  0.10151650443E+03  0.10570000000E+00 0. -1.
<mgrwt>
<rscale>  0 0.12499949E+03</rscale>
<asrwt>0</asrwt>
<pdfrwt beam="2">  1        3 0.22089215E-01 0.12499949E+03</pdfrwt>
<pdfrwt beam="1">  1       -3 0.41855207E-02 0.12499949E+03</pdfrwt>
<totfact> 0.12602690E+04</totfact>
</mgrwt>
</event>
<event>
 5    1  0.2989269E-047  0.1249812E+03  0.7818608E-02  0.1235099E+00
          3   -1    0    0  501    0  0.00000000000E+00  0.00000000000E+00  0.10595882442E+02  0.10596290564E+02  0.93000000000E-01 0. -1.
         -3   -1    0    0    0  501 -0.00000000000E+00 -0.00000000000E+00 -0.36853899790E+03  0.36853900963E+03  0.93000000000E-01 0.  1.
         25    2    1    2    0    0  0.00000000000E+00  0.00000000000E+00 -0.35794311546E+03  0.37913530020E+03  0.12498120640E+03 0.  0.
        -13    1    3    3    0    0 -0.51173230728E+02  0.35220713229E+02 -0.19951605739E+03  0.20896379235E+03  0.10570000000E+00 0.  1.
         13    1    3    3    0    0  0.51173230728E+02 -0.35220713229E+02 -0.15842705807E+03  0.17017150785E+03  0.10570000000E+00 0. -1.
<mgrwt>
<rscale>  0 0.12498121E+03</rscale>
<asrwt>0</asrwt>
<pdfrwt beam="1">  1        3 0.16301683E-02 0.12498121E+03</pdfrwt>
<pdfrwt beam="2">  1       -3 0.56698330E-01 0.12498121E+03</pdfrwt>
<totfact> 0.89902436E+03</totfact>
</mgrwt>
</event>
<event>
 5    1  0.2989269E-047  0.1250007E+03  0.7818608E-02  0.1235068E+00
         -3   -1    0    0    0  501 -0.00000000000E+00  0.00000000000E+00  0.15824169272E+03  0.15824172005E+03  0.93000000000E-01 0.  1.
          3   -1    0    0  501    0  0.00000000000E+00 -0.00000000000E+00 -0.24685510513E+02  0.24685685696E+02  0.93000000000E-01 0. -1.
         25    2    1    2    0    0  0.00000000000E+00  0.00000000000E+00  0.13355618221E+03  0.18292740574E+03  0.12500072786E+03 0.  0.
        -13    1    3    3    0    0  0.59292628641E+02  0.17990165969E+02  0.54797552606E+02  0.82716653867E+02  0.10570000000E+00 0.  1.
         13    1    3    3    0    0 -0.59292628641E+02 -0.17990165969E+02  0.78758629599E+02  0.10021075188E+03  0.10570000000E+00 0. -1.
<mgrwt>
<rscale>  0 0.12500073E+03</rscale>
<asrwt>0</asrwt>
<pdfrwt beam="2">  1        3 0.37977863E-02 0.12500073E+03</pdfrwt>
<pdfrwt beam="1">  1       -3 0.24344892E-01 0.12500073E+03</pdfrwt>
<totfact> 0.12328650E+04</totfact>
</mgrwt>
</event>
<event>
 5    1  0.2989269E-047  0.1250027E+03  0.7818608E-02  0.1235065E+00
         -3   -1    0    0    0  501 -0.00000000000E+00  0.00000000000E+00  0.38941712095E+02  0.38941823145E+02  0.93000000000E-01 0.  1.
          3   -1    0    0  501    0  0.00000000000E+00 -0.00000000000E+00 -0.10031429406E+03  0.10031433717E+03  0.93000000000E-01 0. -1.
         25    2    1    2    0    0  0.00000000000E+00  0.00000000000E+00 -0.61372581969E+02  0.13925616032E+03  0.12500273745E+03 0.  0.
        -13    1    3    3    0    0  0.53799998493E+02 -0.16435432341E+02 -0.61028832947E+02  0.83000559621E+02  0.10570000000E+00 0.  1.
         13    1    3    3    0    0 -0.53799998493E+02  0.16435432341E+02 -0.34374902276E+00  0.56255600698E+02  0.10570000000E+00 0. -1.
<mgrwt>
<rscale>  0 0.12500274E+03</rscale>
<asrwt>0</asrwt>
<pdfrwt beam="2">  1        3 0.15432980E-01 0.12500274E+03</pdfrwt>
<pdfrwt beam="1">  1       -3 0.59910445E-02 0.12500274E+03</pdfrwt>
<totfact> 0.13363382E+04</totfact>
</mgrwt>
</event>
<event>
 5    1  0.2989269E-047  0.1250012E+03  0.7818608E-02  0.1235067E+00
          3   -1    0    0  501    0  0.00000000000E+00  0.00000000000E+00  0.16019969347E+02  0.16020239289E+02  0.93000000000E-01 0.  1.
         -3   -1    0    0    0  501 -0.00000000000E+00 -0.00000000000E+00 -0.24383851563E+03  0.24383853336E+03  0.93000000000E-01 0. -1.
         25    2    1    2    0    0  0.00000000000E+00  0.00000000000E+00 -0.22781854628E+03  0.25985877265E+03  0.12500116677E+03 0.  0.
        -13    1    3    3    0    0  0.11182670728E+02 -0.54290832201E+02 -0.17393607278E+03  0.18255496480E+03  0.10570000000E+00 0. -1.
         13    1    3    3    0    0 -0.11182670728E+02  0.54290832201E+02 -0.53882473498E+02  0.77303807852E+02  0.10570000000E+00 0.  1.
<mgrwt>
<rscale>  0 0.12500117E+03</rscale>
<asrwt>0</asrwt>
<pdfrwt beam="1">  1        3 0.24646330E-02 0.12500117E+03</pdfrwt>
<pdfrwt beam="2">  1       -3 0.37513637E-01 0.12500117E+03</pdfrwt>
<totfact> 0.10807439E+04</totfact>
</mgrwt>
</event>
<event>
 5    1  0.3886342E-047  0.1250010E+03  0.7818608E-02  0.1235068E+00
         -3   -1    0    0    0  501 -0.00000000000E+00  0.00000000000E+00  0.77665962314E+01  0.77671530191E+01  0.93000000000E-01 0.  1.
          3   -1    0    0  501    0  0.00000000000E+00 -0.00000000000E+00 -0.50294455137E+03  0.50294455997E+03  0.93000000000E-01 0. -1.
         25    2    1    2    0    0  0.00000000000E+00  0.00000000000E+00 -0.49517795514E+03  0.51071171299E+03  0.12500098611E+03 0.  0.
        -13    1    3    3    0    0 -0.11230640112E+02 -0.59796199025E+02 -0.18915005405E+03  0.19869440559E+03  0.10570000000E+00 0.  1.
         13    1    3    3    0    0  0.11230640112E+02  0.59796199025E+02 -0.30602790110E+03  0.31201730740E+03  0.10570000000E+00 0. -1.
<mgrwt>
<rscale>  0 0.12500099E+03</rscale>
<asrwt>0</asrwt>
<pdfrwt beam="2">  1        3 0.77376102E-01 0.12500099E+03</pdfrwt>
<pdfrwt beam="1">  1       -3 0.11949049E-02 0.12500099E+03</pdfrwt>
<totfact> 0.74913284E+03</totfact>
</mgrwt>
</event>
<event>
 5    1  0.2989269E-047  0.1250287E+03  0.7818608E-02  0.1235024E+00
          3   -1    0    0  501    0  0.00000000000E+00  0.00000000000E+00  0.13686934808E+03  0.13686937967E+03  0.93000000000E-01 0.  1.
         -3   -1    0    0    0  501 -0.00000000000E+00 -0.00000000000E+00 -0.28553005261E+02  0.28553156716E+02  0.93000000000E-01 0. -1.
         25    2    1    2    0    0  0.00000000000E+00  0.00000000000E+00  0.10831634282E+03  0.16542253639E+03  0.12502873839E+03 0.  0.
        -13    1    3    3    0    0  0.35805405190E+02  0.10078571160E+01 -0.13629208645E+02  0.38325048174E+02  0.10570000000E+00 0. -1.
         13    1    3    3    0    0 -0.35805405190E+02 -0.10078571160E+01  0.12194555146E+03  0.12709748821E+03  0.10570000000E+00 0.  1.
<mgrwt>
<rscale>  0 0.12502874E+03</rscale>
<asrwt>0</asrwt>
<pdfrwt beam="1">  1        3 0.21056837E-01 0.12502874E+03</pdfrwt>
<pdfrwt beam="2">  1       -3 0.43927841E-02 0.12502874E+03</pdfrwt>
<totfact> 0.12718406E+04</totfact>
</mgrwt>
</event>
<event>
 5    1  0.2989269E-047  0.1249989E+03  0.7818608E-02  0.1235071E+00
          3   -1    0    0  501    0  0.00000000000E+00  0.00000000000E+00  0.37955350907E+02  0.37955464844E+02  0.93000000000E-01 0. -1.
         -3   -1    0    0    0  501 -0.00000000000E+00 -0.00000000000E+00 -0.10291488774E+03  0.10291492976E+03  0.93000000000E-01 0.  1.
         25    2    1    2    0    0  0.00000000000E+00  0.00000000000E+00 -0.64959536836E+02  0.14087039461E+03  0.12499890660E+03 0.  0.
        -13    1    3    3    0    0 -0.57176571437E+02 -0.17624208282E+02 -0.12119340730E+02  0.61046397364E+02  0.10570000000E+00 0.  1.
         13    1    3    3    0    0  0.57176571437E+02  0.17624208282E+02 -0.52840196105E+02  0.79823997243E+02  0.10570000000E+00 0. -1.
<mgrwt>
<rscale>  0 0.12499891E+03</rscale>
<asrwt>0</asrwt>
<pdfrwt beam="1">  1        3 0.58392968E-02 0.12499891E+03</pdfrwt>
<pdfrwt beam="2">  1       -3 0.15833072E-01 0.12499891E+03</pdfrwt>
<totfact> 0.13323680E+04</totfact>
</mgrwt>
</event>
<event>
 5    1  0.2989269E-047  0.1250019E+03  0.7818608E-02  0.1235066E+00
         -3   -1    0    0    0  501 -0.00000000000E+00  0.00000000000E+00  0.41531521607E+02  0.41531625733E+02  0.93000000000E-01 0. -1.
          3   -1    0    0  501    0  0.00000000000E+00 -0.00000000000E+00 -0.94057658283E+02  0.94057704260E+02  0.93000000000E-01 0.  1.
         25    2    1    2    0    0  0.00000000000E+00  0.00000000000E+00 -0.52526136676E+02  0.13558932999E+03  0.12500188548E+03 0.  0.
        -13    1    3    3    0    0 -0.24249350035E+02  0.57385423797E+02 -0.31712403951E+02  0.69905690600E+02  0.10570000000E+00 0. -1.
         13    1    3    3    0    0  0.24249350035E+02 -0.57385423797E+02 -0.20813732725E+02  0.65683639393E+02  0.10570000000E+00 0.  1.
<mgrwt>
<rscale>  0 0.12500189E+03</rscale>
<asrwt>0</asrwt>
<pdfrwt beam="2">  1        3 0.14470421E-01 0.12500189E+03</pdfrwt>
<pdfrwt beam="1">  1       -3 0.63894764E-02 0.12500189E+03</pdfrwt>
<totfact> 0.13457608E+04</totfact>
</mgrwt>
</event>
<event>
 5    1  0.2989269E-047  0.1249975E+03  0.7818608E-02  0.1235073E+00
         -3   -1    0    0    0  501 -0.00000000000E+00  0.00000000000E+00  0.12847131635E+02  0.12847468243E+02  0.93000000000E-01 0.  1.
          3   -1    0    0  501    0  0.00000000000E+00 -0.00000000000E+00 -0.30403986362E+03  0.30403987784E+03  0.93000000000E-01 0. -1.
         25    2    1    2    0    0  0.00000000000E+00  0.00000000000E+00 -0.29119273198E+03  0.31688734608E+03  0.12499753177E+03 0.  0.
        -13    1    3    3    0    0  0.21169841505E+02  0.58780394755E+02 -0.14982905322E+03  0.16233315545E+03  0.10570000000E+00 0.  1.
         13    1    3    3    0    0 -0.21169841505E+02 -0.58780394755E+02 -0.14136367876E+03  0.15455419063E+03  0.10570000000E+00 0. -1.
<mgrwt>
<rscale>  0 0.12499753E+03</rscale>
<asrwt>0</asrwt>
<pdfrwt beam="2">  1        3 0.46775385E-01 0.12499753E+03</pdfrwt>
<pdfrwt beam="1">  1       -3 0.19765090E-02 0.12499753E+03</pdfrwt>
<totfact> 0.98740533E+03</totfact>
</mgrwt>
</event>
<event>
 5    1  0.2989269E-047  0.1249971E+03  0.7818608E-02  0.1235074E+00
         -3   -1    0    0    0  501 -0.00000000000E+00  0.00000000000E+00  0.20541427148E+02  0.20541637672E+02  0.93000000000E-01 0. -1.
          3   -1    0    0  501    0  0.00000000000E+00 -0.00000000000E+00 -0.19015433592E+03  0.19015435866E+03  0.93000000000E-01 0.  1.
         25    2    1    2    0    0  0.00000000000E+00  0.00000000000E+00 -0.16961290877E+03  0.21069599633E+03  0.12499705616E+03 0.  0.
        -13    1    3    3    0    0 -0.29374360722E+02  0.23656348845E+02 -0.80332180901E+00  0.37724427191E+02  0.10570000000E+00 0. -1.
         13    1    3    3    0    0  0.29374360722E+02 -0.23656348845E+02 -0.16880958696E+03  0.17297156914E+03  0.10570000000E+00 0.  1.
<mgrwt>
<rscale>  0 0.12499706E+03</rscale>
<asrwt>0</asrwt>
<pdfrwt beam="2">  1        3 0.29254530E-01 0.12499706E+03</pdfrwt>
<pdfrwt beam="1">  1       -3 0.31602376E-02 0.12499706E+03</pdfrwt>
<totfact> 0.11742257E+04</totfact>
</mgrwt>
</event>
<event>
 5    1  0.4799171E-047  0.1249981E+03  0.7818608E-02  0.1235072E+00
          3   -1    0    0  501    0  0.00000000000E+00  0.00000000000E+00  0.29796391679E+02  0.29796536813E+02  0.93000000000E-01 0. -1.
         -3   -1    0    0    0  501 -0.00000000000E+00 -0.00000000000E+00 -0.13109358236E+03  0.13109361535E+03  0.93000000000E-01 0.  1.
         25    2    1    2    0    0  0.00000000000E+00  0.00000000000E+00 -0.10129719068E+03  0.16089015216E+03  0.12499808088E+03 0.  0.
        -13    1    3    3    0    0 -0.58616192011E+02  0.21276651275E+02 -0.45254103527E+02  0.77048678859E+02  0.10570000000E+00 0.  1.
         13    1    3    3    0    0  0.58616192011E+02 -0.21276651275E+02 -0.56043087156E+02  0.83841473304E+02  0.10570000000E+00 0. -1.
<mgrwt>
<rscale>  0 0.12499808E+03</rscale>
<asrwt>0</asrwt>
<pdfrwt beam="1">  1        3 0.45840740E-02 0.12499808E+03</pdfrwt>
<pdfrwt beam="2">  1       -3 0.20168257E-01 0.12499808E+03</pdfrwt>
<totfact> 0.12833735E+04</totfact>
</mgrwt>
</event>
<event>
 5    1  0.2989269E-047  0.1250038E+03  0.7818608E-02  0.1235063E+00
         -3   -1    0    0    0  501 -0.00000000000E+00  0.00000000000E+00  0.19400790774E+02  0.19401013676E+02  0.93000000000E-01 0.  1.
          3   -1    0    0  501    0  0.00000000000E+00 -0.00000000000E+00 -0.20135587721E+03  0.20135589869E+03  0.93000000000E-01 0. -1.
         25    2    1    2    0    0  0.00000000000E+00  0.00000000000E+00 -0.18195508644E+03  0.22075691236E+03  0.12500384345E+03 0.  0.
        -13    1    3    3    0    0 -0.42270067174E+02 -0.39016176512E+02 -0.13414384021E+03  0.14595753371E+03  0.10570000000E+00 0. -1.
         13    1    3    3    0    0  0.42270067174E+02  0.39016176512E+02 -0.47811246230E+02  0.74799378654E+02  0.10570000000E+00 0.  1.
<mgrwt>
<rscale>  0 0.12500384E+03</rscale>
<asrwt>0</asrwt>
<pdfrwt beam="2">  1        3 0.30977845E-01 0.12500384E+03</pdfrwt>
<pdfrwt beam="1">  1       -3 0.29847560E-02 0.12500384E+03</pdfrwt>
<totfact> 0.11539137E+04</totfact>
</mgrwt>
</event>
<event>
 5    1  0.2989269E-047  0.1250027E+03  0.7818608E-02  0.1235065E+00
          3   -1    0    0  501    0  0.00000000000E+00  0.00000000000E+00  0.24951034488E+03  0.24951036221E+03  0.93000000000E-01 0. -1.
         -3   -1    0    0    0  501 -0.00000000000E+00 -0.00000000000E+00 -0.15656171786E+02  0.15656448000E+02  0.93000000000E-01 0.  1.
         25    2    1    2    0    0  0.00000000000E+00  0.00000000000E+00  0.23385417309E+03  0.26516681021E+03  0.12500265183E+03 0.  0.
        -13    1    3    3    0    0  0.39291283505E+01 -0.58041887045E+02  0.68456394004E+02  0.89836450029E+02  0.10570000000E+00 0.  1.
         13    1    3    3    0    0 -0.39291283505E+01  0.58041887045E+02  0.16539777909E+03  0.17533036018E+03  0.10570000000E+00 0. -1.
<mgrwt>
<rscale>  0 0.12500265E+03</rscale>
<asrwt>0</asrwt>
<pdfrwt beam="1">  1        3 0.38386228E-01 0.12500265E+03</pdfrwt>
<pdfrwt beam="2">  1       -3 0.24086645E-02 0.12500265E+03</pdfrwt>
<totfact> 0.10716179E+04</totfact>
</mgrwt>
</event>
<event>
 5    1  0.2989269E-047  0.1249979E+03  0.7818608E-02  0.1235072E+00
          3   -1    0    0  501    0  0.00000000000E+00  0.00000000000E+00  0.41029670091E+02  0.41029775490E+02  0.93000000000E-01 0. -1.
         -3   -1    0    0    0  501 -0.00000000000E+00 -0.00000000000E+00 -0.95202109746E+02  0.95202155170E+02  0.93000000000E-01 0.  1.
         25    2    1    2    0    0  0.00000000000E+00  0.00000000000E+00 -0.54172439655E+02  0.13623193066E+03  0.12499794284E+03 0.  0.
        -13    1    3    3    0    0  0.40561892515E+02  0.25164559438E+02  0.16882953052E+02  0.50631684274E+02  0.10570000000E+00 0. -1.
         13    1    3    3    0    0 -0.40561892515E+02 -0.25164559438E+02 -0.71055392707E+02  0.85600246386E+02  0.10570000000E+00 0.  1.
<mgrwt>
<rscale>  0 0.12499794E+03</rscale>
<asrwt>0</asrwt>
<pdfrwt beam="1">  1        3 0.63122686E-02 0.12499794E+03</pdfrwt>
<pdfrwt beam="2">  1       -3 0.14646490E-01 0.12499794E+03</pdfrwt>
<totfact> 0.13442460E+04</totfact>
</mgrwt>
</event>
<event>
 5    1  0.2989269E-047  0.1249993E+03  0.7818608E-02  0.1235070E+00
          3   -1    0    0  501    0  0.00000000000E+00  0.00000000000E+00  0.24277776873E+03  0.24277778654E+03  0.93000000000E-01 0. -1.
         -3   -1    0    0    0  501 -0.00000000000E+00 -0.00000000000E+00 -0.16089492853E+02  0.16089761629E+02  0.93000000000E-01 0.  1.
         25    2    1    2    0    0  0.00000000000E+00  0.00000000000E+00  0.22668827588E+03  0.25886754817E+03  0.12499933230E+03 0.  0.
        -13    1    3    3    0    0  0.58260363743E+02 -0.14399706526E+02  0.77201699783E+02  0.97784125262E+02  0.10570000000E+00 0.  1.
         13    1    3    3    0    0 -0.58260363743E+02  0.14399706526E+02  0.14948657609E+03  0.16108342291E+03  0.10570000000E+00 0. -1.
<mgrwt>
<rscale>  0 0.12499933E+03</rscale>
<asrwt>0</asrwt>
<pdfrwt beam="1">  1        3 0.37350449E-01 0.12499933E+03</pdfrwt>
<pdfrwt beam="2">  1       -3 0.24753286E-02 0.12499933E+03</pdfrwt>
<totfact> 0.10827661E+04</totfact>
</mgrwt>
</event>
<event>
 5    1  0.2989269E-047  0.1250013E+03  0.7818608E-02  0.1235067E+00
          3   -1    0    0  501    0  0.00000000000E+00  0.00000000000E+00  0.36181973308E+02  0.36182092829E+02  0.93000000000E-01 0.  1.
         -3   -1    0    0    0  501 -0.00000000000E+00 -0.00000000000E+00 -0.10796321864E+03  0.10796325869E+03  0.93000000000E-01 0. -1.
         25    2    1    2    0    0  0.00000000000E+00  0.00000000000E+00 -0.71781245330E+02  0.14414535152E+03  0.12500134073E+03 0.  0.
        -13    1    3    3    0    0  0.55143466609E+02  0.27635270213E+02 -0.47526165165E+02  0.77866922484E+02  0.10570000000E+00 0. -1.
         13    1    3    3    0    0 -0.55143466609E+02 -0.27635270213E+02 -0.24255080165E+02  0.66278429038E+02  0.10570000000E+00 0.  1.
<mgrwt>
<rscale>  0 0.12500134E+03</rscale>
<asrwt>0</asrwt>
<pdfrwt beam="1">  1        3 0.55664698E-02 0.12500134E+03</pdfrwt>
<pdfrwt beam="2">  1       -3 0.16609738E-01 0.12500134E+03</pdfrwt>
<totfact> 0.13240445E+04</totfact>
</mgrwt>
</event>
<event>
 5    1  0.2989269E-047  0.1249993E+03  0.7818608E-02  0.1235070E+00
         -3   -1    0    0    0  501 -0.00000000000E+00  0.00000000000E+00  0.15940628340E+03  0.15940631053E+03  0.93000000000E-01 0.  1.
          3   -1    0    0  501    0  0.00000000000E+00 -0.00000000000E+00 -0.24504621047E+02  0.24504797523E+02  0.93000000000E-01 0. -1.
         25    2    1    2    0    0  0.00000000000E+00  0.00000000000E+00  0.13490166235E+03  0.18391110805E+03  0.12499934863E+03 0.  0.
        -13    1    3    3    0    0  0.55430484974E+02 -0.68409671847E+00  0.10991988811E+03  0.12310726878E+03  0.10570000000E+00 0.  1.
         13    1    3    3    0    0 -0.55430484974E+02  0.68409671847E+00  0.24981774238E+02  0.60803839264E+02  0.10570000000E+00 0. -1.
<mgrwt>
<rscale>  0 0.12499935E+03</rscale>
<asrwt>0</asrwt>
<pdfrwt beam="2">  1        3 0.37699574E-02 0.12499935E+03</pdfrwt>
<pdfrwt beam="1">  1       -3 0.24524059E-01 0.12499935E+03</pdfrwt>
<totfact> 0.12307334E+04</totfact>
</mgrwt>
</event>
<event>
 5    1  0.3202656E-047  0.1249996E+03  0.7818608E-02  0.1235070E+00
         -3   -1    0    0    0  501 -0.00000000000E+00  0.00000000000E+00  0.63786823535E+02  0.63786891332E+02  0.93000000000E-01 0.  1.
          3   -1    0    0  501    0  0.00000000000E+00 -0.00000000000E+00 -0.61238620894E+02  0.61238691511E+02  0.93000000000E-01 0. -1.
         25    2    1    2    0    0  0.00000000000E+00  0.00000000000E+00  0.25482026414E+01  0.12502558284E+03  0.12499961211E+03 0.  0.
        -13    1    3    3    0    0 -0.27297090332E+01 -0.61625489735E+02  0.11329164086E+02  0.62717728178E+02  0.10570000000E+00 0. -1.
         13    1    3    3    0    0  0.27297090332E+01  0.61625489735E+02 -0.87809614441E+01  0.62307854664E+02  0.10570000000E+00 0.  1.
<mgrwt>
<rscale>  0 0.12499961E+03</rscale>
<asrwt>0</asrwt>
<pdfrwt beam="2">  1        3 0.94213369E-02 0.12499961E+03</pdfrwt>
<pdfrwt beam="1">  1       -3 0.98133682E-02 0.12499961E+03</pdfrwt>
<totfact> 0.13735870E+04</totfact>
</mgrwt>
</event>
<event>
 4    1  0.2989269E-047  0.1249449E+03  0.7818608E-02  0.1235155E+00
         -3   -1    0    0    0  501 -0.00000000000E+00  0.00000000000E+00  0.15192726223E+02  0.15193010863E+02  0.93000000000E-01 0.  1.
          3   -1    0    0  501    0  0.00000000000E+00 -0.00000000000E+00 -0.25688401739E+03  0.25688403422E+03  0.93000000000E-01 0. -1.
        -13    1    1    2    0    0 -0.18576636547E+02 -0.57616722954E+02 -0.15444107002E+03  0.16588198658E+03  0.10570000000E+00 0. -1.
         13    1    1    2    0    0  0.18576636547E+02  0.57616722954E+02 -0.87250221146E+02  0.10619505851E+03  0.10570000000E+00 0.  1.
<mgrwt>
<rscale>  0 0.12494494E+03</rscale>
<asrwt>0</asrwt>
<pdfrwt beam="2">  1        3 0.39520638E-01 0.12494494E+03</pdfrwt>
<pdfrwt beam="1">  1       -3 0.23373659E-02 0.12494494E+03</pdfrwt>
<totfact> 0.10610563E+04</totfact>
</mgrwt>
</event>
<event>
 5    1  0.2989269E-047  0.1249982E+03  0.7818608E-02  0.1235072E+00
          3   -1    0    0  501    0  0.00000000000E+00  0.00000000000E+00  0.26942117097E+03  0.26942118702E+03  0.93000000000E-01 0. -1.
         -3   -1    0    0    0  501 -0.00000000000E+00 -0.00000000000E+00 -0.14498089823E+02  0.14498388101E+02  0.93000000000E-01 0.  1.
         25    2    1    2    0    0  0.00000000000E+00  0.00000000000E+00  0.25492308115E+03  0.28391957512E+03  0.12499819133E+03 0.  0.
        -13    1    3    3    0    0  0.46381465489E+02  0.30551618144E+02  0.19256306852E+03  0.20041254512E+03  0.10570000000E+00 0.  1.
         13    1    3    3    0    0 -0.46381465489E+02 -0.30551618144E+02  0.62360012628E+02  0.83507030001E+02  0.10570000000E+00 0. -1.
<mgrwt>
<rscale>  0 0.12499819E+03</rscale>
<asrwt>0</asrwt>
<pdfrwt beam="1">  1        3 0.41449438E-01 0.12499819E+03</pdfrwt>
<pdfrwt beam="2">  1       -3 0.22304994E-02 0.12499819E+03</pdfrwt>
<totfact> 0.10398369E+04</totfact>
</mgrwt>
</event>
<event>
 5    1  0.2989269E-047  0.1250019E+03  0.7818608E-02  0.1235066E+00
         -3   -1    0    0    0  501 -0.00000000000E+00  0.00000000000E+00  0.15459279800E+02  0.15459559533E+02  0.93000000000E-01 0.  1.
          3   -1    0    0  501    0  0.00000000000E+00 -0.00000000000E+00 -0.25268494340E+03  0.25268496051E+03  0.93000000000E-01 0. -1.
         25    2    1    2    0    0  0.00000000000E+00  0.00000000000E+00 -0.23722566360E+03  0.26814452005E+03  0.12500187263E+03 0.  0.
        -13    1    3    3    0    0 -0.21208470338E+02  0.55282483877E+02 -0.75688710864E+02  0.96097577298E+02  0.10570000000E+00 0.  1.
         13    1    3    3    0    0  0.21208470338E+02 -0.55282483877E+02 -0.16153695273E+03  0.17204694275E+03  0.10570000000E+00 0. -1.
<mgrwt>
<rscale>  0 0.12500187E+03</rscale>
<asrwt>0</asrwt>
<pdfrwt beam="2">  1        3 0.38874627E-01 0.12500187E+03</pdfrwt>
<pdfrwt beam="1">  1       -3 0.23783738E-02 0.12500187E+03</pdfrwt>
<totfact> 0.10664699E+04</totfact>
</mgrwt>
</event>
<event>
 5    1  0.2989269E-047  0.1250006E+03  0.7818608E-02  0.1235068E+00
          3   -1    0    0  501    0  0.00000000000E+00  0.00000000000E+00  0.52289711215E+03  0.52289712042E+03  0.93000000000E-01 0. -1.
         -3   -1    0    0    0  501 -0.00000000000E+00 -0.00000000000E+00 -0.74701727326E+01  0.74707516124E+01  0.93000000000E-01 0.  1.
         25    2    1    2    0    0  0.00000000000E+00  0.00000000000E+00  0.51542693941E+03  0.53036787203E+03  0.12500059923E+03 0.  0.
        -13    1    3    3    0    0 -0.27464247445E+02  0.51471153503E+02  0.35284503236E+03  0.35763555831E+03  0.10570000000E+00 0.  1.
         13    1    3    3    0    0  0.27464247445E+02 -0.51471153503E+02  0.16258190705E+03  0.17273231372E+03  0.10570000000E+00 0. -1.
<mgrwt>
<rscale>  0 0.12500060E+03</rscale>
<asrwt>0</asrwt>
<pdfrwt beam="1">  1        3 0.80445746E-01 0.12500060E+03</pdfrwt>
<pdfrwt beam="2">  1       -3 0.11493026E-02 0.12500060E+03</pdfrwt>
<totfact> 0.73008261E+03</totfact>
</mgrwt>
</event>
<event>
 5    1  0.2989269E-047  0.1249992E+03  0.7818608E-02  0.1235071E+00
          3   -1    0    0  501    0  0.00000000000E+00  0.00000000000E+00  0.10467802522E+02  0.10468215638E+02  0.93000000000E-01 0.  1.
         -3   -1    0    0    0  501 -0.00000000000E+00 -0.00000000000E+00 -0.37315556924E+03  0.37315558083E+03  0.93000000000E-01 0. -1.
         25    2    1    2    0    0  0.00000000000E+00  0.00000000000E+00 -0.36268776672E+03  0.38362379647E+03  0.12499920435E+03 0.  0.
        -13    1    3    3    0    0 -0.56116477606E+02  0.41418890141E+00 -0.26578118032E+03  0.27164108230E+03  0.10570000000E+00 0. -1.
         13    1    3    3    0    0  0.56116477606E+02 -0.41418890141E+00 -0.96906586406E+02  0.11198271417E+03  0.10570000000E+00 0.  1.
<mgrwt>
<rscale>  0 0.12499920E+03</rscale>
<asrwt>0</asrwt>
<pdfrwt beam="1">  1        3 0.16104641E-02 0.12499920E+03</pdfrwt>
<pdfrwt beam="2">  1       -3 0.57408572E-01 0.12499920E+03</pdfrwt>
<totfact> 0.89278487E+03</totfact>
</mgrwt>
</event>
<event>
 5    1  0.2989269E-047  0.1250015E+03  0.7818608E-02  0.1235067E+00
         -3   -1    0    0    0  501 -0.00000000000E+00  0.00000000000E+00  0.84014169535E+01  0.84019316724E+01  0.93000000000E-01 0.  1.
          3   -1    0    0  501    0  0.00000000000E+00 -0.00000000000E+00 -0.46494791194E+03  0.46494792124E+03  0.93000000000E-01 0. -1.
         25    2    1    2    0    0  0.00000000000E+00  0.00000000000E+00 -0.45654649499E+03  0.47334985291E+03  0.12500152467E+03 0.  0.
        -13    1    3    3    0    0 -0.36313007275E+02  0.49242997705E+02 -0.17995291886E+03  0.19006991214E+03  0.10570000000E+00 0. -1.
         13    1    3    3    0    0  0.36313007275E+02 -0.49242997705E+02 -0.27659357612E+03  0.28327994077E+03  0.10570000000E+00 0.  1.
<mgrwt>
<rscale>  0 0.12500152E+03</rscale>
<asrwt>0</asrwt>
<pdfrwt beam="2">  1        3 0.71530469E-01 0.12500152E+03</pdfrwt>
<pdfrwt beam="1">  1       -3 0.12925664E-02 0.12500152E+03</pdfrwt>
<totfact> 0.78753181E+03</totfact>
</mgrwt>
</event>
<event>
 5    1  0.2989269E-047  0.1250000E+03  0.7818608E-02  0.1235069E+00
          3   -1    0    0  501    0  0.00000000000E+00  0.00000000000E+00  0.14356348486E+02  0.14356649708E+02  0.93000000000E-01 0. -1.
         -3   -1    0    0    0  501 -0.00000000000E+00 -0.00000000000E+00 -0.27208910584E+03  0.27208912174E+03  0.93000000000E-01 0.  1.
         25    2    1    2    0    0  0.00000000000E+00  0.00000000000E+00 -0.25773275736E+03  0.28644577144E+03  0.12500002305E+03 0.  0.
        -13    1    3    3    0    0  0.46104487458E+02 -0.38750362250E+02 -0.16714485168E+03  0.17766436602E+03  0.10570000000E+00 0.  1.
         13    1    3    3    0    0 -0.46104487458E+02  0.38750362250E+02 -0.90587905675E+02  0.10878140542E+03  0.10570000000E+00 0. -1.
<mgrwt>
<rscale>  0 0.12500002E+03</rscale>
<asrwt>0</asrwt>
<pdfrwt beam="1">  1        3 0.22086936E-02 0.12500002E+03</pdfrwt>
<pdfrwt beam="2">  1       -3 0.41859883E-01 0.12500002E+03</pdfrwt>
<totfact> 0.10353188E+04</totfact>
</mgrwt>
</event>
<event>
 4    1  0.2989269E-047  0.1246033E+03  0.7818608E-02  0.1235691E+00
         -3   -1    0    0    0  501 -0.00000000000E+00  0.00000000000E+00  0.36647504224E+03  0.36647505404E+03  0.93000000000E-01 0.  1.
          3   -1    0    0  501    0  0.00000000000E+00 -0.00000000000E+00 -0.10591208204E+02  0.10591616507E+02  0.93000000000E-01 0. -1.
        -13    1    1    2    0    0 -0.53831005057E+02  0.28611541341E+02  0.21682327189E+03  0.22523041493E+03  0.10570000000E+00 0. -1.
         13    1    1    2    0    0  0.53831005057E+02 -0.28611541341E+02  0.13906056214E+03  0.15183625562E+03  0.10570000000E+00 0.  1.
<mgrwt>
<rscale>  0 0.12460325E+03</rscale>
<asrwt>0</asrwt>
<pdfrwt beam="2">  1        3 0.16294491E-02 0.12460325E+03</pdfrwt>
<pdfrwt beam="1">  1       -3 0.56380804E-01 0.12460325E+03</pdfrwt>
<totfact> 0.90936950E+03</totfact>
</mgrwt>
</event>
<event>
 5    1  0.3373992E-047  0.1249984E+03  0.7818608E-02  0.1235072E+00
          3   -1    0    0  501    0  0.00000000000E+00  0.00000000000E+00  0.11998265124E+03  0.11998268728E+03  0.93000000000E-01 0. -1.
         -3   -1    0    0    0  501 -0.00000000000E+00 -0.00000000000E+00 -0.32555835581E+02  0.32555968415E+02  0.93000000000E-01 0.  1.
         25    2    1    2    0    0  0.00000000000E+00  0.00000000000E+00  0.87426815658E+02  0.15253865570E+03  0.12499837353E+03 0.  0.
        -13    1    3    3    0    0 -0.42387408745E+02 -0.41715376223E+02  0.20263085072E+02  0.62828885257E+02  0.10570000000E+00 0.  1.
         13    1    3    3    0    0  0.42387408745E+02  0.41715376223E+02  0.67163730586E+02  0.89709770440E+02  0.10570000000E+00 0. -1.
<mgrwt>
<rscale>  0 0.12499837E+03</rscale>
<asrwt>0</asrwt>
<pdfrwt beam="1">  1        3 0.18458882E-01 0.12499837E+03</pdfrwt>
<pdfrwt beam="2">  1       -3 0.50086032E-02 0.12499837E+03</pdfrwt>
<totfact> 0.13034217E+04</totfact>
</mgrwt>
</event>
<event>
 5    1  0.2989269E-047  0.1249933E+03  0.7818608E-02  0.1235080E+00
          3   -1    0    0  501    0  0.00000000000E+00  0.00000000000E+00  0.24162192225E+02  0.24162371202E+02  0.93000000000E-01 0. -1.
         -3   -1    0    0    0  501 -0.00000000000E+00 -0.00000000000E+00 -0.16164985429E+03  0.16164988104E+03  0.93000000000E-01 0.  1.
         25    2    1    2    0    0  0.00000000000E+00  0.00000000000E+00 -0.13748766206E+03  0.18581225224E+03  0.12499334328E+03 0.  0.
        -13    1    3    3    0    0 -0.10853779158E+02  0.61049702082E+02 -0.57137847037E+02  0.84318535227E+02  0.10570000000E+00 0. -1.
         13    1    3    3    0    0  0.10853779158E+02 -0.61049702082E+02 -0.80349815028E+02  0.10149371702E+03  0.10570000000E+00 0.  1.
<mgrwt>
<rscale>  0 0.12499334E+03</rscale>
<asrwt>0</asrwt>
<pdfrwt beam="1">  1        3 0.37172763E-02 0.12499334E+03</pdfrwt>
<pdfrwt beam="2">  1       -3 0.24869223E-01 0.12499334E+03</pdfrwt>
<totfact> 0.12267244E+04</totfact>
</mgrwt>
</event>
<event>
 5    1  0.2989269E-047  0.1250009E+03  0.7818608E-02  0.1235068E+00
          3   -1    0    0  501    0  0.00000000000E+00  0.00000000000E+00  0.74941838441E+01  0.74947608693E+01  0.93000000000E-01 0. -1.
         -3   -1    0    0    0  501 -0.00000000000E+00 -0.00000000000E+00 -0.52122400901E+03  0.52122401731E+03  0.93000000000E-01 0.  1.
         25    2    1    2    0    0  0.00000000000E+00  0.00000000000E+00 -0.51372982517E+03  0.52871877818E+03  0.12500085252E+03 0.  0.
        -13    1    3    3    0    0  0.58469842684E+02  0.20901176629E+02 -0.28698528756E+03  0.29362586422E+03  0.10570000000E+00 0.  1.
         13    1    3    3    0    0 -0.58469842684E+02 -0.20901176629E+02 -0.22674453761E+03  0.23509291396E+03  0.10570000000E+00 0. -1.
<mgrwt>
<rscale>  0 0.12500085E+03</rscale>
<asrwt>0</asrwt>
<pdfrwt beam="1">  1        3 0.11529968E-02 0.12500085E+03</pdfrwt>
<pdfrwt beam="2">  1       -3 0.80188326E-01 0.12500085E+03</pdfrwt>
<totfact> 0.73068545E+03</totfact>
</mgrwt>
</event>
<event>
 5    1  0.2989269E-047  0.1249936E+03  0.7818608E-02  0.1235079E+00
          3   -1    0    0  501    0  0.00000000000E+00  0.00000000000E+00  0.64654700361E+02  0.64654767247E+02  0.93000000000E-01 0. -1.
         -3   -1    0    0    0  501 -0.00000000000E+00 -0.00000000000E+00 -0.60410786616E+02  0.60410858201E+02  0.93000000000E-01 0.  1.
         25    2    1    2    0    0  0.00000000000E+00  0.00000000000E+00  0.42439137452E+01  0.12506562545E+03  0.12499359930E+03 0.  0.
        -13    1    3    3    0    0  0.49713119687E+02  0.37118277428E+02 -0.54108609614E+01  0.62277197890E+02  0.10570000000E+00 0.  1.
         13    1    3    3    0    0 -0.49713119687E+02 -0.37118277428E+02  0.96547747066E+01  0.62788427559E+02  0.10570000000E+00 0. -1.
<mgrwt>
<rscale>  0 0.12499360E+03</rscale>
<asrwt>0</asrwt>
<pdfrwt beam="1">  1        3 0.99468876E-02 0.12499360E+03</pdfrwt>
<pdfrwt beam="2">  1       -3 0.92939779E-02 0.12499360E+03</pdfrwt>
<totfact> 0.13736656E+04</totfact>
</mgrwt>
</event>
<event>
 5    1  0.2989269E-047  0.1249985E+03  0.7818608E-02  0.1235072E+00
         -3   -1    0    0    0  501 -0.00000000000E+00  0.00000000000E+00  0.31927275833E+02  0.31927411281E+02  0.93000000000E-01 0.  1.
          3   -1    0    0  501    0  0.00000000000E+00 -0.00000000000E+00 -0.12234503894E+03  0.12234507428E+03  0.93000000000E-01 0. -1.
         25    2    1    2    0    0  0.00000000000E+00  0.00000000000E+00 -0.90417763104E+02  0.15427248556E+03  0.12499851166E+03 0.  0.
        -13    1    3    3    0    0  0.22259586374E+02  0.53741008297E+02 -0.16995705053E+02  0.60600745219E+02  0.10570000000E+00 0.  1.
         13    1    3    3    0    0 -0.22259586374E+02 -0.53741008297E+02 -0.73422058051E+02  0.93671740345E+02  0.10570000000E+00 0. -1.
<mgrwt>
<rscale>  0 0.12499851E+03</rscale>
<asrwt>0</asrwt>
<pdfrwt beam="2">  1        3 0.18822327E-01 0.12499851E+03</pdfrwt>
<pdfrwt beam="1">  1       -3 0.49119018E-02 0.12499851E+03</pdfrwt>
<totfact> 0.12992153E+04</totfact>
</mgrwt>
</event>
<event>
 5    1  0.2989269E-047  0.1249993E+03  0.7818608E-02  0.1235070E+00
          3   -1    0    0  501    0  0.00000000000E+00  0.00000000000E+00  0.20504163576E+03  0.20504165685E+03  0.93000000000E-01 0. -1.
         -3   -1    0    0    0  501 -0.00000000000E+00 -0.00000000000E+00 -0.19050646751E+02  0.19050873750E+02  0.93000000000E-01 0.  1.
         25    2    1    2    0    0  0.00000000000E+00  0.00000000000E+00  0.18599098901E+03  0.22409253060E+03  0.12499925711E+03 0.  0.
        -13    1    3    3    0    0 -0.50137179949E+01  0.56677900560E+02  0.46637347436E+02  0.73570205439E+02  0.10570000000E+00 0.  1.
         13    1    3    3    0    0  0.50137179949E+01 -0.56677900560E+02  0.13935364157E+03  0.15052232516E+03  0.10570000000E+00 0. -1.
<mgrwt>
<rscale>  0 0.12499926E+03</rscale>
<asrwt>0</asrwt>
<pdfrwt beam="1">  1        3 0.31544886E-01 0.12499926E+03</pdfrwt>
<pdfrwt beam="2">  1       -3 0.29308879E-02 0.12499926E+03</pdfrwt>
<totfact> 0.11474863E+04</totfact>
</mgrwt>
</event>
<event>
 5    1  0.2989269E-047  0.1249989E+03  0.7818608E-02  0.1235071E+00
         -3   -1    0    0    0  501 -0.00000000000E+00  0.00000000000E+00  0.71061325944E+02  0.71061386800E+02  0.93000000000E-01 0.  1.
          3   -1    0    0  501    0  0.00000000000E+00 -0.00000000000E+00 -0.54969024004E+02  0.54969102675E+02  0.93000000000E-01 0. -1.
         25    2    1    2    0    0  0.00000000000E+00  0.00000000000E+00  0.16092301940E+02  0.12603048948E+03  0.12499888838E+03 0.  0.
        -13    1    3    3    0    0  0.41454189700E+02  0.42382919221E+02  0.27993451729E+02  0.65562231487E+02  0.10570000000E+00 0.  1.
         13    1    3    3    0    0 -0.41454189700E+02 -0.42382919221E+02 -0.11901149789E+02  0.60468257988E+02  0.10570000000E+00 0. -1.
<mgrwt>
<rscale>  0 0.12499889E+03</rscale>
<asrwt>0</asrwt>
<pdfrwt beam="2">  1        3 0.84567837E-02 0.12499889E+03</pdfrwt>
<pdfrwt beam="1">  1       -3 0.10932522E-01 0.12499889E+03</pdfrwt>
<totfact> 0.13709187E+04</totfact>
</mgrwt>
</event>
<event>
 5    1  0.2989269E-047  0.1250110E+03  0.7818608E-02  0.1235052E+00
          3   -1    0    0  501    0  0.00000000000E+00  0.00000000000E+00  0.12025151069E+02  0.12025510685E+02  0.93000000000E-01 0. -1.
         -3   -1    0    0    0  501 -0.00000000000E+00 -0.00000000000E+00 -0.32489200969E+03  0.32489202300E+03  0.93000000000E-01 0.  1.
         25    2    1    2    0    0  0.00000000000E+00  0.00000000000E+00 -0.31286685862E+03  0.33691753368E+03  0.12501101264E+03 0.  0.
        -13    1    3    3    0    0 -0.60405792505E+02  0.11436676557E+02 -0.18683794120E+03  0.19669286918E+03  0.10570000000E+00 0.  1.
         13    1    3    3    0    0  0.60405792505E+02 -0.11436676557E+02 -0.12602891741E+03  0.14022466451E+03  0.10570000000E+00 0. -1.
<mgrwt>
<rscale>  0 0.12501101E+03</rscale>
<asrwt>0</asrwt>
<pdfrwt beam="1">  1        3 0.18500522E-02 0.12501101E+03</pdfrwt>
<pdfrwt beam="2">  1       -3 0.49983408E-01 0.12501101E+03</pdfrwt>
<totfact> 0.95685366E+03</totfact>
</mgrwt>
</event>
<event>
 5    1  0.2989269E-047  0.1249965E+03  0.7818608E-02  0.1235075E+00
         -3   -1    0    0    0  501 -0.00000000000E+00  0.00000000000E+00  0.34408970618E+02  0.34409096297E+02  0.93000000000E-01 0.  1.
          3   -1    0    0  501    0  0.00000000000E+00 -0.00000000000E+00 -0.11351739796E+03  0.11351743606E+03  0.93000000000E-01 0. -1.
         25    2    1    2    0    0  0.00000000000E+00  0.00000000000E+00 -0.79108427342E+02  0.14792653235E+03  0.12499646274E+03 0.  0.
        -13    1    3    3    0    0  0.48384614269E+02 -0.38269671492E+02 -0.51411082018E+02  0.80304104383E+02  0.10570000000E+00 0. -1.
         13    1    3    3    0    0 -0.48384614269E+02  0.38269671492E+02 -0.27697345324E+02  0.67622427970E+02  0.10570000000E+00 0.  1.
<mgrwt>
<rscale>  0 0.12499646E+03</rscale>
<asrwt>0</asrwt>
<pdfrwt beam="2">  1        3 0.17464228E-01 0.12499646E+03</pdfrwt>
<pdfrwt beam="1">  1       -3 0.52937004E-02 0.12499646E+03</pdfrwt>
<totfact> 0.13147723E+04</totfact>
</mgrwt>
</event>
<event>
 5    1  0.2989269E-047  0.1249990E+03  0.7818608E-02  0.1235071E+00
          3   -1    0    0  501    0  0.00000000000E+00  0.00000000000E+00  0.93384174909E+02  0.93384221218E+02  0.93000000000E-01 0. -1.
         -3   -1    0    0    0  501 -0.00000000000E+00 -0.00000000000E+00 -0.41829081471E+02  0.41829184856E+02  0.93000000000E-01 0.  1.
         25    2    1    2    0    0  0.00000000000E+00  0.00000000000E+00  0.51555093438E+02  0.13521340607E+03  0.12499895009E+03 0.  0.
        -13    1    3    3    0    0  0.10922551890E+02  0.46157761114E+02  0.69801303918E+02  0.84392382666E+02  0.10570000000E+00 0. -1.
         13    1    3    3    0    0 -0.10922551890E+02 -0.46157761114E+02 -0.18246210480E+02  0.50821023408E+02  0.10570000000E+00 0.  1.
<mgrwt>
<rscale>  0 0.12499895E+03</rscale>
<asrwt>0</asrwt>
<pdfrwt beam="1">  1        3 0.14366807E-01 0.12499895E+03</pdfrwt>
<pdfrwt beam="2">  1       -3 0.64352549E-02 0.12499895E+03</pdfrwt>
<totfact> 0.13468194E+04</totfact>
</mgrwt>
</event>
<event>
 5    1  0.2989269E-047  0.1250003E+03  0.7818608E-02  0.1235069E+00
          3   -1    0    0  501    0  0.00000000000E+00  0.00000000000E+00  0.31285493412E+02  0.31285631639E+02  0.93000000000E-01 0.  1.
         -3   -1    0    0    0  501 -0.00000000000E+00 -0.00000000000E+00 -0.12485835424E+03  0.12485838888E+03  0.93000000000E-01 0. -1.
         25    2    1    2    0    0  0.00000000000E+00  0.00000000000E+00 -0.93572860828E+02  0.15614402051E+03  0.12500029943E+03 0.  0.
        -13    1    3    3    0    0  0.20556008737E+02 -0.40294284837E+02 -0.10066052186E+03  0.11035728666E+03  0.10570000000E+00 0. -1.
         13    1    3    3    0    0 -0.20556008737E+02  0.40294284837E+02  0.70876610287E+01  0.45786733855E+02  0.10570000000E+00 0.  1.
<mgrwt>
<rscale>  0 0.12500030E+03</rscale>
<asrwt>0</asrwt>
<pdfrwt beam="1">  1        3 0.48131662E-02 0.12500030E+03</pdfrwt>
<pdfrwt beam="2">  1       -3 0.19208991E-01 0.12500030E+03</pdfrwt>
<totfact> 0.12946493E+04</totfact>
</mgrwt>
</event>
<event>
 5    1  0.2989269E-047  0.1250023E+03  0.7818608E-02  0.1235066E+00
          3   -1    0    0  501    0  0.00000000000E+00  0.00000000000E+00  0.10625171237E+03  0.10625175307E+03  0.93000000000E-01 0. -1.
         -3   -1    0    0    0  501 -0.00000000000E+00 -0.00000000000E+00 -0.36765367336E+02  0.36765484960E+02  0.93000000000E-01 0.  1.
         25    2    1    2    0    0  0.00000000000E+00  0.00000000000E+00  0.69486345032E+02  0.14301723803E+03  0.12500231289E+03 0.  0.
        -13    1    3    3    0    0  0.57572581841E+02  0.22225745475E+02  0.46057639168E+02  0.77005864972E+02  0.10570000000E+00 0. -1.
         13    1    3    3    0    0 -0.57572581841E+02 -0.22225745475E+02  0.23428705864E+02  0.66011373056E+02  0.10570000000E+00 0.  1.
<mgrwt>
<rscale>  0 0.12500231E+03</rscale>
<asrwt>0</asrwt>
<pdfrwt beam="1">  1        3 0.16346429E-01 0.12500231E+03</pdfrwt>
<pdfrwt beam="2">  1       -3 0.56562227E-02 0.12500231E+03</pdfrwt>
<totfact> 0.13268282E+04</totfact>
</mgrwt>
</event>
<event>
 4    1  0.2989269E-047  0.1249537E+03  0.7818608E-02  0.1235142E+00
          3   -1    0    0  501    0  0.00000000000E+00  0.00000000000E+00  0.36634218707E+02  0.36634336753E+02  0.93000000000E-01 0. -1.
         -3   -1    0    0    0  501 -0.00000000000E+00 -0.00000000000E+00 -0.10654909338E+03  0.10654913396E+03  0.93000000000E-01 0.  1.
        -13    1    1    2    0    0  0.56452371976E+02 -0.25166204967E+02 -0.24509384992E+02  0.66490069178E+02  0.10570000000E+00 0.  1.
         13    1    1    2    0    0 -0.56452371976E+02  0.25166204967E+02 -0.45405489678E+02  0.76693401539E+02  0.10570000000E+00 0. -1.
<mgrwt>
<rscale>  0 0.12495366E+03</rscale>
<asrwt>0</asrwt>
<pdfrwt beam="1">  1        3 0.56360459E-02 0.12495366E+03</pdfrwt>
<pdfrwt beam="2">  1       -3 0.16392180E-01 0.12495366E+03</pdfrwt>
<totfact> 0.13278830E+04</totfact>
</mgrwt>
</event>
<event>
 5    1  0.2989269E-047  0.1249912E+03  0.7818608E-02  0.1235083E+00
          3   -1    0    0  501    0  0.00000000000E+00  0.00000000000E+00  0.10974155167E+03  0.10974159108E+03  0.93000000000E-01 0. -1.
         -3   -1    0    0    0  501 -0.00000000000E+00 -0.00000000000E+00 -0.35589888929E+02  0.35590010438E+02  0.93000000000E-01 0.  1.
         25    2    1    2    0    0  0.00000000000E+00  0.00000000000E+00  0.74151662741E+02  0.14533160151E+03  0.12499122094E+03 0.  0.
        -13    1    3    3    0    0 -0.46616751902E+02  0.38655203987E+02  0.55026576498E+02  0.81824700712E+02  0.10570000000E+00 0.  1.
         13    1    3    3    0    0  0.46616751902E+02 -0.38655203987E+02  0.19125086244E+02  0.63506900802E+02  0.10570000000E+00 0. -1.
<mgrwt>
<rscale>  0 0.12499122E+03</rscale>
<asrwt>0</asrwt>
<pdfrwt beam="1">  1        3 0.16883328E-01 0.12499122E+03</pdfrwt>
<pdfrwt beam="2">  1       -3 0.54753800E-02 0.12499122E+03</pdfrwt>
<totfact> 0.13213656E+04</totfact>
</mgrwt>
</event>
<event>
 5    1  0.2989269E-047  0.1250042E+03  0.7818608E-02  0.1235063E+00
          3   -1    0    0  501    0  0.00000000000E+00  0.00000000000E+00  0.65475669958E+03  0.65475670619E+03  0.93000000000E-01 0. -1.
         -3   -1    0    0    0  501 -0.00000000000E+00 -0.00000000000E+00 -0.59659846722E+01  0.59667094876E+01  0.93000000000E-01 0.  1.
         25    2    1    2    0    0  0.00000000000E+00  0.00000000000E+00  0.64879071491E+03  0.66072341567E+03  0.12500416100E+03 0.  0.
        -13    1    3    3    0    0  0.60960851841E+02 -0.13305954984E+02  0.30517360172E+03  0.31148709805E+03  0.10570000000E+00 0.  1.
         13    1    3    3    0    0 -0.60960851841E+02  0.13305954984E+02  0.34361711319E+03  0.34923631762E+03  0.10570000000E+00 0. -1.
<mgrwt>
<rscale>  0 0.12500416E+03</rscale>
<asrwt>0</asrwt>
<pdfrwt beam="1">  1        3 0.10073188E+00 0.12500416E+03</pdfrwt>
<pdfrwt beam="2">  1       -3 0.91789983E-03 0.12500416E+03</pdfrwt>
<totfact> 0.62058413E+03</totfact>
</mgrwt>
</event>
<event>
 5    1  0.2989269E-047  0.1250061E+03  0.7818608E-02  0.1235060E+00
         -3   -1    0    0    0  501 -0.00000000000E+00  0.00000000000E+00  0.12192851675E+02  0.12193206345E+02  0.93000000000E-01 0.  1.
          3   -1    0    0  501    0  0.00000000000E+00 -0.00000000000E+00 -0.32039816726E+03  0.32039818076E+03  0.93000000000E-01 0. -1.
         25    2    1    2    0    0  0.00000000000E+00  0.00000000000E+00 -0.30820531559E+03  0.33259138710E+03  0.12500605673E+03 0.  0.
        -13    1    3    3    0    0 -0.59177869725E+02 -0.13398155694E+02 -0.11418595076E+03  0.12930573601E+03  0.10570000000E+00 0.  1.
         13    1    3    3    0    0  0.59177869725E+02  0.13398155694E+02 -0.19401936482E+03  0.20328565109E+03  0.10570000000E+00 0. -1.
<mgrwt>
<rscale>  0 0.12500606E+03</rscale>
<asrwt>0</asrwt>
<pdfrwt beam="2">  1        3 0.49292048E-01 0.12500606E+03</pdfrwt>
<pdfrwt beam="1">  1       -3 0.18758519E-02 0.12500606E+03</pdfrwt>
<totfact> 0.96371848E+03</totfact>
</mgrwt>
</event>
<event>
 5    1  0.2989269E-047  0.1250000E+03  0.7818608E-02  0.1235069E+00
         -3   -1    0    0    0  501 -0.00000000000E+00  0.00000000000E+00  0.61720269414E+03  0.61720270115E+03  0.93000000000E-01 0.  1.
          3   -1    0    0  501    0  0.00000000000E+00 -0.00000000000E+00 -0.63286080628E+01  0.63292913515E+01  0.93000000000E-01 0. -1.
         25    2    1    2    0    0  0.00000000000E+00  0.00000000000E+00  0.61087408608E+03  0.62353199250E+03  0.12499998651E+03 0.  0.
        -13    1    3    3    0    0  0.28789411337E+02  0.53990139202E+02  0.36901973411E+03  0.37405793759E+03  0.10570000000E+00 0.  1.
         13    1    3    3    0    0 -0.28789411337E+02 -0.53990139202E+02  0.24185435197E+03  0.24947405491E+03  0.10570000000E+00 0. -1.
<mgrwt>
<rscale>  0 0.12499999E+03</rscale>
<asrwt>0</asrwt>
<pdfrwt beam="2">  1        3 0.97368493E-03 0.12499999E+03</pdfrwt>
<pdfrwt beam="1">  1       -3 0.94954331E-01 0.12499999E+03</pdfrwt>
<totfact> 0.64806271E+03</totfact>
</mgrwt>
</event>
<event>
 5    1  0.2989269E-047  0.1250050E+03  0.7818608E-02  0.1235062E+00
          3   -1    0    0  501    0  0.00000000000E+00  0.00000000000E+00  0.96249890052E+01  0.96254382940E+01  0.93000000000E-01 0.  1.
         -3   -1    0    0    0  501 -0.00000000000E+00 -0.00000000000E+00 -0.40586687677E+03  0.40586688742E+03  0.93000000000E-01 0. -1.
         25    2    1    2    0    0  0.00000000000E+00  0.00000000000E+00 -0.39624188776E+03  0.41549232572E+03  0.12500495635E+03 0.  0.
        -13    1    3    3    0    0  0.57023309375E+02 -0.14675442803E+02 -0.26780383609E+03  0.27420053288E+03  0.10570000000E+00 0. -1.
         13    1    3    3    0    0 -0.57023309375E+02  0.14675442803E+02 -0.12843805167E+03  0.14129179283E+03  0.10570000000E+00 0.  1.
<mgrwt>
<rscale>  0 0.12500496E+03</rscale>
<asrwt>0</asrwt>
<pdfrwt beam="1">  1        3 0.14808032E-02 0.12500496E+03</pdfrwt>
<pdfrwt beam="2">  1       -3 0.62441080E-01 0.12500496E+03</pdfrwt>
<totfact> 0.85259985E+03</totfact>
</mgrwt>
</event>
<event>
 5    1  0.2989269E-047  0.1250010E+03  0.7818608E-02  0.1235068E+00
         -3   -1    0    0    0  501 -0.00000000000E+00  0.00000000000E+00  0.32462565404E+02  0.32462698619E+02  0.93000000000E-01 0. -1.
          3   -1    0    0  501    0  0.00000000000E+00 -0.00000000000E+00 -0.12033251666E+03  0.12033255260E+03  0.93000000000E-01 0.  1.
         25    2    1    2    0    0  0.00000000000E+00  0.00000000000E+00 -0.87869951260E+02  0.15279525122E+03  0.12500104184E+03 0.  0.
        -13    1    3    3    0    0 -0.25941733538E+02 -0.45485339722E+02 -0.22240349340E+01  0.52410372756E+02  0.10570000000E+00 0. -1.
         13    1    3    3    0    0  0.25941733538E+02  0.45485339722E+02 -0.85645916326E+02  0.10038487847E+03  0.10570000000E+00 0.  1.
<mgrwt>
<rscale>  0 0.12500104E+03</rscale>
<asrwt>0</asrwt>
<pdfrwt beam="2">  1        3 0.18512708E-01 0.12500104E+03</pdfrwt>
<pdfrwt beam="1">  1       -3 0.49942539E-02 0.12500104E+03</pdfrwt>
<totfact> 0.13027204E+04</totfact>
</mgrwt>
</event>
<event>
 5    1  0.2989269E-047  0.1249988E+03  0.7818608E-02  0.1235071E+00
         -3   -1    0    0    0  501 -0.00000000000E+00  0.00000000000E+00  0.61767749073E+02  0.61767819085E+02  0.93000000000E-01 0.  1.
          3   -1    0    0  501    0  0.00000000000E+00 -0.00000000000E+00 -0.63239595810E+02  0.63239664192E+02  0.93000000000E-01 0. -1.
         25    2    1    2    0    0  0.00000000000E+00  0.00000000000E+00 -0.14718467369E+01  0.12500748328E+03  0.12499881816E+03 0.  0.
        -13    1    3    3    0    0  0.36218487663E+02 -0.28720126371E+02  0.41332898803E+02  0.62008420423E+02  0.10570000000E+00 0.  1.
         13    1    3    3    0    0 -0.36218487663E+02  0.28720126371E+02 -0.42804745540E+02  0.62999062855E+02  0.10570000000E+00 0. -1.
<mgrwt>
<rscale>  0 0.12499882E+03</rscale>
<asrwt>0</asrwt>
<pdfrwt beam="2">  1        3 0.97291792E-02 0.12499882E+03</pdfrwt>
<pdfrwt beam="1">  1       -3 0.95027413E-02 0.12499882E+03</pdfrwt>
<totfact> 0.13736585E+04</totfact>
</mgrwt>
</event>
<event>
 5    1  0.2989269E-047  0.1249689E+03  0.7818608E-02  0.1235118E+00
          3   -1    0    0  501    0  0.00000000000E+00  0.00000000000E+00  0.64533049650E+02  0.64533116662E+02  0.93000000000E-01 0. -1.
         -3   -1    0    0    0  501 -0.00000000000E+00 -0.00000000000E+00 -0.60500733101E+02  0.60500804579E+02  0.93000000000E-01 0.  1.
         25    2    1    2    0    0  0.00000000000E+00  0.00000000000E+00  0.40323165491E+01  0.12503392124E+03  0.12496888366E+03 0.  0.
        -13    1    3    3    0    0  0.20509691667E+02 -0.46995622918E+02 -0.33710383340E+02  0.61364787486E+02  0.10570000000E+00 0.  1.
         13    1    3    3    0    0 -0.20509691667E+02  0.46995622918E+02  0.37742699890E+02  0.63669133755E+02  0.10570000000E+00 0. -1.
<mgrwt>
<rscale>  0 0.12496888E+03</rscale>
<asrwt>0</asrwt>
<pdfrwt beam="1">  1        3 0.99281721E-02 0.12496888E+03</pdfrwt>
<pdfrwt beam="2">  1       -3 0.93078158E-02 0.12496888E+03</pdfrwt>
<totfact> 0.13745170E+04</totfact>
</mgrwt>
</event>
<event>
 5    1  0.2989269E-047  0.1249669E+03  0.7818608E-02  0.1235121E+00
         -3   -1    0    0    0  501 -0.00000000000E+00  0.00000000000E+00  0.12505617337E+03  0.12505620795E+03  0.93000000000E-01 0. -1.
          3   -1    0    0  501    0  0.00000000000E+00 -0.00000000000E+00 -0.31219325151E+02  0.31219463670E+02  0.93000000000E-01 0.  1.
         25    2    1    2    0    0  0.00000000000E+00  0.00000000000E+00  0.93836848224E+02  0.15627567163E+03  0.12496692145E+03 0.  0.
        -13    1    3    3    0    0 -0.61396039176E+02  0.10734657447E+02  0.41401135783E+02  0.74824940452E+02  0.10570000000E+00 0. -1.
         13    1    3    3    0    0  0.61396039176E+02 -0.10734657447E+02  0.52435712441E+02  0.81450731174E+02  0.10570000000E+00 0.  1.
<mgrwt>
<rscale>  0 0.12496692E+03</rscale>
<asrwt>0</asrwt>
<pdfrwt beam="2">  1        3 0.48029864E-02 0.12496692E+03</pdfrwt>
<pdfrwt beam="1">  1       -3 0.19239425E-01 0.12496692E+03</pdfrwt>
<totfact> 0.12953049E+04</totfact>
</mgrwt>
</event>
<event>
 5    1  0.2989269E-047  0.1250179E+03  0.7818608E-02  0.1235041E+00
          3   -1    0    0  501    0  0.00000000000E+00  0.00000000000E+00  0.31357501351E+03  0.31357502731E+03  0.93000000000E-01 0. -1.
         -3   -1    0    0    0  501 -0.00000000000E+00 -0.00000000000E+00 -0.12460518640E+02  0.12460865691E+02  0.93000000000E-01 0.  1.
         25    2    1    2    0    0  0.00000000000E+00  0.00000000000E+00  0.30111449487E+03  0.32603589300E+03  0.12501785672E+03 0.  0.
        -13    1    3    3    0    0 -0.10350687177E+02  0.48320052056E+02  0.50725173261E+02  0.70816795540E+02  0.10570000000E+00 0.  1.
         13    1    3    3    0    0  0.10350687177E+02 -0.48320052056E+02  0.25038932161E+03  0.25521909746E+03  0.10570000000E+00 0. -1.
<mgrwt>
<rscale>  0 0.12501786E+03</rscale>
<asrwt>0</asrwt>
<pdfrwt beam="1">  1        3 0.48242336E-01 0.12501786E+03</pdfrwt>
<pdfrwt beam="2">  1       -3 0.19170307E-02 0.12501786E+03</pdfrwt>
<totfact> 0.97316155E+03</totfact>
</mgrwt>
</event>
<event>
 5    1  0.2989269E-047  0.1250001E+03  0.7818608E-02  0.1235069E+00
          3   -1    0    0  501    0  0.00000000000E+00  0.00000000000E+00  0.18670587453E+03  0.18670589769E+03  0.93000000000E-01 0.  1.
         -3   -1    0    0    0  501 -0.00000000000E+00 -0.00000000000E+00 -0.20921854330E+02  0.20922061027E+02  0.93000000000E-01 0. -1.
         25    2    1    2    0    0  0.00000000000E+00  0.00000000000E+00  0.16578402020E+03  0.20762795872E+03  0.12500011155E+03 0.  0.
        -13    1    3    3    0    0 -0.33965256909E+02  0.36324881517E+02  0.20011622096E+02  0.53606080677E+02  0.10570000000E+00 0. -1.
         13    1    3    3    0    0  0.33965256909E+02 -0.36324881517E+02  0.14577239810E+03  0.15402187804E+03  0.10570000000E+00 0.  1.
<mgrwt>
<rscale>  0 0.12500011E+03</rscale>
<asrwt>0</asrwt>
<pdfrwt beam="1">  1        3 0.28724000E-01 0.12500011E+03</pdfrwt>
<pdfrwt beam="2">  1       -3 0.32187644E-02 0.12500011E+03</pdfrwt>
<totfact> 0.11804056E+04</totfact>
</mgrwt>
</event>
<event>
 5    1  0.2989269E-047  0.1250100E+03  0.7818608E-02  0.1235054E+00
          3   -1    0    0  501    0  0.00000000000E+00  0.00000000000E+00  0.27809988292E+02  0.27810143793E+02  0.93000000000E-01 0. -1.
         -3   -1    0    0    0  501 -0.00000000000E+00 -0.00000000000E+00 -0.14048400986E+03  0.14048404064E+03  0.93000000000E-01 0.  1.
         25    2    1    2    0    0  0.00000000000E+00  0.00000000000E+00 -0.11267402157E+03  0.16829418444E+03  0.12500998912E+03 0.  0.
        -13    1    3    3    0    0  0.16015015797E+01  0.61111215891E+02 -0.73875327378E+02  0.95889106173E+02  0.10570000000E+00 0. -1.
         13    1    3    3    0    0 -0.16015015797E+01 -0.61111215891E+02 -0.38798694190E+02  0.72405078263E+02  0.10570000000E+00 0.  1.
<mgrwt>
<rscale>  0 0.12500999E+03</rscale>
<asrwt>0</asrwt>
<pdfrwt beam="1">  1        3 0.42784741E-02 0.12500999E+03</pdfrwt>
<pdfrwt beam="2">  1       -3 0.21612939E-01 0.12500999E+03</pdfrwt>
<totfact> 0.12656990E+04</totfact>
</mgrwt>
</event>
<event>
 5    1  0.2989269E-047  0.1249981E+03  0.7818608E-02  0.1235072E+00
          3   -1    0    0  501    0  0.00000000000E+00  0.00000000000E+00  0.16519849920E+02  0.16520111693E+02  0.93000000000E-01 0. -1.
         -3   -1    0    0    0  501 -0.00000000000E+00 -0.00000000000E+00 -0.23644878939E+03  0.23644880768E+03  0.93000000000E-01 0.  1.
         25    2    1    2    0    0  0.00000000000E+00  0.00000000000E+00 -0.21992893947E+03  0.25296891938E+03  0.12499814300E+03 0.  0.
        -13    1    3    3    0    0  0.33511952532E+02  0.41466111174E+02 -0.17596684930E+03  0.18386634429E+03  0.10570000000E+00 0.  1.
         13    1    3    3    0    0 -0.33511952532E+02 -0.41466111174E+02 -0.43962090177E+02  0.69102575087E+02  0.10570000000E+00 0. -1.
<mgrwt>
<rscale>  0 0.12499814E+03</rscale>
<asrwt>0</asrwt>
<pdfrwt beam="1">  1        3 0.25415371E-02 0.12499814E+03</pdfrwt>
<pdfrwt beam="2">  1       -3 0.36376756E-01 0.12499814E+03</pdfrwt>
<totfact> 0.10931291E+04</totfact>
</mgrwt>
</event>
<event>
 5    1  0.2989269E-047  0.1250028E+03  0.7818608E-02  0.1235065E+00
         -3   -1    0    0    0  501 -0.00000000000E+00  0.00000000000E+00  0.11731542872E+03  0.11731546558E+03  0.93000000000E-01 0.  1.
          3   -1    0    0  501    0  0.00000000000E+00 -0.00000000000E+00 -0.33298384111E+02  0.33298513982E+02  0.93000000000E-01 0. -1.
         25    2    1    2    0    0  0.00000000000E+00  0.00000000000E+00  0.84017044604E+02  0.15061397956E+03  0.12500282819E+03 0.  0.
        -13    1    3    3    0    0  0.26831397277E+02 -0.31410284272E+02  0.98521150896E+02  0.10683144754E+03  0.10570000000E+00 0.  1.
         13    1    3    3    0    0 -0.26831397277E+02  0.31410284272E+02 -0.14504106292E+02  0.43782532016E+02  0.10570000000E+00 0. -1.
<mgrwt>
<rscale>  0 0.12500283E+03</rscale>
<asrwt>0</asrwt>
<pdfrwt beam="2">  1        3 0.51228412E-02 0.12500283E+03</pdfrwt>
<pdfrwt beam="1">  1       -3 0.18048540E-01 0.12500283E+03</pdfrwt>
<totfact> 0.13079933E+04</totfact>
</mgrwt>
</event>
<event>
 5    1  0.2989269E-047  0.1250025E+03  0.7818608E-02  0.1235065E+00
          3   -1    0    0  501    0  0.00000000000E+00  0.00000000000E+00  0.98022005320E+01  0.98026416985E+01  0.93000000000E-01 0. -1.
         -3   -1    0    0    0  501 -0.00000000000E+00 -0.00000000000E+00 -0.39851392825E+03  0.39851393910E+03  0.93000000000E-01 0.  1.
         25    2    1    2    0    0  0.00000000000E+00  0.00000000000E+00 -0.38871172771E+03  0.40831658080E+03  0.12500249154E+03 0.  0.
        -13    1    3    3    0    0  0.51353315457E+02 -0.32134303773E+02 -0.14410977133E+03  0.15632470647E+03  0.10570000000E+00 0.  1.
         13    1    3    3    0    0 -0.51353315457E+02  0.32134303773E+02 -0.24460195639E+03  0.25199187433E+03  0.10570000000E+00 0. -1.
<mgrwt>
<rscale>  0 0.12500249E+03</rscale>
<asrwt>0</asrwt>
<pdfrwt beam="1">  1        3 0.15080659E-02 0.12500249E+03</pdfrwt>
<pdfrwt beam="2">  1       -3 0.61309857E-01 0.12500249E+03</pdfrwt>
<totfact> 0.86142067E+03</totfact>
</mgrwt>
</event>
<event>
 5    1  0.2989269E-047  0.1249992E+03  0.7818608E-02  0.1235071E+00
          3   -1    0    0  501    0  0.00000000000E+00  0.00000000000E+00  0.11208231930E+03  0.11208235788E+03  0.93000000000E-01 0. -1.
         -3   -1    0    0    0  501 -0.00000000000E+00 -0.00000000000E+00 -0.34851039123E+02  0.34851163208E+02  0.93000000000E-01 0.  1.
         25    2    1    2    0    0  0.00000000000E+00  0.00000000000E+00  0.77231280174E+02  0.14693352109E+03  0.12499915593E+03 0.  0.
        -13    1    3    3    0    0 -0.27265425902E+02 -0.51996774009E+02  0.13428664541E+02  0.60227968261E+02  0.10570000000E+00 0.  1.
         13    1    3    3    0    0  0.27265425902E+02  0.51996774009E+02  0.63802615633E+02  0.86705552827E+02  0.10570000000E+00 0. -1.
<mgrwt>
<rscale>  0 0.12499916E+03</rscale>
<asrwt>0</asrwt>
<pdfrwt beam="1">  1        3 0.17243446E-01 0.12499916E+03</pdfrwt>
<pdfrwt beam="2">  1       -3 0.53617109E-02 0.12499916E+03</pdfrwt>
<totfact> 0.13171486E+04</totfact>
</mgrwt>
</event>
<event>
 5    1  0.2989269E-047  0.1250003E+03  0.7818608E-02  0.1235069E+00
         -3   -1    0    0    0  501 -0.00000000000E+00  0.00000000000E+00  0.44320183267E+03  0.44320184243E+03  0.93000000000E-01 0.  1.
          3   -1    0    0  501    0  0.00000000000E+00 -0.00000000000E+00 -0.88134923402E+01  0.88139829947E+01  0.93000000000E-01 0. -1.
         25    2    1    2    0    0  0.00000000000E+00  0.00000000000E+00  0.43438834033E+03  0.45201582543E+03  0.12500030487E+03 0.  0.
        -13    1    3    3    0    0  0.39610029837E+02 -0.40201326015E+02  0.31430270929E+03  0.31932946203E+03  0.10570000000E+00 0.  1.
         13    1    3    3    0    0 -0.39610029837E+02  0.40201326015E+02  0.12008563104E+03  0.13268636340E+03  0.10570000000E+00 0. -1.
<mgrwt>
<rscale>  0 0.12500030E+03</rscale>
<asrwt>0</asrwt>
<pdfrwt beam="2">  1        3 0.13559606E-02 0.12500030E+03</pdfrwt>
<pdfrwt beam="1">  1       -3 0.68184925E-01 0.12500030E+03</pdfrwt>
<totfact> 0.81010432E+03</totfact>
</mgrwt>
</event>
<event>
 5    1  0.2989269E-047  0.1250012E+03  0.7818608E-02  0.1235067E+00
         -3   -1    0    0    0  501 -0.00000000000E+00  0.00000000000E+00  0.58568718354E+01  0.58576101523E+01  0.93000000000E-01 0.  1.
          3   -1    0    0  501    0  0.00000000000E+00 -0.00000000000E+00 -0.66692183253E+03  0.66692183901E+03  0.93000000000E-01 0. -1.
         25    2    1    2    0    0  0.00000000000E+00  0.00000000000E+00 -0.66106496069E+03  0.67277944916E+03  0.12500121984E+03 0.  0.
        -13    1    3    3    0    0  0.58598014010E+02 -0.21313567972E+02 -0.30749595560E+03  0.31375431361E+03  0.10570000000E+00 0.  1.
         13    1    3    3    0    0 -0.58598014010E+02  0.21313567972E+02 -0.35356900509E+03  0.35902513555E+03  0.10570000000E+00 0. -1.
<mgrwt>
<rscale>  0 0.12500122E+03</rscale>
<asrwt>0</asrwt>
<pdfrwt beam="2">  1        3 0.10260336E+00 0.12500122E+03</pdfrwt>
<pdfrwt beam="1">  1       -3 0.90111502E-03 0.12500122E+03</pdfrwt>
<totfact> 0.61167720E+03</totfact>
</mgrwt>
</event>
<event>
 5    1  0.2989269E-047  0.1249997E+03  0.7818608E-02  0.1235070E+00
         -3   -1    0    0    0  501 -0.00000000000E+00  0.00000000000E+00  0.99512692173E+02  0.99512735630E+02  0.93000000000E-01 0.  1.
          3   -1    0    0  501    0  0.00000000000E+00 -0.00000000000E+00 -0.39253520476E+02  0.39253630644E+02  0.93000000000E-01 0. -1.
         25    2    1    2    0    0  0.00000000000E+00  0.00000000000E+00  0.60259171697E+02  0.13876636627E+03  0.12499974654E+03 0.  0.
        -13    1    3    3    0    0 -0.34152381509E+02  0.29297639256E+02  0.78282835091E+02  0.90293688988E+02  0.10570000000E+00 0.  1.
         13    1    3    3    0    0  0.34152381509E+02 -0.29297639256E+02 -0.18023663394E+02  0.48472677286E+02  0.10570000000E+00 0. -1.
<mgrwt>
<rscale>  0 0.12499975E+03</rscale>
<asrwt>0</asrwt>
<pdfrwt beam="2">  1        3 0.60390150E-02 0.12499975E+03</pdfrwt>
<pdfrwt beam="1">  1       -3 0.15309657E-01 0.12499975E+03</pdfrwt>
<totfact> 0.13376981E+04</totfact>
</mgrwt>
</event>
<event>
 5    1  0.2989269E-047  0.1250010E+03  0.7818608E-02  0.1235068E+00
         -3   -1    0    0    0  501 -0.00000000000E+00  0.00000000000E+00  0.18762838149E+02  0.18763068630E+02  0.93000000000E-01 0.  1.
          3   -1    0    0  501    0  0.00000000000E+00 -0.00000000000E+00 -0.20819254242E+03  0.20819256319E+03  0.93000000000E-01 0. -1.
         25    2    1    2    0    0  0.00000000000E+00  0.00000000000E+00 -0.18942970427E+03  0.22695563182E+03  0.12500098382E+03 0.  0.
        -13    1    3    3    0    0 -0.34879182722E+02 -0.44275045488E+02 -0.45677247335E+02  0.72548322771E+02  0.10570000000E+00 0.  1.
         13    1    3    3    0    0  0.34879182722E+02  0.44275045488E+02 -0.14375245693E+03  0.15440730905E+03  0.10570000000E+00 0. -1.
<mgrwt>
<rscale>  0 0.12500098E+03</rscale>
<asrwt>0</asrwt>
<pdfrwt beam="2">  1        3 0.32029640E-01 0.12500098E+03</pdfrwt>
<pdfrwt beam="1">  1       -3 0.28866100E-02 0.12500098E+03</pdfrwt>
<totfact> 0.11418704E+04</totfact>
</mgrwt>
</event>
<event>
 5    1  0.2989269E-047  0.1250020E+03  0.7818608E-02  0.1235066E+00
          3   -1    0    0  501    0  0.00000000000E+00  0.00000000000E+00  0.93762017990E+01  0.93766630085E+01  0.93000000000E-01 0.  1.
         -3   -1    0    0    0  501 -0.00000000000E+00 -0.00000000000E+00 -0.41661573937E+03  0.41661574975E+03  0.93000000000E-01 0. -1.
         25    2    1    2    0    0  0.00000000000E+00  0.00000000000E+00 -0.40723953757E+03  0.42599241275E+03  0.12500197905E+03 0.  0.
        -13    1    3    3    0    0 -0.20714639666E+02 -0.55948064539E+02 -0.14013055407E+03  0.15230188961E+03  0.10570000000E+00 0. -1.
         13    1    3    3    0    0  0.20714639666E+02  0.55948064539E+02 -0.26710898349E+03  0.27369052314E+03  0.10570000000E+00 0.  1.
<mgrwt>
<rscale>  0 0.12500198E+03</rscale>
<asrwt>0</asrwt>
<pdfrwt beam="1">  1        3 0.14425292E-02 0.12500198E+03</pdfrwt>
<pdfrwt beam="2">  1       -3 0.64094751E-01 0.12500198E+03</pdfrwt>
<totfact> 0.84006580E+03</totfact>
</mgrwt>
</event>
<event>
 5    1  0.2989269E-047  0.1249996E+03  0.7818608E-02  0.1235070E+00
          3   -1    0    0  501    0  0.00000000000E+00  0.00000000000E+00  0.47113506468E+02  0.47113598257E+02  0.93000000000E-01 0. -1.
         -3   -1    0    0    0  501 -0.00000000000E+00 -0.00000000000E+00 -0.82910700393E+02  0.82910752552E+02  0.93000000000E-01 0.  1.
         25    2    1    2    0    0  0.00000000000E+00  0.00000000000E+00 -0.35797193925E+02  0.13002435081E+03  0.12499957084E+03 0.  0.
        -13    1    3    3    0    0 -0.30884677616E+02  0.53776071357E+02 -0.25988294249E+02  0.67239361779E+02  0.10570000000E+00 0.  1.
         13    1    3    3    0    0  0.30884677616E+02 -0.53776071357E+02 -0.98088996759E+01  0.62784989029E+02  0.10570000000E+00 0. -1.
<mgrwt>
<rscale>  0 0.12499957E+03</rscale>
<asrwt>0</asrwt>
<pdfrwt beam="1">  1        3 0.72482428E-02 0.12499957E+03</pdfrwt>
<pdfrwt beam="2">  1       -3 0.12755503E-01 0.12499957E+03</pdfrwt>
<totfact> 0.13603427E+04</totfact>
</mgrwt>
</event>
<event>
 5    1  0.2989269E-047  0.1250005E+03  0.7818608E-02  0.1235068E+00
         -3   -1    0    0    0  501 -0.00000000000E+00  0.00000000000E+00  0.44043893652E+02  0.44043991838E+02  0.93000000000E-01 0.  1.
          3   -1    0    0  501    0  0.00000000000E+00 -0.00000000000E+00 -0.88690475579E+02  0.88690524339E+02  0.93000000000E-01 0. -1.
         25    2    1    2    0    0  0.00000000000E+00  0.00000000000E+00 -0.44646581927E+02  0.13273451618E+03  0.12500053803E+03 0.  0.
        -13    1    3    3    0    0  0.57775080230E+02  0.16604639146E+02 -0.41594349936E+01  0.60257663485E+02  0.10570000000E+00 0.  1.
         13    1    3    3    0    0 -0.57775080230E+02 -0.16604639146E+02 -0.40487146934E+02  0.72476852692E+02  0.10570000000E+00 0. -1.
<mgrwt>
<rscale>  0 0.12500054E+03</rscale>
<asrwt>0</asrwt>
<pdfrwt beam="2">  1        3 0.13644700E-01 0.12500054E+03</pdfrwt>
<pdfrwt beam="1">  1       -3 0.67759950E-02 0.12500054E+03</pdfrwt>
<totfact> 0.13532002E+04</totfact>
</mgrwt>
</event>
<event>
 5    1  0.3319987E-047  0.1249993E+03  0.7818608E-02  0.1235070E+00
         -3   -1    0    0    0  501 -0.00000000000E+00  0.00000000000E+00  0.57815148099E+02  0.57815222898E+02  0.93000000000E-01 0.  1.
          3   -1    0    0  501    0  0.00000000000E+00 -0.00000000000E+00 -0.67563544718E+02  0.67563608725E+02  0.93000000000E-01 0. -1.
         25    2    1    2    0    0  0.00000000000E+00  0.00000000000E+00 -0.97483966191E+01  0.12537883162E+03  0.12499928073E+03 0.  0.
        -13    1    3    3    0    0  0.43707179366E+02 -0.31752312892E+02  0.26648397233E+02  0.60238485620E+02  0.10570000000E+00 0.  1.
         13    1    3    3    0    0 -0.43707179366E+02  0.31752312892E+02 -0.36396793852E+02  0.65140346003E+02  0.10570000000E+00 0. -1.
<mgrwt>
<rscale>  0 0.12499928E+03</rscale>
<asrwt>0</asrwt>
<pdfrwt beam="2">  1        3 0.10394402E-01 0.12499928E+03</pdfrwt>
<pdfrwt beam="1">  1       -3 0.88946488E-02 0.12499928E+03</pdfrwt>
<totfact> 0.13726571E+04</totfact>
</mgrwt>
</event>
<event>
 5    1  0.2989269E-047  0.1250000E+03  0.7818608E-02  0.1235069E+00
         -3   -1    0    0    0  501 -0.00000000000E+00  0.00000000000E+00  0.83396466497E+02  0.83396518352E+02  0.93000000000E-01 0.  1.
          3   -1    0    0  501    0  0.00000000000E+00 -0.00000000000E+00 -0.46839425504E+02  0.46839517830E+02  0.93000000000E-01 0. -1.
         25    2    1    2    0    0  0.00000000000E+00  0.00000000000E+00  0.36557040994E+02  0.13023603618E+03  0.12500003150E+03 0.  0.
        -13    1    3    3    0    0  0.13363319025E+00 -0.31893124916E+02  0.74279895539E+02  0.80837511890E+02  0.10570000000E+00 0.  1.
         13    1    3    3    0    0 -0.13363319025E+00  0.31893124916E+02 -0.37722854545E+02  0.49398524292E+02  0.10570000000E+00 0. -1.
<mgrwt>
<rscale>  0 0.12500003E+03</rscale>
<asrwt>0</asrwt>
<pdfrwt beam="2">  1        3 0.72060766E-02 0.12500003E+03</pdfrwt>
<pdfrwt beam="1">  1       -3 0.12830237E-01 0.12500003E+03</pdfrwt>
<totfact> 0.13597750E+04</totfact>
</mgrwt>
</event>
<event>
 5    1  0.2989269E-047  0.1249993E+03  0.7818608E-02  0.1235070E+00
          3   -1    0    0  501    0  0.00000000000E+00  0.00000000000E+00  0.93152923793E+02  0.93152970216E+02  0.93000000000E-01 0. -1.
         -3   -1    0    0    0  501 -0.00000000000E+00 -0.00000000000E+00 -0.41933123453E+02  0.41933226582E+02  0.93000000000E-01 0.  1.
         25    2    1    2    0    0  0.00000000000E+00  0.00000000000E+00  0.51219800339E+02  0.13508619680E+03  0.12499925047E+03 0.  0.
        -13    1    3    3    0    0  0.30845497125E+02 -0.46712093144E+02 -0.44312661928E+01  0.56152574574E+02  0.10570000000E+00 0.  1.
         13    1    3    3    0    0 -0.30845497125E+02  0.46712093144E+02  0.55651066532E+02  0.78933622224E+02  0.10570000000E+00 0. -1.
<mgrwt>
<rscale>  0 0.12499925E+03</rscale>
<asrwt>0</asrwt>
<pdfrwt beam="1">  1        3 0.14331230E-01 0.12499925E+03</pdfrwt>
<pdfrwt beam="2">  1       -3 0.64512614E-02 0.12499925E+03</pdfrwt>
<totfact> 0.13471386E+04</totfact>
</mgrwt>
</event>
<event>
 5    1  0.2989269E-047  0.1250065E+03  0.7818608E-02  0.1235059E+00
          3   -1    0    0  501    0  0.00000000000E+00  0.00000000000E+00  0.36264567091E+03  0.36264568283E+03  0.93000000000E-01 0. -1.
         -3   -1    0    0    0  501 -0.00000000000E+00 -0.00000000000E+00 -0.10772440052E+02  0.10772841485E+02  0.93000000000E-01 0.  1.
         25    2    1    2    0    0  0.00000000000E+00  0.00000000000E+00  0.35187323086E+03  0.37341852432E+03  0.12500649467E+03 0.  0.
        -13    1    3    3    0    0  0.25900674305E+02 -0.46575992151E+02  0.27348924565E+03  0.27863335521E+03  0.10570000000E+00 0. -1.
         13    1    3    3    0    0 -0.25900674305E+02  0.46575992151E+02  0.78383985203E+02  0.94785169109E+02  0.10570000000E+00 0.  1.
<mgrwt>
<rscale>  0 0.12500649E+03</rscale>
<asrwt>0</asrwt>
<pdfrwt beam="1">  1        3 0.55791677E-01 0.12500649E+03</pdfrwt>
<pdfrwt beam="2">  1       -3 0.16573301E-02 0.12500649E+03</pdfrwt>
<totfact> 0.90664427E+03</totfact>
</mgrwt>
</event>
<event>
 5    1  0.2989269E-047  0.1250194E+03  0.7818608E-02  0.1235039E+00
          3   -1    0    0  501    0  0.00000000000E+00  0.00000000000E+00  0.31742209428E+02  0.31742345666E+02  0.93000000000E-01 0. -1.
         -3   -1    0    0    0  501 -0.00000000000E+00 -0.00000000000E+00 -0.12309942594E+03  0.12309946107E+03  0.93000000000E-01 0.  1.
         25    2    1    2    0    0  0.00000000000E+00  0.00000000000E+00 -0.91357216509E+02  0.15484180673E+03  0.12501937492E+03 0.  0.
        -13    1    3    3    0    0 -0.53849061435E+01 -0.41995936442E+02 -0.10263532386E+03  0.11102556808E+03  0.10570000000E+00 0.  1.
         13    1    3    3    0    0  0.53849061435E+01  0.41995936442E+02  0.11278107349E+02  0.43816238653E+02  0.10570000000E+00 0. -1.
<mgrwt>
<rscale>  0 0.12501937E+03</rscale>
<asrwt>0</asrwt>
<pdfrwt beam="1">  1        3 0.48834301E-02 0.12501937E+03</pdfrwt>
<pdfrwt beam="2">  1       -3 0.18938386E-01 0.12501937E+03</pdfrwt>
<totfact> 0.12972358E+04</totfact>
</mgrwt>
</event>
<event>
 5    1  0.4168917E-047  0.1250004E+03  0.7818608E-02  0.1235069E+00
         -3   -1    0    0    0  501 -0.00000000000E+00  0.00000000000E+00  0.12843489871E+03  0.12843493238E+03  0.93000000000E-01 0.  1.
          3   -1    0    0  501    0  0.00000000000E+00 -0.00000000000E+00 -0.30414315910E+02  0.30414458096E+02  0.93000000000E-01 0. -1.
         25    2    1    2    0    0  0.00000000000E+00  0.00000000000E+00  0.98020582797E+02  0.15884939047E+03  0.12500037681E+03 0.  0.
        -13    1    3    3    0    0  0.40906495975E+02  0.11643647957E+02  0.10720845967E+03  0.11533681523E+03  0.10570000000E+00 0.  1.
         13    1    3    3    0    0 -0.40906495975E+02 -0.11643647957E+02 -0.91878768683E+01  0.43512575246E+02  0.10570000000E+00 0. -1.
<mgrwt>
<rscale>  0 0.12500038E+03</rscale>
<asrwt>0</asrwt>
<pdfrwt beam="2">  1        3 0.46791390E-02 0.12500038E+03</pdfrwt>
<pdfrwt beam="1">  1       -3 0.19759229E-01 0.12500038E+03</pdfrwt>
<totfact> 0.12881609E+04</totfact>
</mgrwt>
</event>
<event>
 5    1  0.2989269E-047  0.1249978E+03  0.7818608E-02  0.1235073E+00
          3   -1    0    0  501    0  0.00000000000E+00  0.00000000000E+00  0.22443658432E+02  0.22443851114E+02  0.93000000000E-01 0. -1.
         -3   -1    0    0    0  501 -0.00000000000E+00 -0.00000000000E+00 -0.17403991718E+03  0.17403994202E+03  0.93000000000E-01 0.  1.
         25    2    1    2    0    0  0.00000000000E+00  0.00000000000E+00 -0.15159625874E+03  0.19648379314E+03  0.12499782118E+03 0.  0.
        -13    1    3    3    0    0 -0.14923820978E+02 -0.35672982203E+02 -0.15297847766E+03  0.15779007539E+03  0.10570000000E+00 0.  1.
         13    1    3    3    0    0  0.14923820978E+02  0.35672982203E+02  0.13822189120E+01  0.38693717752E+02  0.10570000000E+00 0. -1.
<mgrwt>
<rscale>  0 0.12499782E+03</rscale>
<asrwt>0</asrwt>
<pdfrwt beam="1">  1        3 0.34528874E-02 0.12499782E+03</pdfrwt>
<pdfrwt beam="2">  1       -3 0.26775388E-01 0.12499782E+03</pdfrwt>
<totfact> 0.12036242E+04</totfact>
</mgrwt>
</event>
<event>
 5    1  0.2989269E-047  0.1250002E+03  0.7818608E-02  0.1235069E+00
         -3   -1    0    0    0  501 -0.00000000000E+00  0.00000000000E+00  0.13523121557E+03  0.13523124755E+03  0.93000000000E-01 0.  1.
          3   -1    0    0  501    0  0.00000000000E+00 -0.00000000000E+00 -0.28885679438E+02  0.28885829149E+02  0.93000000000E-01 0. -1.
         25    2    1    2    0    0  0.00000000000E+00  0.00000000000E+00  0.10634553613E+03  0.16411707669E+03  0.12500016723E+03 0.  0.
        -13    1    3    3    0    0  0.54110446473E+02  0.18991186475E+02  0.85802400824E+02  0.10320207721E+03  0.10570000000E+00 0.  1.
         13    1    3    3    0    0 -0.54110446473E+02 -0.18991186475E+02  0.20543135305E+02  0.60914999482E+02  0.10570000000E+00 0. -1.
<mgrwt>
<rscale>  0 0.12500017E+03</rscale>
<asrwt>0</asrwt>
<pdfrwt beam="2">  1        3 0.44439646E-02 0.12500017E+03</pdfrwt>
<pdfrwt beam="1">  1       -3 0.20804817E-01 0.12500017E+03</pdfrwt>
<totfact> 0.12757058E+04</totfact>
</mgrwt>
</event>
<event>
 5    1  0.2989269E-047  0.1249983E+03  0.7818608E-02  0.1235072E+00
         -3   -1    0    0    0  501 -0.00000000000E+00  0.00000000000E+00  0.77616415527E+02  0.77616471243E+02  0.93000000000E-01 0.  1.
          3   -1    0    0  501    0  0.00000000000E+00 -0.00000000000E+00 -0.50326173263E+02  0.50326259192E+02  0.93000000000E-01 0. -1.
         25    2    1    2    0    0  0.00000000000E+00  0.00000000000E+00  0.27290242264E+02  0.12794273044E+03  0.12499833978E+03 0.  0.
        -13    1    3    3    0    0  0.17702677915E+02  0.47482101610E+02 -0.23797990196E+02  0.55984732638E+02  0.10570000000E+00 0. -1.
         13    1    3    3    0    0 -0.17702677915E+02 -0.47482101610E+02  0.51088232460E+02  0.71957997798E+02  0.10570000000E+00 0.  1.
<mgrwt>
<rscale>  0 0.12499834E+03</rscale>
<asrwt>0</asrwt>
<pdfrwt beam="2">  1        3 0.77424991E-02 0.12499834E+03</pdfrwt>
<pdfrwt beam="1">  1       -3 0.11940998E-01 0.12499834E+03</pdfrwt>
<totfact> 0.13658523E+04</totfact>
</mgrwt>
</event>
<event>
 5    1  0.2989269E-047  0.1250052E+03  0.7818608E-02  0.1235061E+00
          3   -1    0    0  501    0  0.00000000000E+00  0.00000000000E+00  0.37481129680E+02  0.37481245057E+02  0.93000000000E-01 0. -1.
         -3   -1    0    0    0  501 -0.00000000000E+00 -0.00000000000E+00 -0.10422755094E+03  0.10422759243E+03  0.93000000000E-01 0.  1.
         25    2    1    2    0    0  0.00000000000E+00  0.00000000000E+00 -0.66746421256E+02  0.14170883748E+03  0.12500523937E+03 0.  0.
        -13    1    3    3    0    0  0.27561634249E+02  0.55957106284E+02 -0.28877873807E+02  0.68737065651E+02  0.10570000000E+00 0.  1.
         13    1    3    3    0    0 -0.27561634249E+02 -0.55957106284E+02 -0.37868547448E+02  0.72971771833E+02  0.10570000000E+00 0. -1.
<mgrwt>
<rscale>  0 0.12500524E+03</rscale>
<asrwt>0</asrwt>
<pdfrwt beam="1">  1        3 0.57663397E-02 0.12500524E+03</pdfrwt>
<pdfrwt beam="2">  1       -3 0.16035020E-01 0.12500524E+03</pdfrwt>
<totfact> 0.13300561E+04</totfact>
</mgrwt>
</event>
<event>
 5    1  0.2989269E-047  0.1249999E+03  0.7818608E-02  0.1235069E+00
          3   -1    0    0  501    0  0.00000000000E+00  0.00000000000E+00  0.24711210537E+02  0.24711385537E+02  0.93000000000E-01 0. -1.
         -3   -1    0    0    0  501 -0.00000000000E+00 -0.00000000000E+00 -0.15807503963E+03  0.15807506699E+03  0.93000000000E-01 0.  1.
         25    2    1    2    0    0  0.00000000000E+00  0.00000000000E+00 -0.13336382909E+03  0.18278645253E+03  0.12499990526E+03 0.  0.
        -13    1    3    3    0    0  0.18927368768E+02  0.55077144653E+02 -0.33513461388E+02  0.67193008701E+02  0.10570000000E+00 0. -1.
         13    1    3    3    0    0 -0.18927368768E+02 -0.55077144653E+02 -0.99850367706E+02  0.11559344382E+03  0.10570000000E+00 0.  1.
<mgrwt>
<rscale>  0 0.12499991E+03</rscale>
<asrwt>0</asrwt>
<pdfrwt beam="1">  1        3 0.38017404E-02 0.12499991E+03</pdfrwt>
<pdfrwt beam="2">  1       -3 0.24319252E-01 0.12499991E+03</pdfrwt>
<totfact> 0.12331992E+04</totfact>
</mgrwt>
</event>
<event>
 5    1  0.2989269E-047  0.1249999E+03  0.7818608E-02  0.1235069E+00
          3   -1    0    0  501    0  0.00000000000E+00  0.00000000000E+00  0.10963864055E+03  0.10963868000E+03  0.93000000000E-01 0. -1.
         -3   -1    0    0    0  501 -0.00000000000E+00 -0.00000000000E+00 -0.35628226314E+02  0.35628347693E+02  0.93000000000E-01 0.  1.
         25    2    1    2    0    0  0.00000000000E+00  0.00000000000E+00  0.74010414239E+02  0.14526702769E+03  0.12499987167E+03 0.  0.
        -13    1    3    3    0    0  0.16726912189E+02  0.48594444537E+02  0.78339106800E+02  0.93692243317E+02  0.10570000000E+00 0. -1.
         13    1    3    3    0    0 -0.16726912189E+02 -0.48594444537E+02 -0.43286925607E+01  0.51574784372E+02  0.10570000000E+00 0.  1.
<mgrwt>
<rscale>  0 0.12499987E+03</rscale>
<asrwt>0</asrwt>
<pdfrwt beam="1">  1        3 0.16867496E-01 0.12499987E+03</pdfrwt>
<pdfrwt beam="2">  1       -3 0.54812779E-02 0.12499987E+03</pdfrwt>
<totfact> 0.13212691E+04</totfact>
</mgrwt>
</event>
<event>
 5    1  0.2989269E-047  0.1249986E+03  0.7818608E-02  0.1235072E+00
         -3   -1    0    0    0  501 -0.00000000000E+00  0.00000000000E+00  0.90736971853E+02  0.90737019512E+02  0.93000000000E-01 0.  1.
          3   -1    0    0  501    0  0.00000000000E+00 -0.00000000000E+00 -0.43049167276E+02  0.43049267731E+02  0.93000000000E-01 0. -1.
         25    2    1    2    0    0  0.00000000000E+00  0.00000000000E+00  0.47687804576E+02  0.13378628724E+03  0.12499857579E+03 0.  0.
        -13    1    3    3    0    0  0.55885372582E+02 -0.18503588914E+02  0.13779459158E+01  0.58885206791E+02  0.10570000000E+00 0.  1.
         13    1    3    3    0    0 -0.55885372582E+02  0.18503588914E+02  0.46309858660E+02  0.74901080453E+02  0.10570000000E+00 0. -1.
<mgrwt>
<rscale>  0 0.12499858E+03</rscale>
<asrwt>0</asrwt>
<pdfrwt beam="2">  1        3 0.66229603E-02 0.12499858E+03</pdfrwt>
<pdfrwt beam="1">  1       -3 0.13959545E-01 0.12499858E+03</pdfrwt>
<totfact> 0.13505435E+04</totfact>
</mgrwt>
</event>
<event>
 5    1  0.2989269E-047  0.1250037E+03  0.7818608E-02  0.1235063E+00
          3   -1    0    0  501    0  0.00000000000E+00  0.00000000000E+00  0.63725602089E+03  0.63725602767E+03  0.93000000000E-01 0. -1.
         -3   -1    0    0    0  501 -0.00000000000E+00 -0.00000000000E+00 -0.61298031134E+01  0.61305085604E+01  0.93000000000E-01 0.  1.
         25    2    1    2    0    0  0.00000000000E+00  0.00000000000E+00  0.63112621777E+03  0.64338653623E+03  0.12500372893E+03 0.  0.
        -13    1    3    3    0    0  0.61564193911E+02 -0.68237942357E+01  0.35855090987E+03  0.36386189727E+03  0.10570000000E+00 0.  1.
         13    1    3    3    0    0 -0.61564193911E+02  0.68237942357E+01  0.27257530790E+03  0.27952463896E+03  0.10570000000E+00 0. -1.
<mgrwt>
<rscale>  0 0.12500373E+03</rscale>
<asrwt>0</asrwt>
<pdfrwt beam="1">  1        3 0.98039446E-01 0.12500373E+03</pdfrwt>
<pdfrwt beam="2">  1       -3 0.94310139E-03 0.12500373E+03</pdfrwt>
<totfact> 0.63370376E+03</totfact>
</mgrwt>
</event>
<event>
 5    1  0.2989269E-047  0.1249995E+03  0.7818608E-02  0.1235070E+00
          3   -1    0    0  501    0  0.00000000000E+00  0.00000000000E+00  0.91703942654E+01  0.91708658251E+01  0.93000000000E-01 0. -1.
         -3   -1    0    0    0  501 -0.00000000000E+00 -0.00000000000E+00 -0.42594803546E+03  0.42594804561E+03  0.93000000000E-01 0.  1.
         25    2    1    2    0    0  0.00000000000E+00  0.00000000000E+00 -0.41677764119E+03  0.43511891144E+03  0.12499945956E+03 0.  0.
        -13    1    3    3    0    0 -0.54576477620E+02 -0.91498815623E+01 -0.10726732904E+03  0.12070046932E+03  0.10570000000E+00 0.  1.
         13    1    3    3    0    0  0.54576477620E+02  0.91498815623E+01 -0.30951031215E+03  0.31441844211E+03  0.10570000000E+00 0. -1.
<mgrwt>
<rscale>  0 0.12499946E+03</rscale>
<asrwt>0</asrwt>
<pdfrwt beam="1">  1        3 0.14108673E-02 0.12499946E+03</pdfrwt>
<pdfrwt beam="2">  1       -3 0.65530489E-01 0.12499946E+03</pdfrwt>
<totfact> 0.82940215E+03</totfact>
</mgrwt>
</event>
<event>
 5    1  0.2989269E-047  0.1249916E+03  0.7818608E-02  0.1235082E+00
         -3   -1    0    0    0  501 -0.00000000000E+00  0.00000000000E+00  0.21437355293E+03  0.21437357311E+03  0.93000000000E-01 0.  1.
          3   -1    0    0  501    0  0.00000000000E+00 -0.00000000000E+00 -0.18219104407E+02  0.18219341766E+02  0.93000000000E-01 0. -1.
         25    2    1    2    0    0  0.00000000000E+00  0.00000000000E+00  0.19615444853E+03  0.23259291487E+03  0.12499158520E+03 0.  0.
        -13    1    3    3    0    0  0.25421208245E+02 -0.55778217270E+02  0.12073596974E+03  0.13540543901E+03  0.10570000000E+00 0.  1.
         13    1    3    3    0    0 -0.25421208245E+02  0.55778217270E+02  0.75418478785E+02  0.97187475866E+02  0.10570000000E+00 0. -1.
<mgrwt>
<rscale>  0 0.12499159E+03</rscale>
<asrwt>0</asrwt>
<pdfrwt beam="2">  1        3 0.28029592E-02 0.12499159E+03</pdfrwt>
<pdfrwt beam="1">  1       -3 0.32980564E-01 0.12499159E+03</pdfrwt>
<totfact> 0.11311169E+04</totfact>
</mgrwt>
</event>
<event>
 5    1  0.2989269E-047  0.1250002E+03  0.7818608E-02  0.1235069E+00
         -3   -1    0    0    0  501 -0.00000000000E+00  0.00000000000E+00  0.15184769142E+02  0.15185053931E+02  0.93000000000E-01 0.  1.
          3   -1    0    0  501    0  0.00000000000E+00 -0.00000000000E+00 -0.25724601771E+03  0.25724603452E+03  0.93000000000E-01 0. -1.
         25    2    1    2    0    0  0.00000000000E+00  0.00000000000E+00 -0.24206124857E+03  0.27243108845E+03  0.12500019959E+03 0.  0.
        -13    1    3    3    0    0  0.54971862502E+02  0.20883434880E+02 -0.16717251062E+03  0.17721366482E+03  0.10570000000E+00 0.  1.
         13    1    3    3    0    0 -0.54971862502E+02 -0.20883434880E+02 -0.74888737947E+02  0.95217423632E+02  0.10570000000E+00 0. -1.
<mgrwt>
<rscale>  0 0.12500020E+03</rscale>
<asrwt>0</asrwt>
<pdfrwt beam="2">  1        3 0.39576331E-01 0.12500020E+03</pdfrwt>
<pdfrwt beam="1">  1       -3 0.23361417E-02 0.12500020E+03</pdfrwt>
<totfact> 0.10591425E+04</totfact>
</mgrwt>
</event>
<event>
 5    1  0.2989269E-047  0.1250017E+03  0.7818608E-02  0.1235067E+00
         -3   -1    0    0    0  501 -0.00000000000E+00  0.00000000000E+00  0.91357063299E+02  0.91357110635E+02  0.93000000000E-01 0.  1.
          3   -1    0    0  501    0  0.00000000000E+00 -0.00000000000E+00 -0.42759081603E+02  0.42759182739E+02  0.93000000000E-01 0. -1.
         25    2    1    2    0    0  0.00000000000E+00  0.00000000000E+00  0.48597981696E+02  0.13411629337E+03  0.12500166528E+03 0.  0.
        -13    1    3    3    0    0  0.61425454160E+02  0.11127842575E+01  0.11971274066E+02  0.62591111852E+02  0.10570000000E+00 0.  1.
         13    1    3    3    0    0 -0.61425454160E+02 -0.11127842575E+01  0.36626707630E+02  0.71525181523E+02  0.10570000000E+00 0. -1.
<mgrwt>
<rscale>  0 0.12500167E+03</rscale>
<asrwt>0</asrwt>
<pdfrwt beam="2">  1        3 0.65783317E-02 0.12500167E+03</pdfrwt>
<pdfrwt beam="1">  1       -3 0.14054944E-01 0.12500167E+03</pdfrwt>
<totfact> 0.13495936E+04</totfact>
</mgrwt>
</event>
<event>
 5    1  0.2989269E-047  0.1249898E+03  0.7818608E-02  0.1235085E+00
          3   -1    0    0  501    0  0.00000000000E+00  0.00000000000E+00  0.26710764234E+02  0.26710926135E+02  0.93000000000E-01 0. -1.
         -3   -1    0    0    0  501 -0.00000000000E+00 -0.00000000000E+00 -0.14621814169E+03  0.14621817127E+03  0.93000000000E-01 0.  1.
         25    2    1    2    0    0  0.00000000000E+00  0.00000000000E+00 -0.11950737746E+03  0.17292909740E+03  0.12498983743E+03 0.  0.
        -13    1    3    3    0    0  0.46222274820E+02  0.13245807204E+02 -0.11498563343E+03  0.12463409311E+03  0.10570000000E+00 0.  1.
         13    1    3    3    0    0 -0.46222274820E+02 -0.13245807204E+02 -0.45217440280E+01  0.48295004291E+02  0.10570000000E+00 0. -1.
<mgrwt>
<rscale>  0 0.12498984E+03</rscale>
<asrwt>0</asrwt>
<pdfrwt beam="1">  1        3 0.41093632E-02 0.12498984E+03</pdfrwt>
<pdfrwt beam="2">  1       -3 0.22495113E-01 0.12498984E+03</pdfrwt>
<totfact> 0.12556187E+04</totfact>
</mgrwt>
</event>
<event>
 5    1  0.2989269E-047  0.1250006E+03  0.7818608E-02  0.1235068E+00
         -3   -1    0    0    0  501 -0.00000000000E+00  0.00000000000E+00  0.67902326096E+02  0.67902389783E+02  0.93000000000E-01 0.  1.
          3   -1    0    0  501    0  0.00000000000E+00 -0.00000000000E+00 -0.57527919936E+02  0.57527995108E+02  0.93000000000E-01 0. -1.
         25    2    1    2    0    0  0.00000000000E+00  0.00000000000E+00  0.10374406160E+02  0.12543038489E+03  0.12500061260E+03 0.  0.
        -13    1    3    3    0    0  0.16004048621E+02  0.42517511129E+02  0.48258069883E+02  0.66277604107E+02  0.10570000000E+00 0.  1.
         13    1    3    3    0    0 -0.16004048621E+02 -0.42517511129E+02 -0.37883663723E+02  0.59152780784E+02  0.10570000000E+00 0. -1.
<mgrwt>
<rscale>  0 0.12500061E+03</rscale>
<asrwt>0</asrwt>
<pdfrwt beam="2">  1        3 0.88504599E-02 0.12500061E+03</pdfrwt>
<pdfrwt beam="1">  1       -3 0.10446522E-01 0.12500061E+03</pdfrwt>
<totfact> 0.13724813E+04</totfact>
</mgrwt>
</event>
<event>
 5    1  0.2989269E-047  0.1250002E+03  0.7818608E-02  0.1235069E+00
         -3   -1    0    0    0  501 -0.00000000000E+00  0.00000000000E+00  0.15731089434E+03  0.15731092183E+03  0.93000000000E-01 0.  1.
          3   -1    0    0  501    0  0.00000000000E+00 -0.00000000000E+00 -0.24831363392E+02  0.24831537546E+02  0.93000000000E-01 0. -1.
         25    2    1    2    0    0  0.00000000000E+00  0.00000000000E+00  0.13247953095E+03  0.18214245938E+03  0.12500019755E+03 0.  0.
        -13    1    3    3    0    0  0.13524218936E+02 -0.47544806999E+02  0.10508537254E+02  0.50535667584E+02  0.10570000000E+00 0. -1.
         13    1    3    3    0    0 -0.13524218936E+02  0.47544806999E+02  0.12197099369E+03  0.13160679179E+03  0.10570000000E+00 0.  1.
<mgrwt>
<rscale>  0 0.12500020E+03</rscale>
<asrwt>0</asrwt>
<pdfrwt beam="2">  1        3 0.38202252E-02 0.12500020E+03</pdfrwt>
<pdfrwt beam="1">  1       -3 0.24201692E-01 0.12500020E+03</pdfrwt>
<totfact> 0.12346159E+04</totfact>
</mgrwt>
</event>
<event>
 5    1  0.2989269E-047  0.1249966E+03  0.7818608E-02  0.1235075E+00
          3   -1    0    0  501    0  0.00000000000E+00  0.00000000000E+00  0.68141078311E+02  0.68141141775E+02  0.93000000000E-01 0. -1.
         -3   -1    0    0    0  501 -0.00000000000E+00 -0.00000000000E+00 -0.57322651007E+02  0.57322726448E+02  0.93000000000E-01 0.  1.
         25    2    1    2    0    0  0.00000000000E+00  0.00000000000E+00  0.10818427304E+02  0.12546386822E+03  0.12499657539E+03 0.  0.
        -13    1    3    3    0    0 -0.43096565437E+02 -0.42956392790E+02 -0.89080222489E+01  0.61497395611E+02  0.10570000000E+00 0. -1.
         13    1    3    3    0    0  0.43096565437E+02  0.42956392790E+02  0.19726449553E+02  0.63966472613E+02  0.10570000000E+00 0.  1.
<mgrwt>
<rscale>  0 0.12499658E+03</rscale>
<asrwt>0</asrwt>
<pdfrwt beam="1">  1        3 0.10483253E-01 0.12499658E+03</pdfrwt>
<pdfrwt beam="2">  1       -3 0.88188802E-02 0.12499658E+03</pdfrwt>
<totfact> 0.13725096E+04</totfact>
</mgrwt>
</event>
<event>
 5    1  0.2989269E-047  0.1250011E+03  0.7818608E-02  0.1235068E+00
         -3   -1    0    0    0  501 -0.00000000000E+00  0.00000000000E+00  0.50800958084E+02  0.50801043210E+02  0.93000000000E-01 0.  1.
          3   -1    0    0  501    0  0.00000000000E+00 -0.00000000000E+00 -0.76894457726E+02  0.76894513965E+02  0.93000000000E-01 0. -1.
         25    2    1    2    0    0  0.00000000000E+00  0.00000000000E+00 -0.26093499642E+02  0.12769555718E+03  0.12500113839E+03 0.  0.
        -13    1    3    3    0    0  0.54224504669E+02  0.28319646748E+02  0.35965225036E-01  0.61174437182E+02  0.10570000000E+00 0.  1.
         13    1    3    3    0    0 -0.54224504669E+02 -0.28319646748E+02 -0.26129464867E+02  0.66521119994E+02  0.10570000000E+00 0. -1.
<mgrwt>
<rscale>  0 0.12500114E+03</rscale>
<asrwt>0</asrwt>
<pdfrwt beam="2">  1        3 0.11829927E-01 0.12500114E+03</pdfrwt>
<pdfrwt beam="1">  1       -3 0.78155429E-02 0.12500114E+03</pdfrwt>
<totfact> 0.13664063E+04</totfact>
</mgrwt>
</event>
<event>
 5    1  0.2989269E-047  0.1250019E+03  0.7818608E-02  0.1235066E+00
         -3   -1    0    0    0  501 -0.00000000000E+00  0.00000000000E+00  0.17333992815E+03  0.17333995310E+03  0.93000000000E-01 0.  1.
          3   -1    0    0  501    0  0.00000000000E+00 -0.00000000000E+00 -0.22535747578E+02  0.22535939473E+02  0.93000000000E-01 0. -1.
         25    2    1    2    0    0  0.00000000000E+00  0.00000000000E+00  0.15080418057E+03  0.19587589257E+03  0.12500185764E+03 0.  0.
        -13    1    3    3    0    0 -0.54903691448E+02 -0.28645071030E+02  0.62161354736E+02  0.87743949217E+02  0.10570000000E+00 0. -1.
         13    1    3    3    0    0  0.54903691448E+02  0.28645071030E+02  0.88642825836E+02  0.10813194335E+03  0.10570000000E+00 0.  1.
<mgrwt>
<rscale>  0 0.12500186E+03</rscale>
<asrwt>0</asrwt>
<pdfrwt beam="2">  1        3 0.34670548E-02 0.12500186E+03</pdfrwt>
<pdfrwt beam="1">  1       -3 0.26667698E-01 0.12500186E+03</pdfrwt>
<totfact> 0.12048037E+04</totfact>
</mgrwt>
</event>
<event>
 5    1  0.2989269E-047  0.1250016E+03  0.7818608E-02  0.1235067E+00
          3   -1    0    0  501    0  0.00000000000E+00  0.00000000000E+00  0.37218229010E+03  0.37218230172E+03  0.93000000000E-01 0. -1.
         -3   -1    0    0    0  501 -0.00000000000E+00 -0.00000000000E+00 -0.10495574126E+02  0.10495986149E+02  0.93000000000E-01 0.  1.
         25    2    1    2    0    0  0.00000000000E+00  0.00000000000E+00  0.36168671598E+03  0.38267828787E+03  0.12500156597E+03 0.  0.
        -13    1    3    3    0    0 -0.55913588261E+02  0.78027257813E+01  0.26293907636E+03  0.26893155436E+03  0.10570000000E+00 0. -1.
         13    1    3    3    0    0  0.55913588261E+02 -0.78027257813E+01  0.98747639620E+02  0.11374673351E+03  0.10570000000E+00 0.  1.
<mgrwt>
<rscale>  0 0.12500157E+03</rscale>
<asrwt>0</asrwt>
<pdfrwt beam="1">  1        3 0.57258844E-01 0.12500157E+03</pdfrwt>
<pdfrwt beam="2">  1       -3 0.16147364E-02 0.12500157E+03</pdfrwt>
<totfact> 0.89454675E+03</totfact>
</mgrwt>
</event>
<event>
 5    1  0.2989269E-047  0.1250329E+03  0.7818608E-02  0.1235018E+00
         -3   -1    0    0    0  501 -0.00000000000E+00  0.00000000000E+00  0.14130137175E+03  0.14130140235E+03  0.93000000000E-01 0.  1.
          3   -1    0    0  501    0  0.00000000000E+00 -0.00000000000E+00 -0.27659250977E+02  0.27659407325E+02  0.93000000000E-01 0. -1.
         25    2    1    2    0    0  0.00000000000E+00  0.00000000000E+00  0.11364212077E+03  0.16896080968E+03  0.12503289005E+03 0.  0.
        -13    1    3    3    0    0 -0.46722014420E+02 -0.39048722896E+02  0.75957802046E+02  0.97351673100E+02  0.10570000000E+00 0.  1.
         13    1    3    3    0    0  0.46722014420E+02  0.39048722896E+02  0.37684318726E+02  0.71609136579E+02  0.10570000000E+00 0. -1.
<mgrwt>
<rscale>  0 0.12503289E+03</rscale>
<asrwt>0</asrwt>
<pdfrwt beam="2">  1        3 0.42552838E-02 0.12503289E+03</pdfrwt>
<pdfrwt beam="1">  1       -3 0.21738687E-01 0.12503289E+03</pdfrwt>
<totfact> 0.12635088E+04</totfact>
</mgrwt>
</event>
<event>
 5    1  0.2989269E-047  0.1250011E+03  0.7818608E-02  0.1235068E+00
         -3   -1    0    0    0  501 -0.00000000000E+00  0.00000000000E+00  0.68126517873E+03  0.68126518507E+03  0.93000000000E-01 0. -1.
          3   -1    0    0  501    0  0.00000000000E+00 -0.00000000000E+00 -0.57335360519E+01  0.57342902489E+01  0.93000000000E-01 0.  1.
         25    2    1    2    0    0  0.00000000000E+00  0.00000000000E+00  0.67553164267E+03  0.68699947532E+03  0.12500111535E+03 0.  0.
        -13    1    3    3    0    0 -0.55337207283E+02 -0.29039758143E+02  0.34266454000E+03  0.34831668379E+03  0.10570000000E+00 0. -1.
         13    1    3    3    0    0  0.55337207283E+02  0.29039758143E+02  0.33286710268E+03  0.33868279153E+03  0.10570000000E+00 0.  1.
<mgrwt>
<rscale>  0 0.12500112E+03</rscale>
<asrwt>0</asrwt>
<pdfrwt beam="2">  1        3 0.88214090E-03 0.12500112E+03</pdfrwt>
<pdfrwt beam="1">  1       -3 0.10481009E+00 0.12500112E+03</pdfrwt>
<totfact> 0.60008657E+03</totfact>
</mgrwt>
</event>
<event>
 5    1  0.2989269E-047  0.1250008E+03  0.7818608E-02  0.1235068E+00
          3   -1    0    0  501    0  0.00000000000E+00  0.00000000000E+00  0.12282851842E+03  0.12282855363E+03  0.93000000000E-01 0. -1.
         -3   -1    0    0    0  501 -0.00000000000E+00 -0.00000000000E+00 -0.31802744759E+02  0.31802880738E+02  0.93000000000E-01 0.  1.
         25    2    1    2    0    0  0.00000000000E+00  0.00000000000E+00  0.91025773663E+02  0.15463143437E+03  0.12500075609E+03 0.  0.
        -13    1    3    3    0    0  0.39040308522E+02  0.48584804938E+02  0.51269744966E+02  0.80704565433E+02  0.10570000000E+00 0. -1.
         13    1    3    3    0    0 -0.39040308522E+02 -0.48584804938E+02  0.39756028697E+02  0.73926868935E+02  0.10570000000E+00 0.  1.
<mgrwt>
<rscale>  0 0.12500076E+03</rscale>
<asrwt>0</asrwt>
<pdfrwt beam="1">  1        3 0.18896708E-01 0.12500076E+03</pdfrwt>
<pdfrwt beam="2">  1       -3 0.48927431E-02 0.12500076E+03</pdfrwt>
<totfact> 0.12982806E+04</totfact>
</mgrwt>
</event>
<event>
 5    1  0.2989269E-047  0.1250009E+03  0.7818608E-02  0.1235068E+00
          3   -1    0    0  501    0  0.00000000000E+00  0.00000000000E+00  0.15869021562E+02  0.15869294072E+02  0.93000000000E-01 0. -1.
         -3   -1    0    0    0  501 -0.00000000000E+00 -0.00000000000E+00 -0.24615689682E+03  0.24615691439E+03  0.93000000000E-01 0.  1.
         25    2    1    2    0    0  0.00000000000E+00  0.00000000000E+00 -0.23028787526E+03  0.26202620846E+03  0.12500091371E+03 0.  0.
        -13    1    3    3    0    0 -0.15039965302E+02 -0.47481140371E+02 -0.35996660868E+02  0.61452664819E+02  0.10570000000E+00 0. -1.
         13    1    3    3    0    0  0.15039965302E+02  0.47481140371E+02 -0.19429121439E+03  0.20057354364E+03  0.10570000000E+00 0.  1.
<mgrwt>
<rscale>  0 0.12500091E+03</rscale>
<asrwt>0</asrwt>
<pdfrwt beam="1">  1        3 0.24414104E-02 0.12500091E+03</pdfrwt>
<pdfrwt beam="2">  1       -3 0.37870311E-01 0.12500091E+03</pdfrwt>
<totfact> 0.10769246E+04</totfact>
</mgrwt>
</event>
<event>
 5    1  0.2989269E-047  0.1250162E+03  0.7818608E-02  0.1235044E+00
          3   -1    0    0  501    0  0.00000000000E+00  0.00000000000E+00  0.94264348147E+02  0.94264394024E+02  0.93000000000E-01 0. -1.
         -3   -1    0    0    0  501 -0.00000000000E+00 -0.00000000000E+00 -0.41449964025E+02  0.41450068355E+02  0.93000000000E-01 0.  1.
         25    2    1    2    0    0  0.00000000000E+00  0.00000000000E+00  0.52814384123E+02  0.13571446238E+03  0.12501622346E+03 0.  0.
        -13    1    3    3    0    0  0.25816109042E+02  0.27720888795E+02 -0.27570374219E+02  0.46851423337E+02  0.10570000000E+00 0.  1.
         13    1    3    3    0    0 -0.25816109042E+02 -0.27720888795E+02  0.80384758342E+02  0.88863039042E+02  0.10570000000E+00 0. -1.
<mgrwt>
<rscale>  0 0.12501622E+03</rscale>
<asrwt>0</asrwt>
<pdfrwt beam="1">  1        3 0.14502219E-01 0.12501622E+03</pdfrwt>
<pdfrwt beam="2">  1       -3 0.63769292E-02 0.12501622E+03</pdfrwt>
<totfact> 0.13450035E+04</totfact>
</mgrwt>
</event>
<event>
 5    1  0.2989269E-047  0.1250002E+03  0.7818608E-02  0.1235069E+00
          3   -1    0    0  501    0  0.00000000000E+00  0.00000000000E+00  0.24414043549E+02  0.24414220680E+02  0.93000000000E-01 0. -1.
         -3   -1    0    0    0  501 -0.00000000000E+00 -0.00000000000E+00 -0.15999978799E+03  0.15999981502E+03  0.93000000000E-01 0.  1.
         25    2    1    2    0    0  0.00000000000E+00  0.00000000000E+00 -0.13558574444E+03  0.18441403570E+03  0.12500016987E+03 0.  0.
        -13    1    3    3    0    0 -0.16421998742E+02  0.56511171184E+02 -0.98846486700E+02  0.11503840062E+03  0.10570000000E+00 0.  1.
         13    1    3    3    0    0  0.16421998742E+02 -0.56511171184E+02 -0.36739257745E+02  0.69375635085E+02  0.10570000000E+00 0. -1.
<mgrwt>
<rscale>  0 0.12500017E+03</rscale>
<asrwt>0</asrwt>
<pdfrwt beam="1">  1        3 0.37560225E-02 0.12500017E+03</pdfrwt>
<pdfrwt beam="2">  1       -3 0.24615367E-01 0.12500017E+03</pdfrwt>
<totfact> 0.12296040E+04</totfact>
</mgrwt>
</event>
<event>
 5    1  0.2989269E-047  0.1249888E+03  0.7818608E-02  0.1235087E+00
         -3   -1    0    0    0  501 -0.00000000000E+00  0.00000000000E+00  0.41913699034E+02  0.41913802210E+02  0.93000000000E-01 0.  1.
          3   -1    0    0  501    0  0.00000000000E+00 -0.00000000000E+00 -0.93180505047E+02  0.93180551457E+02  0.93000000000E-01 0. -1.
         25    2    1    2    0    0  0.00000000000E+00  0.00000000000E+00 -0.51266806013E+02  0.13509435367E+03  0.12498879547E+03 0.  0.
        -13    1    3    3    0    0  0.45352520544E+02  0.41614171179E+02 -0.37322014156E+02  0.71982874878E+02  0.10570000000E+00 0.  1.
         13    1    3    3    0    0 -0.45352520544E+02 -0.41614171179E+02 -0.13944791857E+02  0.63111478789E+02  0.10570000000E+00 0. -1.
<mgrwt>
<rscale>  0 0.12498880E+03</rscale>
<asrwt>0</asrwt>
<pdfrwt beam="2">  1        3 0.14335474E-01 0.12498880E+03</pdfrwt>
<pdfrwt beam="1">  1       -3 0.64482729E-02 0.12498880E+03</pdfrwt>
<totfact> 0.13474352E+04</totfact>
</mgrwt>
</event>
<event>
 5    1  0.2989269E-047  0.1249965E+03  0.7818608E-02  0.1235075E+00
         -3   -1    0    0    0  501 -0.00000000000E+00  0.00000000000E+00  0.67967029758E+02  0.67967093384E+02  0.93000000000E-01 0.  1.
          3   -1    0    0  501    0  0.00000000000E+00 -0.00000000000E+00 -0.57469406606E+02  0.57469481855E+02  0.93000000000E-01 0. -1.
         25    2    1    2    0    0  0.00000000000E+00  0.00000000000E+00  0.10497623151E+02  0.12543657524E+03  0.12499653722E+03 0.  0.
        -13    1    3    3    0    0 -0.45813206765E+02 -0.42164141309E+02 -0.18853570747E+00  0.62263243127E+02  0.10570000000E+00 0.  1.
         13    1    3    3    0    0  0.45813206765E+02  0.42164141309E+02  0.10686158859E+02  0.63173332112E+02  0.10570000000E+00 0. -1.
<mgrwt>
<rscale>  0 0.12499654E+03</rscale>
<asrwt>0</asrwt>
<pdfrwt beam="2">  1        3 0.88414579E-02 0.12499654E+03</pdfrwt>
<pdfrwt beam="1">  1       -3 0.10456477E-01 0.12499654E+03</pdfrwt>
<totfact> 0.13725906E+04</totfact>
</mgrwt>
</event>
<event>
 5    1  0.3202405E-047  0.1250042E+03  0.7818608E-02  0.1235063E+00
         -3   -1    0    0    0  501 -0.00000000000E+00  0.00000000000E+00  0.36905885825E+02  0.36906003001E+02  0.93000000000E-01 0.  1.
          3   -1    0    0  501    0  0.00000000000E+00 -0.00000000000E+00 -0.10585036864E+03  0.10585040950E+03  0.93000000000E-01 0. -1.
         25    2    1    2    0    0  0.00000000000E+00  0.00000000000E+00 -0.68944482817E+02  0.14275641250E+03  0.12500420632E+03 0.  0.
        -13    1    3    3    0    0  0.27427949042E+02 -0.52600948546E+02 -0.11996060107E+02  0.60523291444E+02  0.10570000000E+00 0.  1.
         13    1    3    3    0    0 -0.27427949042E+02  0.52600948546E+02 -0.56948422710E+02  0.82233121054E+02  0.10570000000E+00 0. -1.
<mgrwt>
<rscale>  0 0.12500421E+03</rscale>
<asrwt>0</asrwt>
<pdfrwt beam="2">  1        3 0.16284684E-01 0.12500421E+03</pdfrwt>
<pdfrwt beam="1">  1       -3 0.56778408E-02 0.12500421E+03</pdfrwt>
<totfact> 0.13274276E+04</totfact>
</mgrwt>
</event>
<event>
 5    1  0.2989269E-047  0.1250002E+03  0.7818608E-02  0.1235069E+00
          3   -1    0    0  501    0  0.00000000000E+00  0.00000000000E+00  0.52199831782E+03  0.52199832611E+03  0.93000000000E-01 0. -1.
         -3   -1    0    0    0  501 -0.00000000000E+00 -0.00000000000E+00 -0.74829838360E+01  0.74835617248E+01  0.93000000000E-01 0.  1.
         25    2    1    2    0    0  0.00000000000E+00  0.00000000000E+00  0.51451533399E+03  0.52948188783E+03  0.12500016254E+03 0.  0.
        -13    1    3    3    0    0 -0.35593854864E+02  0.47448594082E+02  0.17382568668E+03  0.18366728643E+03  0.10570000000E+00 0.  1.
         13    1    3    3    0    0  0.35593854864E+02 -0.47448594082E+02  0.34068964731E+03  0.34581460140E+03  0.10570000000E+00 0. -1.
<mgrwt>
<rscale>  0 0.12500016E+03</rscale>
<asrwt>0</asrwt>
<pdfrwt beam="1">  1        3 0.80307479E-01 0.12500016E+03</pdfrwt>
<pdfrwt beam="2">  1       -3 0.11512734E-02 0.12500016E+03</pdfrwt>
<totfact> 0.73093238E+03</totfact>
</mgrwt>
</event>
<event>
 5    1  0.2989269E-047  0.1249990E+03  0.7818608E-02  0.1235071E+00
         -3   -1    0    0    0  501 -0.00000000000E+00  0.00000000000E+00  0.12032661358E+03  0.12032664951E+03  0.93000000000E-01 0.  1.
          3   -1    0    0  501    0  0.00000000000E+00 -0.00000000000E+00 -0.32463102459E+02  0.32463235671E+02  0.93000000000E-01 0. -1.
         25    2    1    2    0    0  0.00000000000E+00  0.00000000000E+00  0.87863511116E+02  0.15278988519E+03  0.12499900971E+03 0.  0.
        -13    1    3    3    0    0  0.52977961844E+02  0.40616437502E+00  0.84459789252E+02  0.99701036021E+02  0.10570000000E+00 0.  1.
         13    1    3    3    0    0 -0.52977961844E+02 -0.40616437502E+00  0.34037218647E+01  0.53088849165E+02  0.10570000000E+00 0. -1.
<mgrwt>
<rscale>  0 0.12499901E+03</rscale>
<asrwt>0</asrwt>
<pdfrwt beam="2">  1        3 0.49943364E-02 0.12499901E+03</pdfrwt>
<pdfrwt beam="1">  1       -3 0.18511800E-01 0.12499901E+03</pdfrwt>
<totfact> 0.13028030E+04</totfact>
</mgrwt>
</event>
<event>
 5    1  0.2989269E-047  0.1249993E+03  0.7818608E-02  0.1235070E+00
          3   -1    0    0  501    0  0.00000000000E+00  0.00000000000E+00  0.35467876118E+02  0.35467998045E+02  0.93000000000E-01 0. -1.
         -3   -1    0    0    0  501 -0.00000000000E+00 -0.00000000000E+00 -0.11013336918E+03  0.11013340844E+03  0.93000000000E-01 0.  1.
         25    2    1    2    0    0  0.00000000000E+00  0.00000000000E+00 -0.74665493060E+02  0.14560140649E+03  0.12499933487E+03 0.  0.
        -13    1    3    3    0    0  0.42141185256E+01  0.47094956218E+02 -0.84940925620E+02  0.97214534479E+02  0.10570000000E+00 0.  1.
         13    1    3    3    0    0 -0.42141185256E+01 -0.47094956218E+02  0.10275432561E+02  0.48386872010E+02  0.10570000000E+00 0. -1.
<mgrwt>
<rscale>  0 0.12499933E+03</rscale>
<asrwt>0</asrwt>
<pdfrwt beam="1">  1        3 0.54566088E-02 0.12499933E+03</pdfrwt>
<pdfrwt beam="2">  1       -3 0.16943607E-01 0.12499933E+03</pdfrwt>
<totfact> 0.13204682E+04</totfact>
</mgrwt>
</event>
<event>
 5    1  0.2989269E-047  0.1249989E+03  0.7818608E-02  0.1235071E+00
         -3   -1    0    0    0  501 -0.00000000000E+00  0.00000000000E+00  0.44298836209E+02  0.44298933830E+02  0.93000000000E-01 0.  1.
          3   -1    0    0  501    0  0.00000000000E+00 -0.00000000000E+00 -0.88177762510E+02  0.88177811553E+02  0.93000000000E-01 0. -1.
         25    2    1    2    0    0  0.00000000000E+00  0.00000000000E+00 -0.43878926301E+02  0.13247674538E+03  0.12499891157E+03 0.  0.
        -13    1    3    3    0    0 -0.55200620770E+02 -0.14523326973E+02  0.50420459632E+01  0.57301561582E+02  0.10570000000E+00 0.  1.
         13    1    3    3    0    0  0.55200620770E+02  0.14523326973E+02 -0.48920972264E+02  0.75175183801E+02  0.10570000000E+00 0. -1.
<mgrwt>
<rscale>  0 0.12499891E+03</rscale>
<asrwt>0</asrwt>
<pdfrwt beam="2">  1        3 0.13565821E-01 0.12499891E+03</pdfrwt>
<pdfrwt beam="1">  1       -3 0.68152169E-02 0.12499891E+03</pdfrwt>
<totfact> 0.13539221E+04</totfact>
</mgrwt>
</event>
<event>
 5    1  0.2989269E-047  0.1250008E+03  0.7818608E-02  0.1235068E+00
          3   -1    0    0  501    0  0.00000000000E+00  0.00000000000E+00  0.33582387960E+03  0.33582389248E+03  0.93000000000E-01 0. -1.
         -3   -1    0    0    0  501 -0.00000000000E+00 -0.00000000000E+00 -0.11631792863E+02  0.11632164639E+02  0.93000000000E-01 0.  1.
         25    2    1    2    0    0  0.00000000000E+00  0.00000000000E+00  0.32419208674E+03  0.34745605712E+03  0.12500081009E+03 0.  0.
        -13    1    3    3    0    0  0.18878819185E+02 -0.45732105873E+02  0.55942756034E+02  0.74682249876E+02  0.10570000000E+00 0.  1.
         13    1    3    3    0    0 -0.18878819185E+02  0.45732105873E+02  0.26824933070E+03  0.27277380724E+03  0.10570000000E+00 0. -1.
<mgrwt>
<rscale>  0 0.12500081E+03</rscale>
<asrwt>0</asrwt>
<pdfrwt beam="1">  1        3 0.51665244E-01 0.12500081E+03</pdfrwt>
<pdfrwt beam="2">  1       -3 0.17895361E-02 0.12500081E+03</pdfrwt>
<totfact> 0.94240318E+03</totfact>
</mgrwt>
</event>
<event>
 5    1  0.2989269E-047  0.1250013E+03  0.7818608E-02  0.1235067E+00
          3   -1    0    0  501    0  0.00000000000E+00  0.00000000000E+00  0.32746134405E+02  0.32746266466E+02  0.93000000000E-01 0.  1.
         -3   -1    0    0    0  501 -0.00000000000E+00 -0.00000000000E+00 -0.11929094277E+03  0.11929097902E+03  0.93000000000E-01 0. -1.
         25    2    1    2    0    0  0.00000000000E+00  0.00000000000E+00 -0.86544808363E+02  0.15203724549E+03  0.12500128063E+03 0.  0.
        -13    1    3    3    0    0  0.49284242360E+02  0.33991042447E+02 -0.65097574266E+02  0.88442257205E+02  0.10570000000E+00 0. -1.
         13    1    3    3    0    0 -0.49284242360E+02 -0.33991042447E+02 -0.21447234097E+02  0.63594988281E+02  0.10570000000E+00 0.  1.
<mgrwt>
<rscale>  0 0.12500128E+03</rscale>
<asrwt>0</asrwt>
<pdfrwt beam="1">  1        3 0.50378798E-02 0.12500128E+03</pdfrwt>
<pdfrwt beam="2">  1       -3 0.18352465E-01 0.12500128E+03</pdfrwt>
<totfact> 0.13045660E+04</totfact>
</mgrwt>
</event>
<event>
 5    1  0.2989269E-047  0.1250011E+03  0.7818608E-02  0.1235068E+00
          3   -1    0    0  501    0  0.00000000000E+00  0.00000000000E+00  0.19963287718E+02  0.19963504340E+02  0.93000000000E-01 0. -1.
         -3   -1    0    0    0  501 -0.00000000000E+00 -0.00000000000E+00 -0.19567395315E+03  0.19567397525E+03  0.93000000000E-01 0.  1.
         25    2    1    2    0    0  0.00000000000E+00  0.00000000000E+00 -0.17571066543E+03  0.21563747959E+03  0.12500113862E+03 0.  0.
        -13    1    3    3    0    0 -0.56088794580E+02  0.15285913222E+02 -0.12744584313E+03  0.14007878542E+03  0.10570000000E+00 0.  1.
         13    1    3    3    0    0  0.56088794580E+02 -0.15285913222E+02 -0.48264822297E+02  0.75558694167E+02  0.10570000000E+00 0. -1.
<mgrwt>
<rscale>  0 0.12500114E+03</rscale>
<asrwt>0</asrwt>
<pdfrwt beam="1">  1        3 0.30712935E-02 0.12500114E+03</pdfrwt>
<pdfrwt beam="2">  1       -3 0.30103702E-01 0.12500114E+03</pdfrwt>
<totfact> 0.11640458E+04</totfact>
</mgrwt>
</event>
<event>
 5    1  0.2989269E-047  0.1249993E+03  0.7818608E-02  0.1235070E+00
         -3   -1    0    0    0  501 -0.00000000000E+00  0.00000000000E+00  0.41642449565E+02  0.41642553413E+02  0.93000000000E-01 0.  1.
          3   -1    0    0  501    0  0.00000000000E+00 -0.00000000000E+00 -0.93803171523E+02  0.93803217625E+02  0.93000000000E-01 0. -1.
         25    2    1    2    0    0  0.00000000000E+00  0.00000000000E+00 -0.52160721958E+02  0.13544577104E+03  0.12499926391E+03 0.  0.
        -13    1    3    3    0    0 -0.81862098807E+01 -0.57596154993E+02 -0.13269122513E+01  0.58190230888E+02  0.10570000000E+00 0.  1.
         13    1    3    3    0    0  0.81862098807E+01  0.57596154993E+02 -0.50833809707E+02  0.77255540151E+02  0.10570000000E+00 0. -1.
<mgrwt>
<rscale>  0 0.12499926E+03</rscale>
<asrwt>0</asrwt>
<pdfrwt beam="2">  1        3 0.14431269E-01 0.12499926E+03</pdfrwt>
<pdfrwt beam="1">  1       -3 0.64065422E-02 0.12499926E+03</pdfrwt>
<totfact> 0.13462104E+04</totfact>
</mgrwt>
</event>
<event>
 5    1  0.2989269E-047  0.1250016E+03  0.7818608E-02  0.1235067E+00
         -3   -1    0    0    0  501 -0.00000000000E+00  0.00000000000E+00  0.13605453736E+03  0.13605456915E+03  0.93000000000E-01 0.  1.
          3   -1    0    0  501    0  0.00000000000E+00 -0.00000000000E+00 -0.28711538400E+02  0.28711689019E+02  0.93000000000E-01 0. -1.
         25    2    1    2    0    0  0.00000000000E+00  0.00000000000E+00  0.10734299896E+03  0.16476625817E+03  0.12500160161E+03 0.  0.
        -13    1    3    3    0    0 -0.94586561011E+01  0.58926415762E+02  0.29204596252E+02  0.66443271025E+02  0.10570000000E+00 0.  1.
         13    1    3    3    0    0  0.94586561011E+01 -0.58926415762E+02  0.78138402713E+02  0.98322987143E+02  0.10570000000E+00 0. -1.
<mgrwt>
<rscale>  0 0.12500160E+03</rscale>
<asrwt>0</asrwt>
<pdfrwt beam="2">  1        3 0.44171737E-02 0.12500160E+03</pdfrwt>
<pdfrwt beam="1">  1       -3 0.20931482E-01 0.12500160E+03</pdfrwt>
<totfact> 0.12741442E+04</totfact>
</mgrwt>
</event>
<event>
 5    1  0.2989269E-047  0.1250000E+03  0.7818608E-02  0.1235069E+00
         -3   -1    0    0    0  501 -0.00000000000E+00  0.00000000000E+00  0.22024661200E+03  0.22024663163E+03  0.93000000000E-01 0.  1.
          3   -1    0    0  501    0  0.00000000000E+00 -0.00000000000E+00 -0.17735649508E+02  0.17735893337E+02  0.93000000000E-01 0. -1.
         25    2    1    2    0    0  0.00000000000E+00  0.00000000000E+00  0.20251096249E+03  0.23798252497E+03  0.12499996905E+03 0.  0.
        -13    1    3    3    0    0 -0.56968467184E+02 -0.21284829891E+02  0.73811697416E+02  0.95638005441E+02  0.10570000000E+00 0. -1.
         13    1    3    3    0    0  0.56968467184E+02  0.21284829891E+02  0.12869926507E+03  0.14234451953E+03  0.10570000000E+00 0.  1.
<mgrwt>
<rscale>  0 0.12499997E+03</rscale>
<asrwt>0</asrwt>
<pdfrwt beam="2">  1        3 0.27285816E-02 0.12499997E+03</pdfrwt>
<pdfrwt beam="1">  1       -3 0.33884116E-01 0.12499997E+03</pdfrwt>
<totfact> 0.11206891E+04</totfact>
</mgrwt>
</event>
<event>
 5    1  0.2989269E-047  0.1249897E+03  0.7818608E-02  0.1235085E+00
          3   -1    0    0  501    0  0.00000000000E+00  0.00000000000E+00  0.92625205145E+02  0.92625251833E+02  0.93000000000E-01 0. -1.
         -3   -1    0    0    0  501 -0.00000000000E+00 -0.00000000000E+00 -0.42165604073E+02  0.42165706632E+02  0.93000000000E-01 0.  1.
         25    2    1    2    0    0  0.00000000000E+00  0.00000000000E+00  0.50459601072E+02  0.13479095847E+03  0.12498972415E+03 0.  0.
        -13    1    3    3    0    0  0.41918782798E+02 -0.41750195605E+02  0.35181588378E+01  0.59267628588E+02  0.10570000000E+00 0.  1.
         13    1    3    3    0    0 -0.41918782798E+02  0.41750195605E+02  0.46941442234E+02  0.75523329878E+02  0.10570000000E+00 0. -1.
<mgrwt>
<rscale>  0 0.12498972E+03</rscale>
<asrwt>0</asrwt>
<pdfrwt beam="1">  1        3 0.14250043E-01 0.12498972E+03</pdfrwt>
<pdfrwt beam="2">  1       -3 0.64870276E-02 0.12498972E+03</pdfrwt>
<totfact> 0.13481910E+04</totfact>
</mgrwt>
</event>
<event>
 4    1  0.2989269E-047  0.1250573E+03  0.7818608E-02  0.1234980E+00
         -3   -1    0    0    0  501 -0.00000000000E+00  0.00000000000E+00  0.10107090923E+03  0.10107095202E+03  0.93000000000E-01 0.  1.
          3   -1    0    0  501    0  0.00000000000E+00 -0.00000000000E+00 -0.38683966041E+02  0.38684077831E+02  0.93000000000E-01 0. -1.
        -13    1    1    2    0    0 -0.62638860569E+01  0.44419139072E+02 -0.17486717694E+02  0.48146574672E+02  0.10570000000E+00 0. -1.
         13    1    1    2    0    0  0.62638860569E+01 -0.44419139072E+02  0.79873660888E+02  0.91608455180E+02  0.10570000000E+00 0.  1.
<mgrwt>
<rscale>  0 0.12505734E+03</rscale>
<asrwt>0</asrwt>
<pdfrwt beam="2">  1        3 0.59513914E-02 0.12505734E+03</pdfrwt>
<pdfrwt beam="1">  1       -3 0.15549382E-01 0.12505734E+03</pdfrwt>
<totfact> 0.13334452E+04</totfact>
</mgrwt>
</event>
<event>
 5    1  0.2989269E-047  0.1249992E+03  0.7818608E-02  0.1235071E+00
          3   -1    0    0  501    0  0.00000000000E+00  0.00000000000E+00  0.36250800703E+03  0.36250801896E+03  0.93000000000E-01 0. -1.
         -3   -1    0    0    0  501 -0.00000000000E+00 -0.00000000000E+00 -0.10775274501E+02  0.10775675829E+02  0.93000000000E-01 0.  1.
         25    2    1    2    0    0  0.00000000000E+00  0.00000000000E+00  0.35173273253E+03  0.37328369479E+03  0.12499920665E+03 0.  0.
        -13    1    3    3    0    0  0.57406217537E+02 -0.62419951697E+01  0.10446015968E+03  0.11935816875E+03  0.10570000000E+00 0.  1.
         13    1    3    3    0    0 -0.57406217537E+02  0.62419951697E+01  0.24727257285E+03  0.25392552604E+03  0.10570000000E+00 0. -1.
<mgrwt>
<rscale>  0 0.12499921E+03</rscale>
<asrwt>0</asrwt>
<pdfrwt beam="1">  1        3 0.55770492E-01 0.12499921E+03</pdfrwt>
<pdfrwt beam="2">  1       -3 0.16577664E-02 0.12499921E+03</pdfrwt>
<totfact> 0.90697067E+03</totfact>
</mgrwt>
</event>
<event>
 5    1  0.2989269E-047  0.1250006E+03  0.7818608E-02  0.1235068E+00
         -3   -1    0    0    0  501 -0.00000000000E+00  0.00000000000E+00  0.68565514096E+02  0.68565577167E+02  0.93000000000E-01 0.  1.
          3   -1    0    0  501    0  0.00000000000E+00 -0.00000000000E+00 -0.56971520163E+02  0.56971596070E+02  0.93000000000E-01 0. -1.
         25    2    1    2    0    0  0.00000000000E+00  0.00000000000E+00  0.11593993933E+02  0.12553717324E+03  0.12500064467E+03 0.  0.
        -13    1    3    3    0    0 -0.55116883689E+02 -0.24505070109E+02 -0.10641207774E+02  0.61250435133E+02  0.10570000000E+00 0.  1.
         13    1    3    3    0    0  0.55116883689E+02  0.24505070109E+02  0.22235201706E+02  0.64286738104E+02  0.10570000000E+00 0. -1.
<mgrwt>
<rscale>  0 0.12500064E+03</rscale>
<asrwt>0</asrwt>
<pdfrwt beam="2">  1        3 0.87648599E-02 0.12500064E+03</pdfrwt>
<pdfrwt beam="1">  1       -3 0.10548551E-01 0.12500064E+03</pdfrwt>
<totfact> 0.13721913E+04</totfact>
</mgrwt>
</event>
<event>
 5    1  0.3289199E-047  0.1249996E+03  0.7818608E-02  0.1235070E+00
          3   -1    0    0  501    0  0.00000000000E+00  0.00000000000E+00  0.98558303666E+02  0.98558347544E+02  0.93000000000E-01 0. -1.
         -3   -1    0    0    0  501 -0.00000000000E+00 -0.00000000000E+00 -0.39633544285E+02  0.39633653397E+02  0.93000000000E-01 0.  1.
         25    2    1    2    0    0  0.00000000000E+00  0.00000000000E+00  0.58924759381E+02  0.13819200094E+03  0.12499960742E+03 0.  0.
        -13    1    3    3    0    0 -0.57379687803E+02 -0.13594804215E+02  0.65649778000E+01  0.59332599639E+02  0.10570000000E+00 0.  1.
         13    1    3    3    0    0  0.57379687803E+02  0.13594804215E+02  0.52359781581E+02  0.78859401302E+02  0.10570000000E+00 0. -1.
<mgrwt>
<rscale>  0 0.12499961E+03</rscale>
<asrwt>0</asrwt>
<pdfrwt beam="1">  1        3 0.15162828E-01 0.12499961E+03</pdfrwt>
<pdfrwt beam="2">  1       -3 0.60974802E-02 0.12499961E+03</pdfrwt>
<totfact> 0.13391524E+04</totfact>
</mgrwt>
</event>
<event>
 5    1  0.2989269E-047  0.1249996E+03  0.7818608E-02  0.1235070E+00
          3   -1    0    0  501    0  0.00000000000E+00  0.00000000000E+00  0.14055341168E+03  0.14055344245E+03  0.93000000000E-01 0. -1.
         -3   -1    0    0    0  501 -0.00000000000E+00 -0.00000000000E+00 -0.27791649569E+02  0.27791805173E+02  0.93000000000E-01 0.  1.
         25    2    1    2    0    0  0.00000000000E+00  0.00000000000E+00  0.11276176211E+03  0.16834524762E+03  0.12499962961E+03 0.  0.
        -13    1    3    3    0    0 -0.27900577698E+02 -0.35854458628E+02 -0.14239592637E+01  0.45453528706E+02  0.10570000000E+00 0.  1.
         13    1    3    3    0    0  0.27900577698E+02  0.35854458628E+02  0.11418572138E+03  0.12289171892E+03  0.10570000000E+00 0. -1.
<mgrwt>
<rscale>  0 0.12499963E+03</rscale>
<asrwt>0</asrwt>
<pdfrwt beam="1">  1        3 0.21623616E-01 0.12499963E+03</pdfrwt>
<pdfrwt beam="2">  1       -3 0.42756527E-02 0.12499963E+03</pdfrwt>
<totfact> 0.12658867E+04</totfact>
</mgrwt>
</event>
<event>
 5    1  0.2989269E-047  0.1250032E+03  0.7818608E-02  0.1235064E+00
          3   -1    0    0  501    0  0.00000000000E+00  0.00000000000E+00  0.12732121884E+02  0.12732461533E+02  0.93000000000E-01 0. -1.
         -3   -1    0    0    0  501 -0.00000000000E+00 -0.00000000000E+00 -0.30681388748E+03  0.30681390157E+03  0.93000000000E-01 0.  1.
         25    2    1    2    0    0  0.00000000000E+00  0.00000000000E+00 -0.29408176560E+03  0.31954636311E+03  0.12500317324E+03 0.  0.
        -13    1    3    3    0    0 -0.44909488455E+02  0.37640768052E+02 -0.20262202923E+03  0.21092507550E+03  0.10570000000E+00 0.  1.
         13    1    3    3    0    0  0.44909488455E+02 -0.37640768052E+02 -0.91459736361E+02  0.10862128760E+03  0.10570000000E+00 0. -1.
<mgrwt>
<rscale>  0 0.12500317E+03</rscale>
<asrwt>0</asrwt>
<pdfrwt beam="1">  1        3 0.19588154E-02 0.12500317E+03</pdfrwt>
<pdfrwt beam="2">  1       -3 0.47202158E-01 0.12500317E+03</pdfrwt>
<totfact> 0.98284387E+03</totfact>
</mgrwt>
</event>
<event>
 5    1  0.2989269E-047  0.1250008E+03  0.7818608E-02  0.1235068E+00
          3   -1    0    0  501    0  0.00000000000E+00  0.00000000000E+00  0.22420179887E+02  0.22420372771E+02  0.93000000000E-01 0. -1.
         -3   -1    0    0    0  501 -0.00000000000E+00 -0.00000000000E+00 -0.17423044508E+03  0.17423046990E+03  0.93000000000E-01 0.  1.
         25    2    1    2    0    0  0.00000000000E+00  0.00000000000E+00 -0.15181026519E+03  0.19665084267E+03  0.12500078922E+03 0.  0.
        -13    1    3    3    0    0 -0.53630979046E+02  0.29682672149E+02 -0.95104916198E+02  0.11314724564E+03  0.10570000000E+00 0.  1.
         13    1    3    3    0    0  0.53630979046E+02 -0.29682672149E+02 -0.56705348994E+02  0.83503597026E+02  0.10570000000E+00 0. -1.
<mgrwt>
<rscale>  0 0.12500079E+03</rscale>
<asrwt>0</asrwt>
<pdfrwt beam="1">  1        3 0.34492753E-02 0.12500079E+03</pdfrwt>
<pdfrwt beam="2">  1       -3 0.26804700E-01 0.12500079E+03</pdfrwt>
<totfact> 0.12031904E+04</totfact>
</mgrwt>
</event>
<event>
 5    1  0.2989269E-047  0.1250000E+03  0.7818608E-02  0.1235069E+00
         -3   -1    0    0    0  501 -0.00000000000E+00  0.00000000000E+00  0.11346346083E+02  0.11346727213E+02  0.93000000000E-01 0.  1.
          3   -1    0    0  501    0  0.00000000000E+00 -0.00000000000E+00 -0.34426753042E+03  0.34426754298E+03  0.93000000000E-01 0. -1.
         25    2    1    2    0    0  0.00000000000E+00  0.00000000000E+00 -0.33292118434E+03  0.35561427020E+03  0.12499997674E+03 0.  0.
        -13    1    3    3    0    0  0.36885100420E+02  0.42745591387E+02 -0.90200895639E+02  0.10641385700E+03  0.10570000000E+00 0.  1.
         13    1    3    3    0    0 -0.36885100420E+02 -0.42745591387E+02 -0.24272028870E+03  0.24920041319E+03  0.10570000000E+00 0. -1.
<mgrwt>
<rscale>  0 0.12499998E+03</rscale>
<asrwt>0</asrwt>
<pdfrwt beam="2">  1        3 0.52964258E-01 0.12499998E+03</pdfrwt>
<pdfrwt beam="1">  1       -3 0.17456223E-02 0.12499998E+03</pdfrwt>
<totfact> 0.93098267E+03</totfact>
</mgrwt>
</event>
<event>
 5    1  0.2989269E-047  0.1249974E+03  0.7818608E-02  0.1235073E+00
          3   -1    0    0  501    0  0.00000000000E+00  0.00000000000E+00  0.11298347974E+03  0.11298351802E+03  0.93000000000E-01 0. -1.
         -3   -1    0    0    0  501 -0.00000000000E+00 -0.00000000000E+00 -0.34572111568E+02  0.34572236654E+02  0.93000000000E-01 0.  1.
         25    2    1    2    0    0  0.00000000000E+00  0.00000000000E+00  0.78411368173E+02  0.14755575467E+03  0.12499743228E+03 0.  0.
        -13    1    3    3    0    0  0.30394952304E+02  0.30686880086E+02 -0.14118925105E+02  0.45441093227E+02  0.10570000000E+00 0.  1.
         13    1    3    3    0    0 -0.30394952304E+02 -0.30686880086E+02  0.92530293278E+02  0.10211466144E+03  0.10570000000E+00 0. -1.
<mgrwt>
<rscale>  0 0.12499743E+03</rscale>
<asrwt>0</asrwt>
<pdfrwt beam="1">  1        3 0.17382086E-01 0.12499743E+03</pdfrwt>
<pdfrwt beam="2">  1       -3 0.53187990E-02 0.12499743E+03</pdfrwt>
<totfact> 0.13156597E+04</totfact>
</mgrwt>
</event>
<event>
 5    1  0.2989269E-047  0.1250073E+03  0.7818608E-02  0.1235058E+00
          3   -1    0    0  501    0  0.00000000000E+00  0.00000000000E+00  0.12907254432E+02  0.12907589472E+02  0.93000000000E-01 0. -1.
         -3   -1    0    0    0  501 -0.00000000000E+00 -0.00000000000E+00 -0.30267079236E+03  0.30267080665E+03  0.93000000000E-01 0.  1.
         25    2    1    2    0    0  0.00000000000E+00  0.00000000000E+00 -0.28976353793E+03  0.31557839612E+03  0.12500726453E+03 0.  0.
        -13    1    3    3    0    0 -0.35601952720E+02  0.40279031380E+02 -0.64383158016E+02  0.83875512607E+02  0.10570000000E+00 0.  1.
         13    1    3    3    0    0  0.35601952720E+02 -0.40279031380E+02 -0.22538037991E+03  0.23170288351E+03  0.10570000000E+00 0. -1.
<mgrwt>
<rscale>  0 0.12500726E+03</rscale>
<asrwt>0</asrwt>
<pdfrwt beam="1">  1        3 0.19857585E-02 0.12500726E+03</pdfrwt>
<pdfrwt beam="2">  1       -3 0.46564759E-01 0.12500726E+03</pdfrwt>
<totfact> 0.98880972E+03</totfact>
</mgrwt>
</event>
<event>
 5    1  0.2989269E-047  0.1249990E+03  0.7818608E-02  0.1235071E+00
          3   -1    0    0  501    0  0.00000000000E+00  0.00000000000E+00  0.62374667537E+02  0.62374736868E+02  0.93000000000E-01 0. -1.
         -3   -1    0    0    0  501 -0.00000000000E+00 -0.00000000000E+00 -0.62624458814E+02  0.62624527869E+02  0.93000000000E-01 0.  1.
         25    2    1    2    0    0  0.00000000000E+00  0.00000000000E+00 -0.24979127721E+00  0.12499926474E+03  0.12499901515E+03 0.  0.
        -13    1    3    3    0    0  0.10909307256E+02  0.35655501298E+02 -0.50283240547E+02  0.62599865894E+02  0.10570000000E+00 0.  1.
         13    1    3    3    0    0 -0.10909307256E+02 -0.35655501298E+02  0.50033449269E+02  0.62399398843E+02  0.10570000000E+00 0. -1.
<mgrwt>
<rscale>  0 0.12499902E+03</rscale>
<asrwt>0</asrwt>
<pdfrwt beam="1">  1        3 0.95961133E-02 0.12499902E+03</pdfrwt>
<pdfrwt beam="2">  1       -3 0.96345428E-02 0.12499902E+03</pdfrwt>
<totfact> 0.13736747E+04</totfact>
</mgrwt>
</event>
<event>
 5    1  0.2989269E-047  0.1249983E+03  0.7818608E-02  0.1235072E+00
          3   -1    0    0  501    0  0.00000000000E+00  0.00000000000E+00  0.10698774590E+03  0.10698778633E+03  0.93000000000E-01 0. -1.
         -3   -1    0    0    0  501 -0.00000000000E+00 -0.00000000000E+00 -0.36510088698E+02  0.36510207145E+02  0.93000000000E-01 0.  1.
         25    2    1    2    0    0  0.00000000000E+00  0.00000000000E+00  0.70477657206E+02  0.14349799347E+03  0.12499829585E+03 0.  0.
        -13    1    3    3    0    0 -0.22944481069E+02  0.30859227203E+02  0.91799118031E+02  0.99528038054E+02  0.10570000000E+00 0. -1.
         13    1    3    3    0    0  0.22944481069E+02 -0.30859227203E+02 -0.21321460825E+02  0.43969955416E+02  0.10570000000E+00 0.  1.
<mgrwt>
<rscale>  0 0.12499830E+03</rscale>
<asrwt>0</asrwt>
<pdfrwt beam="1">  1        3 0.16459665E-01 0.12499830E+03</pdfrwt>
<pdfrwt beam="2">  1       -3 0.56169489E-02 0.12499830E+03</pdfrwt>
<totfact> 0.13257407E+04</totfact>
</mgrwt>
</event>
<event>
 5    1  0.2989269E-047  0.1250032E+03  0.7818608E-02  0.1235064E+00
          3   -1    0    0  501    0  0.00000000000E+00  0.00000000000E+00  0.39261310880E+02  0.39261421026E+02  0.93000000000E-01 0. -1.
         -3   -1    0    0    0  501 -0.00000000000E+00 -0.00000000000E+00 -0.99498448535E+02  0.99498491998E+02  0.93000000000E-01 0.  1.
         25    2    1    2    0    0  0.00000000000E+00  0.00000000000E+00 -0.60237137655E+02  0.13875991302E+03  0.12500320280E+03 0.  0.
        -13    1    3    3    0    0  0.61669289373E+02 -0.64896701947E+01 -0.38804100345E+02  0.73150437094E+02  0.10570000000E+00 0.  1.
         13    1    3    3    0    0 -0.61669289373E+02  0.64896701947E+01 -0.21433037310E+02  0.65609475930E+02  0.10570000000E+00 0. -1.
<mgrwt>
<rscale>  0 0.12500320E+03</rscale>
<asrwt>0</asrwt>
<pdfrwt beam="1">  1        3 0.60402135E-02 0.12500320E+03</pdfrwt>
<pdfrwt beam="2">  1       -3 0.15307465E-01 0.12500320E+03</pdfrwt>
<totfact> 0.13376104E+04</totfact>
</mgrwt>
</event>
<event>
 5    1  0.2989269E-047  0.1250028E+03  0.7818608E-02  0.1235065E+00
          3   -1    0    0  501    0  0.00000000000E+00  0.00000000000E+00  0.27987544901E+02  0.27987699415E+02  0.93000000000E-01 0. -1.
         -3   -1    0    0    0  501 -0.00000000000E+00 -0.00000000000E+00 -0.13957664856E+03  0.13957667954E+03  0.93000000000E-01 0.  1.
         25    2    1    2    0    0  0.00000000000E+00  0.00000000000E+00 -0.11158910366E+03  0.16756437896E+03  0.12500277213E+03 0.  0.
        -13    1    3    3    0    0  0.26427884399E+02 -0.44406253320E+02 -0.10292292838E+03  0.11516722088E+03  0.10570000000E+00 0.  1.
         13    1    3    3    0    0 -0.26427884399E+02  0.44406253320E+02 -0.86661752814E+01  0.52397158074E+02  0.10570000000E+00 0. -1.
<mgrwt>
<rscale>  0 0.12500277E+03</rscale>
<asrwt>0</asrwt>
<pdfrwt beam="1">  1        3 0.43057905E-02 0.12500277E+03</pdfrwt>
<pdfrwt beam="2">  1       -3 0.21473345E-01 0.12500277E+03</pdfrwt>
<totfact> 0.12675942E+04</totfact>
</mgrwt>
</event>
<event>
 5    1  0.2989269E-047  0.1249996E+03  0.7818608E-02  0.1235070E+00
          3   -1    0    0  501    0  0.00000000000E+00  0.00000000000E+00  0.32248127047E+03  0.32248128388E+03  0.93000000000E-01 0. -1.
         -3   -1    0    0    0  501 -0.00000000000E+00 -0.00000000000E+00 -0.12112829424E+02  0.12113186436E+02  0.93000000000E-01 0.  1.
         25    2    1    2    0    0  0.00000000000E+00  0.00000000000E+00  0.31036844105E+03  0.33459447032E+03  0.12499956147E+03 0.  0.
        -13    1    3    3    0    0 -0.53387946011E+02 -0.21239275220E+02  0.22101478644E+03  0.22836139470E+03  0.10570000000E+00 0.  1.
         13    1    3    3    0    0  0.53387946011E+02  0.21239275220E+02  0.89353654606E+02  0.10623307562E+03  0.10570000000E+00 0. -1.
<mgrwt>
<rscale>  0 0.12499956E+03</rscale>
<asrwt>0</asrwt>
<pdfrwt beam="1">  1        3 0.49612524E-01 0.12499956E+03</pdfrwt>
<pdfrwt beam="2">  1       -3 0.18635410E-02 0.12499956E+03</pdfrwt>
<totfact> 0.96092483E+03</totfact>
</mgrwt>
</event>
<event>
 5    1  0.2989269E-047  0.1250012E+03  0.7818608E-02  0.1235067E+00
          3   -1    0    0  501    0  0.00000000000E+00  0.00000000000E+00  0.13733428196E+02  0.13733743081E+02  0.93000000000E-01 0. -1.
         -3   -1    0    0    0  501 -0.00000000000E+00 -0.00000000000E+00 -0.28443572285E+03  0.28443573805E+03  0.93000000000E-01 0.  1.
         25    2    1    2    0    0  0.00000000000E+00  0.00000000000E+00 -0.27070229465E+03  0.29816948113E+03  0.12500122859E+03 0.  0.
        -13    1    3    3    0    0  0.39779007511E+02  0.43201272904E+02 -0.84325313471E+02  0.10275937468E+03  0.10570000000E+00 0.  1.
         13    1    3    3    0    0 -0.39779007511E+02 -0.43201272904E+02 -0.18637698118E+03  0.19541010646E+03  0.10570000000E+00 0. -1.
<mgrwt>
<rscale>  0 0.12500123E+03</rscale>
<asrwt>0</asrwt>
<pdfrwt beam="1">  1        3 0.21128607E-02 0.12500123E+03</pdfrwt>
<pdfrwt beam="2">  1       -3 0.43759363E-01 0.12500123E+03</pdfrwt>
<totfact> 0.10162254E+04</totfact>
</mgrwt>
</event>
<event>
 5    1  0.2989269E-047  0.1250060E+03  0.7818608E-02  0.1235060E+00
         -3   -1    0    0    0  501 -0.00000000000E+00  0.00000000000E+00  0.26698434614E+02  0.26698596589E+02  0.93000000000E-01 0.  1.
          3   -1    0    0  501    0  0.00000000000E+00 -0.00000000000E+00 -0.14632344731E+03  0.14632347687E+03  0.93000000000E-01 0. -1.
         25    2    1    2    0    0  0.00000000000E+00  0.00000000000E+00 -0.11962501270E+03  0.17302207346E+03  0.12500597682E+03 0.  0.
        -13    1    3    3    0    0  0.56734060889E+02  0.61425518212E+01 -0.95104004586E+02  0.11091107911E+03  0.10570000000E+00 0. -1.
         13    1    3    3    0    0 -0.56734060889E+02 -0.61425518212E+01 -0.24521008113E+02  0.62110994351E+02  0.10570000000E+00 0.  1.
<mgrwt>
<rscale>  0 0.12500598E+03</rscale>
<asrwt>0</asrwt>
<pdfrwt beam="2">  1        3 0.22511314E-01 0.12500598E+03</pdfrwt>
<pdfrwt beam="1">  1       -3 0.41074663E-02 0.12500598E+03</pdfrwt>
<totfact> 0.12549702E+04</totfact>
</mgrwt>
</event>
<event>
 5    1  0.2989269E-047  0.1249985E+03  0.7818608E-02  0.1235072E+00
         -3   -1    0    0    0  501 -0.00000000000E+00  0.00000000000E+00  0.53764813085E+02  0.53764893519E+02  0.93000000000E-01 0.  1.
          3   -1    0    0  501    0  0.00000000000E+00 -0.00000000000E+00 -0.72652465581E+02  0.72652525104E+02  0.93000000000E-01 0. -1.
         25    2    1    2    0    0  0.00000000000E+00  0.00000000000E+00 -0.18887652496E+02  0.12641741862E+03  0.12499848125E+03 0.  0.
        -13    1    3    3    0    0  0.63814091411E+01  0.46966165083E+02 -0.50644470531E+02  0.69364375677E+02  0.10570000000E+00 0. -1.
         13    1    3    3    0    0 -0.63814091411E+01 -0.46966165083E+02  0.31756818035E+02  0.57053042946E+02  0.10570000000E+00 0.  1.
<mgrwt>
<rscale>  0 0.12499848E+03</rscale>
<asrwt>0</asrwt>
<pdfrwt beam="2">  1        3 0.11177313E-01 0.12499848E+03</pdfrwt>
<pdfrwt beam="1">  1       -3 0.82715205E-02 0.12499848E+03</pdfrwt>
<totfact> 0.13698867E+04</totfact>
</mgrwt>
</event>
<event>
 5    1  0.2989269E-047  0.1249869E+03  0.7818608E-02  0.1235090E+00
         -3   -1    0    0    0  501 -0.00000000000E+00  0.00000000000E+00  0.71030527215E+01  0.71036615181E+01  0.93000000000E-01 0.  1.
          3   -1    0    0  501    0  0.00000000000E+00 -0.00000000000E+00 -0.54980048485E+03  0.54980049272E+03  0.93000000000E-01 0. -1.
         25    2    1    2    0    0  0.00000000000E+00  0.00000000000E+00 -0.54269743213E+03  0.55690415424E+03  0.12498693597E+03 0.  0.
        -13    1    3    3    0    0  0.60223549607E+02  0.11710844155E+02 -0.21836474706E+03  0.22681973840E+03  0.10570000000E+00 0.  1.
         13    1    3    3    0    0 -0.60223549607E+02 -0.11710844155E+02 -0.32433268507E+03  0.33008441583E+03  0.10570000000E+00 0. -1.
<mgrwt>
<rscale>  0 0.12498694E+03</rscale>
<asrwt>0</asrwt>
<pdfrwt beam="2">  1        3 0.84584703E-01 0.12498694E+03</pdfrwt>
<pdfrwt beam="1">  1       -3 0.10928252E-02 0.12498694E+03</pdfrwt>
<totfact> 0.70575003E+03</totfact>
</mgrwt>
</event>
<event>
 5    1  0.2989269E-047  0.1249902E+03  0.7818608E-02  0.1235085E+00
          3   -1    0    0  501    0  0.00000000000E+00  0.00000000000E+00  0.93894348238E+02  0.93894394295E+02  0.93000000000E-01 0. -1.
         -3   -1    0    0    0  501 -0.00000000000E+00 -0.00000000000E+00 -0.41595983828E+02  0.41596087792E+02  0.93000000000E-01 0.  1.
         25    2    1    2    0    0  0.00000000000E+00  0.00000000000E+00  0.52298364411E+02  0.13549048209E+03  0.12499020688E+03 0.  0.
        -13    1    3    3    0    0 -0.27594523541E+02  0.50420340411E+02 -0.44679877279E+00  0.57479381157E+02  0.10570000000E+00 0.  1.
         13    1    3    3    0    0  0.27594523541E+02 -0.50420340411E+02  0.52745163183E+02  0.78011100930E+02  0.10570000000E+00 0. -1.
<mgrwt>
<rscale>  0 0.12499021E+03</rscale>
<asrwt>0</asrwt>
<pdfrwt beam="1">  1        3 0.14445296E-01 0.12499021E+03</pdfrwt>
<pdfrwt beam="2">  1       -3 0.63993937E-02 0.12499021E+03</pdfrwt>
<totfact> 0.13463701E+04</totfact>
</mgrwt>
</event>
<event>
 5    1  0.2989269E-047  0.1250009E+03  0.7818608E-02  0.1235068E+00
          3   -1    0    0  501    0  0.00000000000E+00  0.00000000000E+00  0.14311017051E+02  0.14311319227E+02  0.93000000000E-01 0. -1.
         -3   -1    0    0    0  501 -0.00000000000E+00 -0.00000000000E+00 -0.27295484049E+03  0.27295485633E+03  0.93000000000E-01 0.  1.
         25    2    1    2    0    0  0.00000000000E+00  0.00000000000E+00 -0.25864382344E+03  0.28726617556E+03  0.12500091287E+03 0.  0.
        -13    1    3    3    0    0 -0.20867378952E+02 -0.49217197777E+02 -0.20373662312E+03  0.21063333743E+03  0.10570000000E+00 0.  1.
         13    1    3    3    0    0  0.20867378952E+02  0.49217197777E+02 -0.54907200314E+02  0.76632838132E+02  0.10570000000E+00 0. -1.
<mgrwt>
<rscale>  0 0.12500091E+03</rscale>
<asrwt>0</asrwt>
<pdfrwt beam="1">  1        3 0.22017196E-02 0.12500091E+03</pdfrwt>
<pdfrwt beam="2">  1       -3 0.41993073E-01 0.12500091E+03</pdfrwt>
<totfact> 0.10339452E+04</totfact>
</mgrwt>
</event>
<event>
 5    1  0.2989269E-047  0.1249880E+03  0.7818608E-02  0.1235088E+00
          3   -1    0    0  501    0  0.00000000000E+00  0.00000000000E+00  0.13925701516E+03  0.13925704621E+03  0.93000000000E-01 0. -1.
         -3   -1    0    0    0  501 -0.00000000000E+00 -0.00000000000E+00 -0.28045155028E+02  0.28045309225E+02  0.93000000000E-01 0.  1.
         25    2    1    2    0    0  0.00000000000E+00  0.00000000000E+00  0.11121186013E+03  0.16730235543E+03  0.12498800063E+03 0.  0.
        -13    1    3    3    0    0  0.36692043353E+02  0.50492439716E+02  0.51437824139E+02  0.80880488614E+02  0.10570000000E+00 0.  1.
         13    1    3    3    0    0 -0.36692043353E+02 -0.50492439716E+02  0.59774035989E+02  0.86421866821E+02  0.10570000000E+00 0. -1.
<mgrwt>
<rscale>  0 0.12498800E+03</rscale>
<asrwt>0</asrwt>
<pdfrwt beam="1">  1        3 0.21424170E-01 0.12498800E+03</pdfrwt>
<pdfrwt beam="2">  1       -3 0.43146535E-02 0.12498800E+03</pdfrwt>
<totfact> 0.12686325E+04</totfact>
</mgrwt>
</event>
<event>
 5    1  0.2989269E-047  0.1249671E+03  0.7818608E-02  0.1235121E+00
          3   -1    0    0  501    0  0.00000000000E+00  0.00000000000E+00  0.57603612598E+01  0.57611119451E+01  0.93000000000E-01 0. -1.
         -3   -1    0    0    0  501 -0.00000000000E+00 -0.00000000000E+00 -0.67772424317E+03  0.67772424955E+03  0.93000000000E-01 0.  1.
         25    2    1    2    0    0  0.00000000000E+00  0.00000000000E+00 -0.67196388191E+03  0.68348536150E+03  0.12496711883E+03 0.  0.
        -13    1    3    3    0    0  0.46923838264E+02 -0.41249413059E+02 -0.33101915538E+03  0.33686355261E+03  0.10570000000E+00 0.  1.
         13    1    3    3    0    0 -0.46923838264E+02  0.41249413059E+02 -0.34094472653E+03  0.34662180889E+03  0.10570000000E+00 0. -1.
<mgrwt>
<rscale>  0 0.12496712E+03</rscale>
<asrwt>0</asrwt>
<pdfrwt beam="1">  1        3 0.88626820E-03 0.12496712E+03</pdfrwt>
<pdfrwt beam="2">  1       -3 0.10426526E+00 0.12496712E+03</pdfrwt>
<totfact> 0.60306300E+03</totfact>
</mgrwt>
</event>
<event>
 5    1  0.2989269E-047  0.1250011E+03  0.7818608E-02  0.1235068E+00
          3   -1    0    0  501    0  0.00000000000E+00  0.00000000000E+00  0.32870688485E+02  0.32870820045E+02  0.93000000000E-01 0. -1.
         -3   -1    0    0    0  501 -0.00000000000E+00 -0.00000000000E+00 -0.11883858005E+03  0.11883861644E+03  0.93000000000E-01 0.  1.
         25    2    1    2    0    0  0.00000000000E+00  0.00000000000E+00 -0.85967891570E+02  0.15170943649E+03  0.12500109895E+03 0.  0.
        -13    1    3    3    0    0 -0.24372636265E+02  0.29226739931E+02 -0.10315626515E+03  0.10995205290E+03  0.10570000000E+00 0.  1.
         13    1    3    3    0    0  0.24372636265E+02 -0.29226739931E+02  0.17188373577E+02  0.41757383589E+02  0.10570000000E+00 0. -1.
<mgrwt>
<rscale>  0 0.12500110E+03</rscale>
<asrwt>0</asrwt>
<pdfrwt beam="1">  1        3 0.50570420E-02 0.12500110E+03</pdfrwt>
<pdfrwt beam="2">  1       -3 0.18282871E-01 0.12500110E+03</pdfrwt>
<totfact> 0.13053697E+04</totfact>
</mgrwt>
</event>
<event>
 5    1  0.2989269E-047  0.1250085E+03  0.7818608E-02  0.1235056E+00
          3   -1    0    0  501    0  0.00000000000E+00  0.00000000000E+00  0.15934954093E+03  0.15934956807E+03  0.93000000000E-01 0.  1.
         -3   -1    0    0    0  501 -0.00000000000E+00 -0.00000000000E+00 -0.24516927230E+02  0.24517103617E+02  0.93000000000E-01 0. -1.
         25    2    1    2    0    0  0.00000000000E+00  0.00000000000E+00  0.13483261370E+03  0.18386667169E+03  0.12500847667E+03 0.  0.
        -13    1    3    3    0    0  0.30718256150E+02  0.54239034532E+02  0.74202018089E+02  0.96909415378E+02  0.10570000000E+00 0. -1.
         13    1    3    3    0    0 -0.30718256150E+02 -0.54239034532E+02  0.60630595612E+02  0.86957256308E+02  0.10570000000E+00 0.  1.
<mgrwt>
<rscale>  0 0.12500848E+03</rscale>
<asrwt>0</asrwt>
<pdfrwt beam="1">  1        3 0.24515329E-01 0.12500848E+03</pdfrwt>
<pdfrwt beam="2">  1       -3 0.37718506E-02 0.12500848E+03</pdfrwt>
<totfact> 0.12306176E+04</totfact>
</mgrwt>
</event>
<event>
 5    1  0.2989269E-047  0.1250105E+03  0.7818608E-02  0.1235053E+00
         -3   -1    0    0    0  501 -0.00000000000E+00  0.00000000000E+00  0.26745604212E+03  0.26745605829E+03  0.93000000000E-01 0.  1.
          3   -1    0    0  501    0  0.00000000000E+00 -0.00000000000E+00 -0.14607504097E+02  0.14607800140E+02  0.93000000000E-01 0. -1.
         25    2    1    2    0    0  0.00000000000E+00  0.00000000000E+00  0.25284853802E+03  0.28206385843E+03  0.12501054776E+03 0.  0.
        -13    1    3    3    0    0  0.22235985505E+02  0.56243305575E+02  0.16203910069E+03  0.17295788447E+03  0.10570000000E+00 0.  1.
         13    1    3    3    0    0 -0.22235985505E+02 -0.56243305575E+02  0.90809437328E+02  0.10910597396E+03  0.10570000000E+00 0. -1.
<mgrwt>
<rscale>  0 0.12501055E+03</rscale>
<asrwt>0</asrwt>
<pdfrwt beam="2">  1        3 0.22473323E-02 0.12501055E+03</pdfrwt>
<pdfrwt beam="1">  1       -3 0.41147107E-01 0.12501055E+03</pdfrwt>
<totfact> 0.10423504E+04</totfact>
</mgrwt>
</event>
<event>
 5    1  0.2989269E-047  0.1250000E+03  0.7818608E-02  0.1235069E+00
          3   -1    0    0  501    0  0.00000000000E+00  0.00000000000E+00  0.87579485287E+02  0.87579534665E+02  0.93000000000E-01 0. -1.
         -3   -1    0    0    0  501 -0.00000000000E+00 -0.00000000000E+00 -0.44602217267E+02  0.44602314224E+02  0.93000000000E-01 0.  1.
         25    2    1    2    0    0  0.00000000000E+00  0.00000000000E+00  0.42977268019E+02  0.13218184889E+03  0.12499998244E+03 0.  0.
        -13    1    3    3    0    0  0.52097674523E+02  0.34000635621E+02  0.27835726312E+02  0.68154601790E+02  0.10570000000E+00 0.  1.
         13    1    3    3    0    0 -0.52097674523E+02 -0.34000635621E+02  0.15141541707E+02  0.64027247099E+02  0.10570000000E+00 0. -1.
<mgrwt>
<rscale>  0 0.12499998E+03</rscale>
<asrwt>0</asrwt>
<pdfrwt beam="1">  1        3 0.13473778E-01 0.12499998E+03</pdfrwt>
<pdfrwt beam="2">  1       -3 0.68618909E-02 0.12499998E+03</pdfrwt>
<totfact> 0.13546594E+04</totfact>
</mgrwt>
</event>
<event>
 5    1  0.2989269E-047  0.1249989E+03  0.7818608E-02  0.1235071E+00
         -3   -1    0    0    0  501 -0.00000000000E+00  0.00000000000E+00  0.88555217986E+02  0.88555266820E+02  0.93000000000E-01 0.  1.
          3   -1    0    0  501    0  0.00000000000E+00 -0.00000000000E+00 -0.44110036903E+02  0.44110134942E+02  0.93000000000E-01 0. -1.
         25    2    1    2    0    0  0.00000000000E+00  0.00000000000E+00  0.44445181083E+02  0.13266540176E+03  0.12499893881E+03 0.  0.
        -13    1    3    3    0    0 -0.19155255049E+00 -0.42057499619E+02  0.71289008185E+02  0.82770790905E+02  0.10570000000E+00 0.  1.
         13    1    3    3    0    0  0.19155255049E+00  0.42057499619E+02 -0.26843827102E+02  0.49894610857E+02  0.10570000000E+00 0. -1.
<mgrwt>
<rscale>  0 0.12499894E+03</rscale>
<asrwt>0</asrwt>
<pdfrwt beam="2">  1        3 0.67861708E-02 0.12499894E+03</pdfrwt>
<pdfrwt beam="1">  1       -3 0.13623891E-01 0.12499894E+03</pdfrwt>
<totfact> 0.13534478E+04</totfact>
</mgrwt>
</event>
<event>
 5    1  0.2989269E-047  0.1249983E+03  0.7818608E-02  0.1235072E+00
         -3   -1    0    0    0  501 -0.00000000000E+00  0.00000000000E+00  0.33644400360E+02  0.33644528895E+02  0.93000000000E-01 0. -1.
          3   -1    0    0  501    0  0.00000000000E+00 -0.00000000000E+00 -0.11610041599E+03  0.11610045323E+03  0.93000000000E-01 0.  1.
         25    2    1    2    0    0  0.00000000000E+00  0.00000000000E+00 -0.82456015627E+02  0.14974498213E+03  0.12499826063E+03 0.  0.
        -13    1    3    3    0    0  0.22595352011E+02 -0.57747451404E+02 -0.31885938191E+02  0.69728346481E+02  0.10570000000E+00 0. -1.
         13    1    3    3    0    0 -0.22595352011E+02  0.57747451404E+02 -0.50570077435E+02  0.80016635648E+02  0.10570000000E+00 0.  1.
<mgrwt>
<rscale>  0 0.12499826E+03</rscale>
<asrwt>0</asrwt>
<pdfrwt beam="2">  1        3 0.17861615E-01 0.12499826E+03</pdfrwt>
<pdfrwt beam="1">  1       -3 0.51760744E-02 0.12499826E+03</pdfrwt>
<totfact> 0.13102441E+04</totfact>
</mgrwt>
</event>
<event>
 5    1  0.2989269E-047  0.1250003E+03  0.7818608E-02  0.1235069E+00
         -3   -1    0    0    0  501 -0.00000000000E+00  0.00000000000E+00  0.50336856113E+02  0.50336942024E+02  0.93000000000E-01 0. -1.
          3   -1    0    0  501    0  0.00000000000E+00 -0.00000000000E+00 -0.77602427480E+02  0.77602483207E+02  0.93000000000E-01 0.  1.
         25    2    1    2    0    0  0.00000000000E+00  0.00000000000E+00 -0.27265571367E+02  0.12793942523E+03  0.12500034059E+03 0.  0.
        -13    1    3    3    0    0  0.10983932764E+02  0.51875817562E+02  0.20228515197E+02  0.56753424797E+02  0.10570000000E+00 0. -1.
         13    1    3    3    0    0 -0.10983932764E+02 -0.51875817562E+02 -0.47494086564E+02  0.71186000434E+02  0.10570000000E+00 0.  1.
<mgrwt>
<rscale>  0 0.12500034E+03</rscale>
<asrwt>0</asrwt>
<pdfrwt beam="2">  1        3 0.11938846E-01 0.12500034E+03</pdfrwt>
<pdfrwt beam="1">  1       -3 0.77441426E-02 0.12500034E+03</pdfrwt>
<totfact> 0.13657858E+04</totfact>
</mgrwt>
</event>
<event>
 5    1  0.2989269E-047  0.1250030E+03  0.7818608E-02  0.1235065E+00
          3   -1    0    0  501    0  0.00000000000E+00  0.00000000000E+00  0.58501612551E+02  0.58501686472E+02  0.93000000000E-01 0. -1.
         -3   -1    0    0    0  501 -0.00000000000E+00 -0.00000000000E+00 -0.66774693582E+02  0.66774758344E+02  0.93000000000E-01 0.  1.
         25    2    1    2    0    0  0.00000000000E+00  0.00000000000E+00 -0.82730810309E+01  0.12527644482E+03  0.12500297499E+03 0.  0.
        -13    1    3    3    0    0 -0.26785059501E+02  0.40969541750E+02  0.34813404476E+02  0.60066022570E+02  0.10570000000E+00 0. -1.
         13    1    3    3    0    0  0.26785059501E+02 -0.40969541750E+02 -0.43086485507E+02  0.65210422246E+02  0.10570000000E+00 0.  1.
<mgrwt>
<rscale>  0 0.12500297E+03</rscale>
<asrwt>0</asrwt>
<pdfrwt beam="1">  1        3 0.90002587E-02 0.12500297E+03</pdfrwt>
<pdfrwt beam="2">  1       -3 0.10273040E-01 0.12500297E+03</pdfrwt>
<totfact> 0.13728192E+04</totfact>
</mgrwt>
</event>
<event>
 5    1  0.2989269E-047  0.1250005E+03  0.7818608E-02  0.1235068E+00
          3   -1    0    0  501    0  0.00000000000E+00  0.00000000000E+00  0.76541913093E+02  0.76541969591E+02  0.93000000000E-01 0. -1.
         -3   -1    0    0    0  501 -0.00000000000E+00 -0.00000000000E+00 -0.51034446374E+02  0.51034531111E+02  0.93000000000E-01 0.  1.
         25    2    1    2    0    0  0.00000000000E+00  0.00000000000E+00  0.25507466719E+02  0.12757650070E+03  0.12500053069E+03 0.  0.
        -13    1    3    3    0    0  0.21185073769E+02 -0.18801214769E+00 -0.47257904898E+02  0.51789607520E+02  0.10570000000E+00 0.  1.
         13    1    3    3    0    0 -0.21185073769E+02  0.18801214769E+00  0.72765371617E+02  0.75786893182E+02  0.10570000000E+00 0. -1.
<mgrwt>
<rscale>  0 0.12500053E+03</rscale>
<asrwt>0</asrwt>
<pdfrwt beam="1">  1        3 0.11775690E-01 0.12500053E+03</pdfrwt>
<pdfrwt beam="2">  1       -3 0.78514642E-02 0.12500053E+03</pdfrwt>
<totfact> 0.13667404E+04</totfact>
</mgrwt>
</event>
<event>
 5    1  0.2989269E-047  0.1250000E+03  0.7818608E-02  0.1235069E+00
          3   -1    0    0  501    0  0.00000000000E+00  0.00000000000E+00  0.19372336339E+03  0.19372338572E+03  0.93000000000E-01 0. -1.
         -3   -1    0    0    0  501 -0.00000000000E+00 -0.00000000000E+00 -0.20163917328E+02  0.20164131794E+02  0.93000000000E-01 0.  1.
         25    2    1    2    0    0  0.00000000000E+00  0.00000000000E+00  0.17355944606E+03  0.21388751751E+03  0.12499995531E+03 0.  0.
        -13    1    3    3    0    0 -0.42723352738E+02  0.39186259709E+01  0.16454723868E+03  0.17004836203E+03  0.10570000000E+00 0. -1.
         13    1    3    3    0    0  0.42723352738E+02 -0.39186259709E+01  0.90122073804E+01  0.43839155478E+02  0.10570000000E+00 0.  1.
<mgrwt>
<rscale>  0 0.12499996E+03</rscale>
<asrwt>0</asrwt>
<pdfrwt beam="1">  1        3 0.29803611E-01 0.12499996E+03</pdfrwt>
<pdfrwt beam="2">  1       -3 0.31021595E-02 0.12499996E+03</pdfrwt>
<totfact> 0.11676973E+04</totfact>
</mgrwt>
</event>
<event>
 4    1  0.2989269E-047  0.1247010E+03  0.7818608E-02  0.1235537E+00
          3   -1    0    0  501    0  0.00000000000E+00  0.00000000000E+00  0.24997507757E+02  0.24997680754E+02  0.93000000000E-01 0. -1.
         -3   -1    0    0    0  501 -0.00000000000E+00 -0.00000000000E+00 -0.15551819204E+03  0.15551821984E+03  0.93000000000E-01 0.  1.
        -13    1    1    2    0    0 -0.27998561027E+02 -0.55332976711E+02 -0.74632458106E+02  0.97034389300E+02  0.10570000000E+00 0.  1.
         13    1    1    2    0    0  0.27998561027E+02  0.55332976711E+02 -0.55888226174E+02  0.83481511299E+02  0.10570000000E+00 0. -1.
<mgrwt>
<rscale>  0 0.12470101E+03</rscale>
<asrwt>0</asrwt>
<pdfrwt beam="1">  1        3 0.38457860E-02 0.12470101E+03</pdfrwt>
<pdfrwt beam="2">  1       -3 0.23925890E-01 0.12470101E+03</pdfrwt>
<totfact> 0.12465829E+04</totfact>
</mgrwt>
</event>
<event>
 5    1  0.2989269E-047  0.1249966E+03  0.7818608E-02  0.1235075E+00
          3   -1    0    0  501    0  0.00000000000E+00  0.00000000000E+00  0.16267164672E+02  0.16267430512E+02  0.93000000000E-01 0. -1.
         -3   -1    0    0    0  501 -0.00000000000E+00 -0.00000000000E+00 -0.24011567807E+03  0.24011569608E+03  0.93000000000E-01 0.  1.
         25    2    1    2    0    0  0.00000000000E+00  0.00000000000E+00 -0.22384851339E+03  0.25638312659E+03  0.12499660256E+03 0.  0.
        -13    1    3    3    0    0  0.61569383715E+01 -0.49890162156E+02 -0.18809489336E+03  0.19469626666E+03  0.10570000000E+00 0.  1.
         13    1    3    3    0    0 -0.61569383715E+01  0.49890162156E+02 -0.35753620034E+02  0.61686859930E+02  0.10570000000E+00 0. -1.
<mgrwt>
<rscale>  0 0.12499660E+03</rscale>
<asrwt>0</asrwt>
<pdfrwt beam="1">  1        3 0.25026627E-02 0.12499660E+03</pdfrwt>
<pdfrwt beam="2">  1       -3 0.36940893E-01 0.12499660E+03</pdfrwt>
<totfact> 0.10870363E+04</totfact>
</mgrwt>
</event>
<event>
 5    1  0.2989269E-047  0.1249954E+03  0.7818608E-02  0.1235076E+00
         -3   -1    0    0    0  501 -0.00000000000E+00  0.00000000000E+00  0.23297368416E+02  0.23297554037E+02  0.93000000000E-01 0.  1.
          3   -1    0    0  501    0  0.00000000000E+00 -0.00000000000E+00 -0.16765595576E+03  0.16765598155E+03  0.93000000000E-01 0. -1.
         25    2    1    2    0    0  0.00000000000E+00  0.00000000000E+00 -0.14435858734E+03  0.19095353559E+03  0.12499540397E+03 0.  0.
        -13    1    3    3    0    0 -0.12530045814E+02  0.35859940737E+02  0.36377971052E+01  0.38159954639E+02  0.10570000000E+00 0.  1.
         13    1    3    3    0    0  0.12530045814E+02 -0.35859940737E+02 -0.14799638445E+03  0.15279358095E+03  0.10570000000E+00 0. -1.
<mgrwt>
<rscale>  0 0.12499540E+03</rscale>
<asrwt>0</asrwt>
<pdfrwt beam="2">  1        3 0.25793240E-01 0.12499540E+03</pdfrwt>
<pdfrwt beam="1">  1       -3 0.35842269E-02 0.12499540E+03</pdfrwt>
<totfact> 0.12155550E+04</totfact>
</mgrwt>
</event>
<event>
 5    1  0.2989269E-047  0.1250051E+03  0.7818608E-02  0.1235061E+00
         -3   -1    0    0    0  501 -0.00000000000E+00  0.00000000000E+00  0.18717414095E+03  0.18717416405E+03  0.93000000000E-01 0.  1.
          3   -1    0    0  501    0  0.00000000000E+00 -0.00000000000E+00 -0.20871179746E+02  0.20871386944E+02  0.93000000000E-01 0. -1.
         25    2    1    2    0    0  0.00000000000E+00  0.00000000000E+00  0.16630296120E+03  0.20804555100E+03  0.12500510543E+03 0.  0.
        -13    1    3    3    0    0 -0.13523691736E+02  0.43811373646E+02  0.15384454039E+03  0.16053186749E+03  0.10570000000E+00 0.  1.
         13    1    3    3    0    0  0.13523691736E+02 -0.43811373646E+02  0.12458420812E+02  0.47513683508E+02  0.10570000000E+00 0. -1.
<mgrwt>
<rscale>  0 0.12500511E+03</rscale>
<asrwt>0</asrwt>
<pdfrwt beam="2">  1        3 0.32109685E-02 0.12500511E+03</pdfrwt>
<pdfrwt beam="1">  1       -3 0.28796039E-01 0.12500511E+03</pdfrwt>
<totfact> 0.11793276E+04</totfact>
</mgrwt>
</event>
<event>
 5    1  0.2989269E-047  0.1250010E+03  0.7818608E-02  0.1235068E+00
          3   -1    0    0  501    0  0.00000000000E+00  0.00000000000E+00  0.33427936892E+02  0.33428066260E+02  0.93000000000E-01 0. -1.
         -3   -1    0    0    0  501 -0.00000000000E+00 -0.00000000000E+00 -0.11685742654E+03  0.11685746355E+03  0.93000000000E-01 0.  1.
         25    2    1    2    0    0  0.00000000000E+00  0.00000000000E+00 -0.83429489649E+02  0.15028552981E+03  0.12500104290E+03 0.  0.
        -13    1    3    3    0    0  0.21474461200E+02 -0.10124937914E+02 -0.11122488248E+03  0.11373061376E+03  0.10570000000E+00 0.  1.
         13    1    3    3    0    0 -0.21474461200E+02  0.10124937914E+02  0.27795392834E+02  0.36554916042E+02  0.10570000000E+00 0. -1.
<mgrwt>
<rscale>  0 0.12500104E+03</rscale>
<asrwt>0</asrwt>
<pdfrwt beam="1">  1        3 0.51427724E-02 0.12500104E+03</pdfrwt>
<pdfrwt beam="2">  1       -3 0.17978078E-01 0.12500104E+03</pdfrwt>
<totfact> 0.13088498E+04</totfact>
</mgrwt>
</event>
<event>
 5    1  0.2989269E-047  0.1250044E+03  0.7818608E-02  0.1235062E+00
          3   -1    0    0  501    0  0.00000000000E+00  0.00000000000E+00  0.35436872299E+02  0.35436994332E+02  0.93000000000E-01 0. -1.
         -3   -1    0    0    0  501 -0.00000000000E+00 -0.00000000000E+00 -0.11023857138E+03  0.11023861060E+03  0.93000000000E-01 0.  1.
         25    2    1    2    0    0  0.00000000000E+00  0.00000000000E+00 -0.74801699077E+02  0.14567560494E+03  0.12500435068E+03 0.  0.
        -13    1    3    3    0    0 -0.44796256161E+02  0.43377937588E+02 -0.32434604259E+02  0.70287728383E+02  0.10570000000E+00 0.  1.
         13    1    3    3    0    0  0.44796256161E+02 -0.43377937588E+02 -0.42367094818E+02  0.75387876553E+02  0.10570000000E+00 0. -1.
<mgrwt>
<rscale>  0 0.12500435E+03</rscale>
<asrwt>0</asrwt>
<pdfrwt beam="1">  1        3 0.54518390E-02 0.12500435E+03</pdfrwt>
<pdfrwt beam="2">  1       -3 0.16959792E-01 0.12500435E+03</pdfrwt>
<totfact> 0.13201343E+04</totfact>
</mgrwt>
</event>
<event>
 5    1  0.2989269E-047  0.1249967E+03  0.7818608E-02  0.1235075E+00
         -3   -1    0    0    0  501 -0.00000000000E+00  0.00000000000E+00  0.16706114725E+02  0.16706373581E+02  0.93000000000E-01 0.  1.
          3   -1    0    0  501    0  0.00000000000E+00 -0.00000000000E+00 -0.23380697409E+03  0.23380699258E+03  0.93000000000E-01 0. -1.
         25    2    1    2    0    0  0.00000000000E+00  0.00000000000E+00 -0.21710085936E+03  0.25051336616E+03  0.12499665392E+03 0.  0.
        -13    1    3    3    0    0 -0.20249246963E+02  0.58415770184E+02 -0.12687458411E+03  0.14113683245E+03  0.10570000000E+00 0.  1.
         13    1    3    3    0    0  0.20249246963E+02 -0.58415770184E+02 -0.90226275255E+02  0.10937653372E+03  0.10570000000E+00 0. -1.
<mgrwt>
<rscale>  0 0.12499665E+03</rscale>
<asrwt>0</asrwt>
<pdfrwt beam="2">  1        3 0.35970323E-01 0.12499665E+03</pdfrwt>
<pdfrwt beam="1">  1       -3 0.25701930E-02 0.12499665E+03</pdfrwt>
<totfact> 0.10978088E+04</totfact>
</mgrwt>
</event>
<event>
 5    1  0.2989269E-047  0.1250031E+03  0.7818608E-02  0.1235064E+00
         -3   -1    0    0    0  501 -0.00000000000E+00  0.00000000000E+00  0.11837296689E+03  0.11837300342E+03  0.93000000000E-01 0.  1.
          3   -1    0    0  501    0  0.00000000000E+00 -0.00000000000E+00 -0.33001042136E+02  0.33001173177E+02  0.93000000000E-01 0. -1.
         25    2    1    2    0    0  0.00000000000E+00  0.00000000000E+00  0.85371924755E+02  0.15137417660E+03  0.12500310318E+03 0.  0.
        -13    1    3    3    0    0  0.27762641929E+02 -0.48098172802E+02  0.77409885416E+02  0.95270667293E+02  0.10570000000E+00 0.  1.
         13    1    3    3    0    0 -0.27762641929E+02  0.48098172802E+02  0.79620393385E+01  0.56103509308E+02  0.10570000000E+00 0. -1.
<mgrwt>
<rscale>  0 0.12500310E+03</rscale>
<asrwt>0</asrwt>
<pdfrwt beam="2">  1        3 0.50770963E-02 0.12500310E+03</pdfrwt>
<pdfrwt beam="1">  1       -3 0.18211239E-01 0.12500310E+03</pdfrwt>
<totfact> 0.13061282E+04</totfact>
</mgrwt>
</event>
<event>
 5    1  0.2989269E-047  0.1250015E+03  0.7818608E-02  0.1235067E+00
          3   -1    0    0  501    0  0.00000000000E+00  0.00000000000E+00  0.17883172403E+02  0.17883414221E+02  0.93000000000E-01 0. -1.
         -3   -1    0    0    0  501 -0.00000000000E+00 -0.00000000000E+00 -0.21843515943E+03  0.21843517923E+03  0.93000000000E-01 0.  1.
         25    2    1    2    0    0  0.00000000000E+00  0.00000000000E+00 -0.20055198702E+03  0.23631859345E+03  0.12500151243E+03 0.  0.
        -13    1    3    3    0    0  0.93365170342E+01 -0.47589500259E+02 -0.17481169381E+03  0.18141408587E+03  0.10570000000E+00 0.  1.
         13    1    3    3    0    0 -0.93365170342E+01  0.47589500259E+02 -0.25740293210E+02  0.54904507576E+02  0.10570000000E+00 0. -1.
<mgrwt>
<rscale>  0 0.12500151E+03</rscale>
<asrwt>0</asrwt>
<pdfrwt beam="1">  1        3 0.27512776E-02 0.12500151E+03</pdfrwt>
<pdfrwt beam="2">  1       -3 0.33605427E-01 0.12500151E+03</pdfrwt>
<totfact> 0.11237876E+04</totfact>
</mgrwt>
</event>
<event>
 5    1  0.2989269E-047  0.1249996E+03  0.7818608E-02  0.1235070E+00
         -3   -1    0    0    0  501 -0.00000000000E+00  0.00000000000E+00  0.14250909042E+03  0.14250912077E+03  0.93000000000E-01 0.  1.
          3   -1    0    0  501    0  0.00000000000E+00 -0.00000000000E+00 -0.27410241801E+02  0.27410399570E+02  0.93000000000E-01 0. -1.
         25    2    1    2    0    0  0.00000000000E+00  0.00000000000E+00  0.11509884862E+03  0.16991952034E+03  0.12499959375E+03 0.  0.
        -13    1    3    3    0    0 -0.13042279239E+02 -0.34774475307E+02  0.12588144332E+03  0.13124600613E+03  0.10570000000E+00 0.  1.
         13    1    3    3    0    0  0.13042279239E+02  0.34774475307E+02 -0.10782594694E+02  0.38673514211E+02  0.10570000000E+00 0. -1.
<mgrwt>
<rscale>  0 0.12499959E+03</rscale>
<asrwt>0</asrwt>
<pdfrwt beam="2">  1        3 0.42169747E-02 0.12499959E+03</pdfrwt>
<pdfrwt beam="1">  1       -3 0.21924490E-01 0.12499959E+03</pdfrwt>
<totfact> 0.12622444E+04</totfact>
</mgrwt>
</event>
<event>
 5    1  0.2989269E-047  0.1250007E+03  0.7818608E-02  0.1235068E+00
          3   -1    0    0  501    0  0.00000000000E+00  0.00000000000E+00  0.16419062849E+03  0.16419065483E+03  0.93000000000E-01 0. -1.
         -3   -1    0    0    0  501 -0.00000000000E+00 -0.00000000000E+00 -0.23791106569E+02  0.23791288338E+02  0.93000000000E-01 0.  1.
         25    2    1    2    0    0  0.00000000000E+00  0.00000000000E+00  0.14039952193E+03  0.18798194317E+03  0.12500074080E+03 0.  0.
        -13    1    3    3    0    0 -0.12669270734E+01 -0.43390247341E+02  0.25773701453E+01  0.43485315658E+02  0.10570000000E+00 0.  1.
         13    1    3    3    0    0  0.12669270734E+01  0.43390247341E+02  0.13782215178E+03  0.14449662751E+03  0.10570000000E+00 0. -1.
<mgrwt>
<rscale>  0 0.12500074E+03</rscale>
<asrwt>0</asrwt>
<pdfrwt beam="1">  1        3 0.25260113E-01 0.12500074E+03</pdfrwt>
<pdfrwt beam="2">  1       -3 0.36601862E-02 0.12500074E+03</pdfrwt>
<totfact> 0.12218341E+04</totfact>
</mgrwt>
</event>
<event>
 5    1  0.2989269E-047  0.1249985E+03  0.7818608E-02  0.1235072E+00
          3   -1    0    0  501    0  0.00000000000E+00  0.00000000000E+00  0.87210257004E+02  0.87210306591E+02  0.93000000000E-01 0. -1.
         -3   -1    0    0    0  501 -0.00000000000E+00 -0.00000000000E+00 -0.44789980514E+02  0.44790077064E+02  0.93000000000E-01 0.  1.
         25    2    1    2    0    0  0.00000000000E+00  0.00000000000E+00  0.42420276490E+02  0.13200038366E+03  0.12499848570E+03 0.  0.
        -13    1    3    3    0    0 -0.40472993743E+02  0.12025313893E+02 -0.27452291715E+02  0.50361799905E+02  0.10570000000E+00 0.  1.
         13    1    3    3    0    0  0.40472993743E+02 -0.12025313893E+02  0.69872568205E+02  0.81638583751E+02  0.10570000000E+00 0. -1.
<mgrwt>
<rscale>  0 0.12499849E+03</rscale>
<asrwt>0</asrwt>
<pdfrwt beam="1">  1        3 0.13416974E-01 0.12499849E+03</pdfrwt>
<pdfrwt beam="2">  1       -3 0.68907775E-02 0.12499849E+03</pdfrwt>
<totfact> 0.13551794E+04</totfact>
</mgrwt>
</event>
<event>
 5    1  0.2989269E-047  0.1249997E+03  0.7818608E-02  0.1235070E+00
          3   -1    0    0  501    0  0.00000000000E+00  0.00000000000E+00  0.54519064621E+03  0.54519065414E+03  0.93000000000E-01 0. -1.
         -3   -1    0    0    0  501 -0.00000000000E+00 -0.00000000000E+00 -0.71645853915E+01  0.71651889600E+01  0.93000000000E-01 0.  1.
         25    2    1    2    0    0  0.00000000000E+00  0.00000000000E+00  0.53802606081E+03  0.55235584310E+03  0.12499974116E+03 0.  0.
        -13    1    3    3    0    0  0.57058738700E+02  0.25187101315E+02  0.28676171869E+03  0.29346615515E+03  0.10570000000E+00 0.  1.
         13    1    3    3    0    0 -0.57058738700E+02 -0.25187101315E+02  0.25126434212E+03  0.25888968795E+03  0.10570000000E+00 0. -1.
<mgrwt>
<rscale>  0 0.12499974E+03</rscale>
<asrwt>0</asrwt>
<pdfrwt beam="1">  1        3 0.83875531E-01 0.12499974E+03</pdfrwt>
<pdfrwt beam="2">  1       -3 0.11022909E-02 0.12499974E+03</pdfrwt>
<totfact> 0.70966126E+03</totfact>
</mgrwt>
</event>
<event>
 5    1  0.4727215E-047  0.1249983E+03  0.7818608E-02  0.1235072E+00
         -3   -1    0    0    0  501 -0.00000000000E+00  0.00000000000E+00  0.20275140051E+03  0.20275142184E+03  0.93000000000E-01 0.  1.
          3   -1    0    0  501    0  0.00000000000E+00 -0.00000000000E+00 -0.19265540363E+02  0.19265764830E+02  0.93000000000E-01 0. -1.
         25    2    1    2    0    0  0.00000000000E+00  0.00000000000E+00  0.18348586015E+03  0.22201718667E+03  0.12499828120E+03 0.  0.
        -13    1    3    3    0    0 -0.56469165914E+02 -0.18764268042E+02  0.12568886251E+03  0.13906317192E+03  0.10570000000E+00 0.  1.
         13    1    3    3    0    0  0.56469165914E+02  0.18764268042E+02  0.57796997643E+02  0.82954014750E+02  0.10570000000E+00 0. -1.
<mgrwt>
<rscale>  0 0.12499828E+03</rscale>
<asrwt>0</asrwt>
<pdfrwt beam="2">  1        3 0.29639482E-02 0.12499828E+03</pdfrwt>
<pdfrwt beam="1">  1       -3 0.31192542E-01 0.12499828E+03</pdfrwt>
<totfact> 0.11514523E+04</totfact>
</mgrwt>
</event>
<event>
 5    1  0.2989269E-047  0.1249933E+03  0.7818608E-02  0.1235080E+00
          3   -1    0    0  501    0  0.00000000000E+00  0.00000000000E+00  0.11418338332E+03  0.11418342119E+03  0.93000000000E-01 0. -1.
         -3   -1    0    0    0  501 -0.00000000000E+00 -0.00000000000E+00 -0.34206561666E+02  0.34206688088E+02  0.93000000000E-01 0.  1.
         25    2    1    2    0    0  0.00000000000E+00  0.00000000000E+00  0.79976821650E+02  0.14839010928E+03  0.12499332994E+03 0.  0.
        -13    1    3    3    0    0 -0.55301415390E+01  0.62077132901E+02  0.45514758532E+02  0.77173553186E+02  0.10570000000E+00 0.  1.
         13    1    3    3    0    0  0.55301415390E+01 -0.62077132901E+02  0.34462063118E+02  0.71216556091E+02  0.10570000000E+00 0. -1.
<mgrwt>
<rscale>  0 0.12499333E+03</rscale>
<asrwt>0</asrwt>
<pdfrwt beam="1">  1        3 0.17566687E-01 0.12499333E+03</pdfrwt>
<pdfrwt beam="2">  1       -3 0.52625607E-02 0.12499333E+03</pdfrwt>
<totfact> 0.13137213E+04</totfact>
</mgrwt>
</event>
<event>
 5    1  0.2989269E-047  0.1249999E+03  0.7818608E-02  0.1235070E+00
         -3   -1    0    0    0  501 -0.00000000000E+00  0.00000000000E+00  0.72130422347E+02  0.72130482301E+02  0.93000000000E-01 0.  1.
          3   -1    0    0  501    0  0.00000000000E+00 -0.00000000000E+00 -0.54155129641E+02  0.54155209495E+02  0.93000000000E-01 0. -1.
         25    2    1    2    0    0  0.00000000000E+00  0.00000000000E+00  0.17975292706E+02  0.12628569180E+03  0.12499985922E+03 0.  0.
        -13    1    3    3    0    0  0.32932908757E+02 -0.47708092469E+02 -0.14610528060E+02  0.59783921491E+02  0.10570000000E+00 0.  1.
         13    1    3    3    0    0 -0.32932908757E+02  0.47708092469E+02  0.32585820766E+02  0.66501770305E+02  0.10570000000E+00 0. -1.
<mgrwt>
<rscale>  0 0.12499986E+03</rscale>
<asrwt>0</asrwt>
<pdfrwt beam="2">  1        3 0.83315691E-02 0.12499986E+03</pdfrwt>
<pdfrwt beam="1">  1       -3 0.11096999E-01 0.12499986E+03</pdfrwt>
<totfact> 0.13702058E+04</totfact>
</mgrwt>
</event>
<event>
 5    1  0.2989269E-047  0.1249990E+03  0.7818608E-02  0.1235071E+00
         -3   -1    0    0    0  501 -0.00000000000E+00  0.00000000000E+00  0.20727997827E+02  0.20728206457E+02  0.93000000000E-01 0.  1.
          3   -1    0    0  501    0  0.00000000000E+00 -0.00000000000E+00 -0.18844875484E+03  0.18844877779E+03  0.93000000000E-01 0. -1.
         25    2    1    2    0    0  0.00000000000E+00  0.00000000000E+00 -0.16772075702E+03  0.20917698425E+03  0.12499903362E+03 0.  0.
        -13    1    3    3    0    0 -0.38650354519E+02  0.42195978478E+02 -0.41796758053E+02  0.70861348142E+02  0.10570000000E+00 0.  1.
         13    1    3    3    0    0  0.38650354519E+02 -0.42195978478E+02 -0.12592399896E+03  0.13831563611E+03  0.10570000000E+00 0. -1.
<mgrwt>
<rscale>  0 0.12499903E+03</rscale>
<asrwt>0</asrwt>
<pdfrwt beam="2">  1        3 0.28992133E-01 0.12499903E+03</pdfrwt>
<pdfrwt beam="1">  1       -3 0.31889407E-02 0.12499903E+03</pdfrwt>
<totfact> 0.11772661E+04</totfact>
</mgrwt>
</event>
<event>
 5    1  0.2989269E-047  0.1249992E+03  0.7818608E-02  0.1235070E+00
         -3   -1    0    0    0  501 -0.00000000000E+00  0.00000000000E+00  0.39251646086E+02  0.39251756259E+02  0.93000000000E-01 0.  1.
          3   -1    0    0  501    0  0.00000000000E+00 -0.00000000000E+00 -0.99516633738E+02  0.99516677193E+02  0.93000000000E-01 0. -1.
         25    2    1    2    0    0  0.00000000000E+00  0.00000000000E+00 -0.60264987652E+02  0.13876843345E+03  0.12499923754E+03 0.  0.
        -13    1    3    3    0    0  0.44352345489E+02  0.44030927799E+02 -0.29487055052E+02  0.69103912634E+02  0.10570000000E+00 0.  1.
         13    1    3    3    0    0 -0.44352345489E+02 -0.44030927799E+02 -0.30777932600E+02  0.69664520818E+02  0.10570000000E+00 0. -1.
<mgrwt>
<rscale>  0 0.12499924E+03</rscale>
<asrwt>0</asrwt>
<pdfrwt beam="2">  1        3 0.15310263E-01 0.12499924E+03</pdfrwt>
<pdfrwt beam="1">  1       -3 0.60387266E-02 0.12499924E+03</pdfrwt>
<totfact> 0.13376888E+04</totfact>
</mgrwt>
</event>
<event>
 5    1  0.2989269E-047  0.1250002E+03  0.7818608E-02  0.1235069E+00
         -3   -1    0    0    0  501 -0.00000000000E+00  0.00000000000E+00  0.40829012253E+02  0.40829118170E+02  0.93000000000E-01 0.  1.
          3   -1    0    0  501    0  0.00000000000E+00 -0.00000000000E+00 -0.95673388862E+02  0.95673434063E+02  0.93000000000E-01 0. -1.
         25    2    1    2    0    0  0.00000000000E+00  0.00000000000E+00 -0.54844376610E+02  0.13650255223E+03  0.12500016448E+03 0.  0.
        -13    1    3    3    0    0 -0.42502660234E+02 -0.26687180865E+02 -0.68099966554E+02  0.84594907451E+02  0.10570000000E+00 0. -1.
         13    1    3    3    0    0  0.42502660234E+02  0.26687180865E+02  0.13255589945E+02  0.51907644781E+02  0.10570000000E+00 0.  1.
<mgrwt>
<rscale>  0 0.12500016E+03</rscale>
<asrwt>0</asrwt>
<pdfrwt beam="2">  1        3 0.14718995E-01 0.12500016E+03</pdfrwt>
<pdfrwt beam="1">  1       -3 0.62813981E-02 0.12500016E+03</pdfrwt>
<totfact> 0.13434637E+04</totfact>
</mgrwt>
</event>
<event>
 5    1  0.2989269E-047  0.1250018E+03  0.7818608E-02  0.1235067E+00
         -3   -1    0    0    0  501 -0.00000000000E+00  0.00000000000E+00  0.41823925476E+03  0.41823926510E+03  0.93000000000E-01 0.  1.
          3   -1    0    0  501    0  0.00000000000E+00 -0.00000000000E+00 -0.93397713518E+01  0.93402343603E+01  0.93000000000E-01 0. -1.
         25    2    1    2    0    0  0.00000000000E+00  0.00000000000E+00  0.40889948341E+03  0.42757949946E+03  0.12500176330E+03 0.  0.
        -13    1    3    3    0    0  0.55288179450E+02  0.28457974900E+02  0.18289463398E+03  0.19317633766E+03  0.10570000000E+00 0.  1.
         13    1    3    3    0    0 -0.55288179450E+02 -0.28457974900E+02  0.22600484943E+03  0.23440316180E+03  0.10570000000E+00 0. -1.
<mgrwt>
<rscale>  0 0.12500176E+03</rscale>
<asrwt>0</asrwt>
<pdfrwt beam="2">  1        3 0.14369246E-02 0.12500176E+03</pdfrwt>
<pdfrwt beam="1">  1       -3 0.64344526E-01 0.12500176E+03</pdfrwt>
<totfact> 0.83819195E+03</totfact>
</mgrwt>
</event>
<event>
 5    1  0.2989269E-047  0.1250016E+03  0.7818608E-02  0.1235067E+00
          3   -1    0    0  501    0  0.00000000000E+00  0.00000000000E+00  0.11862025123E+02  0.11862389684E+02  0.93000000000E-01 0. -1.
         -3   -1    0    0    0  501 -0.00000000000E+00 -0.00000000000E+00 -0.32931028419E+03  0.32931029732E+03  0.93000000000E-01 0.  1.
         25    2    1    2    0    0  0.00000000000E+00  0.00000000000E+00 -0.31744825907E+03  0.34117268701E+03  0.12500162069E+03 0.  0.
        -13    1    3    3    0    0 -0.49119809360E+02  0.38508573460E+02 -0.14980696706E+03  0.16228926167E+03  0.10570000000E+00 0.  1.
         13    1    3    3    0    0  0.49119809360E+02 -0.38508573460E+02 -0.16764129200E+03  0.17888342533E+03  0.10570000000E+00 0. -1.
<mgrwt>
<rscale>  0 0.12500162E+03</rscale>
<asrwt>0</asrwt>
<pdfrwt beam="1">  1        3 0.18249562E-02 0.12500162E+03</pdfrwt>
<pdfrwt beam="2">  1       -3 0.50663143E-01 0.12500162E+03</pdfrwt>
<totfact> 0.95089340E+03</totfact>
</mgrwt>
</event>
<event>
 5    1  0.2989269E-047  0.1249969E+03  0.7818608E-02  0.1235074E+00
         -3   -1    0    0    0  501 -0.00000000000E+00  0.00000000000E+00  0.12151035508E+02  0.12151391399E+02  0.93000000000E-01 0.  1.
          3   -1    0    0  501    0  0.00000000000E+00 -0.00000000000E+00 -0.32145361964E+03  0.32145363309E+03  0.93000000000E-01 0. -1.
         25    2    1    2    0    0  0.00000000000E+00  0.00000000000E+00 -0.30930258413E+03  0.33360502449E+03  0.12499689522E+03 0.  0.
        -13    1    3    3    0    0  0.21144544245E+02  0.51640821341E+02 -0.79533137391E+02  0.97156560745E+02  0.10570000000E+00 0.  1.
         13    1    3    3    0    0 -0.21144544245E+02 -0.51640821341E+02 -0.22976944674E+03  0.23644846375E+03  0.10570000000E+00 0. -1.
<mgrwt>
<rscale>  0 0.12499690E+03</rscale>
<asrwt>0</asrwt>
<pdfrwt beam="2">  1        3 0.49454425E-01 0.12499690E+03</pdfrwt>
<pdfrwt beam="1">  1       -3 0.18694187E-02 0.12499690E+03</pdfrwt>
<totfact> 0.96242888E+03</totfact>
</mgrwt>
</event>
<event>
 5    1  0.2989269E-047  0.1250032E+03  0.7818608E-02  0.1235064E+00
          3   -1    0    0  501    0  0.00000000000E+00  0.00000000000E+00  0.47705069734E+02  0.47705160385E+02  0.93000000000E-01 0. -1.
         -3   -1    0    0    0  501 -0.00000000000E+00 -0.00000000000E+00 -0.81887371381E+02  0.81887424191E+02  0.93000000000E-01 0.  1.
         25    2    1    2    0    0  0.00000000000E+00  0.00000000000E+00 -0.34182301647E+02  0.12959258458E+03  0.12500323288E+03 0.  0.
        -13    1    3    3    0    0  0.44340616442E+02  0.34441733231E+02 -0.45560559955E+02  0.72305594876E+02  0.10570000000E+00 0.  1.
         13    1    3    3    0    0 -0.44340616442E+02 -0.34441733231E+02  0.11378258309E+02  0.57286989701E+02  0.10570000000E+00 0. -1.
<mgrwt>
<rscale>  0 0.12500323E+03</rscale>
<asrwt>0</asrwt>
<pdfrwt beam="1">  1        3 0.73392525E-02 0.12500323E+03</pdfrwt>
<pdfrwt beam="2">  1       -3 0.12598068E-01 0.12500323E+03</pdfrwt>
<totfact> 0.13613609E+04</totfact>
</mgrwt>
</event>
<event>
 5    1  0.2989269E-047  0.1250017E+03  0.7818608E-02  0.1235067E+00
         -3   -1    0    0    0  501 -0.00000000000E+00  0.00000000000E+00  0.84689514111E+02  0.84689565174E+02  0.93000000000E-01 0.  1.
          3   -1    0    0  501    0  0.00000000000E+00 -0.00000000000E+00 -0.46125494854E+02  0.46125588609E+02  0.93000000000E-01 0. -1.
         25    2    1    2    0    0  0.00000000000E+00  0.00000000000E+00  0.38564019257E+02  0.13081515378E+03  0.12500168350E+03 0.  0.
        -13    1    3    3    0    0  0.57097511582E+00  0.59626724230E+02  0.38879145802E+02  0.71184769479E+02  0.10570000000E+00 0. -1.
         13    1    3    3    0    0 -0.57097511582E+00 -0.59626724230E+02 -0.31512654457E+00  0.59630384304E+02  0.10570000000E+00 0.  1.
<mgrwt>
<rscale>  0 0.12500168E+03</rscale>
<asrwt>0</asrwt>
<pdfrwt beam="2">  1        3 0.70962412E-02 0.12500168E+03</pdfrwt>
<pdfrwt beam="1">  1       -3 0.13029167E-01 0.12500168E+03</pdfrwt>
<totfact> 0.13582058E+04</totfact>
</mgrwt>
</event>
<event>
 5    1  0.2989269E-047  0.1249996E+03  0.7818608E-02  0.1235070E+00
          3   -1    0    0  501    0  0.00000000000E+00  0.00000000000E+00  0.17443942675E+03  0.17443945154E+03  0.93000000000E-01 0. -1.
         -3   -1    0    0    0  501 -0.00000000000E+00 -0.00000000000E+00 -0.22392898918E+02  0.22393092037E+02  0.93000000000E-01 0.  1.
         25    2    1    2    0    0  0.00000000000E+00  0.00000000000E+00  0.15204652783E+03  0.19683254358E+03  0.12499961434E+03 0.  0.
        -13    1    3    3    0    0 -0.13735553484E+01 -0.60169088465E+02  0.49486120098E+02  0.77917219637E+02  0.10570000000E+00 0. -1.
         13    1    3    3    0    0  0.13735553484E+01  0.60169088465E+02  0.10256040774E+03  0.11891532394E+03  0.10570000000E+00 0.  1.
<mgrwt>
<rscale>  0 0.12499961E+03</rscale>
<asrwt>0</asrwt>
<pdfrwt beam="1">  1        3 0.26836853E-01 0.12499961E+03</pdfrwt>
<pdfrwt beam="2">  1       -3 0.34450779E-02 0.12499961E+03</pdfrwt>
<totfact> 0.12029028E+04</totfact>
</mgrwt>
</event>
<event>
 5    1  0.2989269E-047  0.1250001E+03  0.7818608E-02  0.1235069E+00
          3   -1    0    0  501    0  0.00000000000E+00  0.00000000000E+00  0.47858310104E+02  0.47858400464E+02  0.93000000000E-01 0.  1.
         -3   -1    0    0    0  501 -0.00000000000E+00 -0.00000000000E+00 -0.81621057375E+02  0.81621110357E+02  0.93000000000E-01 0. -1.
         25    2    1    2    0    0  0.00000000000E+00  0.00000000000E+00 -0.33762747271E+02  0.12947951082E+03  0.12500008248E+03 0.  0.
        -13    1    3    3    0    0 -0.36616107329E+02  0.49542484131E+02 -0.59658635897E+01  0.61893454829E+02  0.10570000000E+00 0. -1.
         13    1    3    3    0    0  0.36616107329E+02 -0.49542484131E+02 -0.27796883681E+02  0.67586055993E+02  0.10570000000E+00 0.  1.
<mgrwt>
<rscale>  0 0.12500008E+03</rscale>
<asrwt>0</asrwt>
<pdfrwt beam="1">  1        3 0.73628280E-02 0.12500008E+03</pdfrwt>
<pdfrwt beam="2">  1       -3 0.12557097E-01 0.12500008E+03</pdfrwt>
<totfact> 0.13617542E+04</totfact>
</mgrwt>
</event>
<event>
 5    1  0.2989269E-047  0.1250006E+03  0.7818608E-02  0.1235068E+00
          3   -1    0    0  501    0  0.00000000000E+00  0.00000000000E+00  0.11790686101E+03  0.11790689769E+03  0.93000000000E-01 0. -1.
         -3   -1    0    0    0  501 -0.00000000000E+00 -0.00000000000E+00 -0.33130179798E+02  0.33130310328E+02  0.93000000000E-01 0.  1.
         25    2    1    2    0    0  0.00000000000E+00  0.00000000000E+00  0.84776681211E+02  0.15103720801E+03  0.12500061011E+03 0.  0.
        -13    1    3    3    0    0 -0.16147740936E+02 -0.51692799949E+02  0.46907633951E+01  0.54359079625E+02  0.10570000000E+00 0.  1.
         13    1    3    3    0    0  0.16147740936E+02  0.51692799949E+02  0.80085917816E+02  0.96678128389E+02  0.10570000000E+00 0. -1.
<mgrwt>
<rscale>  0 0.12500061E+03</rscale>
<asrwt>0</asrwt>
<pdfrwt beam="1">  1        3 0.18139530E-01 0.12500061E+03</pdfrwt>
<pdfrwt beam="2">  1       -3 0.50969637E-02 0.12500061E+03</pdfrwt>
<totfact> 0.13070124E+04</totfact>
</mgrwt>
</event>
<event>
 5    1  0.2989269E-047  0.1250000E+03  0.7818608E-02  0.1235069E+00
         -3   -1    0    0    0  501 -0.00000000000E+00  0.00000000000E+00  0.10176119004E+02  0.10176543960E+02  0.93000000000E-01 0.  1.
          3   -1    0    0  501    0  0.00000000000E+00 -0.00000000000E+00 -0.38385627572E+03  0.38385628698E+03  0.93000000000E-01 0. -1.
         25    2    1    2    0    0  0.00000000000E+00  0.00000000000E+00 -0.37368015671E+03  0.39403283094E+03  0.12500004936E+03 0.  0.
        -13    1    3    3    0    0 -0.19669266698E+02 -0.56171795228E+02 -0.12669122345E+03  0.13997438303E+03  0.10570000000E+00 0.  1.
         13    1    3    3    0    0  0.19669266698E+02  0.56171795228E+02 -0.24698893326E+03  0.25405844792E+03  0.10570000000E+00 0. -1.
<mgrwt>
<rscale>  0 0.12500005E+03</rscale>
<asrwt>0</asrwt>
<pdfrwt beam="2">  1        3 0.59054834E-01 0.12500005E+03</pdfrwt>
<pdfrwt beam="1">  1       -3 0.15655906E-02 0.12500005E+03</pdfrwt>
<totfact> 0.87996691E+03</totfact>
</mgrwt>
</event>
<event>
 5    1  0.2989269E-047  0.1250003E+03  0.7818608E-02  0.1235069E+00
         -3   -1    0    0    0  501 -0.00000000000E+00  0.00000000000E+00  0.29054356819E+02  0.29054505660E+02  0.93000000000E-01 0.  1.
          3   -1    0    0  501    0  0.00000000000E+00 -0.00000000000E+00 -0.13444637870E+03  0.13444641086E+03  0.93000000000E-01 0. -1.
         25    2    1    2    0    0  0.00000000000E+00  0.00000000000E+00 -0.10539202188E+03  0.16350091652E+03  0.12500028571E+03 0.  0.
        -13    1    3    3    0    0 -0.50547669860E+02 -0.32264227283E+02 -0.29658441432E+02  0.66900535208E+02  0.10570000000E+00 0.  1.
         13    1    3    3    0    0  0.50547669860E+02  0.32264227283E+02 -0.75733580444E+02  0.96600381313E+02  0.10570000000E+00 0. -1.
<mgrwt>
<rscale>  0 0.12500029E+03</rscale>
<asrwt>0</asrwt>
<pdfrwt beam="2">  1        3 0.20684072E-01 0.12500029E+03</pdfrwt>
<pdfrwt beam="1">  1       -3 0.44699151E-02 0.12500029E+03</pdfrwt>
<totfact> 0.12771524E+04</totfact>
</mgrwt>
</event>
<event>
 5    1  0.2989269E-047  0.1250034E+03  0.7818608E-02  0.1235064E+00
         -3   -1    0    0    0  501 -0.00000000000E+00  0.00000000000E+00  0.60883946614E+02  0.60884017642E+02  0.93000000000E-01 0.  1.
          3   -1    0    0  501    0  0.00000000000E+00 -0.00000000000E+00 -0.64162294475E+02  0.64162361875E+02  0.93000000000E-01 0. -1.
         25    2    1    2    0    0  0.00000000000E+00  0.00000000000E+00 -0.32783478619E+01  0.12504637952E+03  0.12500339782E+03 0.  0.
        -13    1    3    3    0    0  0.59779018205E+02 -0.20463003623E+01 -0.19776399074E+02  0.62998694395E+02  0.10570000000E+00 0.  1.
         13    1    3    3    0    0 -0.59779018205E+02  0.20463003623E+01  0.16498051212E+02  0.62047685122E+02  0.10570000000E+00 0. -1.
<mgrwt>
<rscale>  0 0.12500340E+03</rscale>
<asrwt>0</asrwt>
<pdfrwt beam="2">  1        3 0.98711329E-02 0.12500340E+03</pdfrwt>
<pdfrwt beam="1">  1       -3 0.93667716E-02 0.12500340E+03</pdfrwt>
<totfact> 0.13734128E+04</totfact>
</mgrwt>
</event>
<event>
 5    1  0.2989269E-047  0.1250008E+03  0.7818608E-02  0.1235068E+00
         -3   -1    0    0    0  501 -0.00000000000E+00  0.00000000000E+00  0.41742547752E+03  0.41742548788E+03  0.93000000000E-01 0.  1.
          3   -1    0    0  501    0  0.00000000000E+00 -0.00000000000E+00 -0.93578367708E+01  0.93582988855E+01  0.93000000000E-01 0. -1.
         25    2    1    2    0    0  0.00000000000E+00  0.00000000000E+00  0.40806764075E+03  0.42678378676E+03  0.12500080487E+03 0.  0.
        -13    1    3    3    0    0 -0.59728118486E+02  0.17433826469E+02  0.22420468650E+03  0.23267818777E+03  0.10570000000E+00 0.  1.
         13    1    3    3    0    0  0.59728118486E+02 -0.17433826469E+02  0.18386295424E+03  0.19410559899E+03  0.10570000000E+00 0. -1.
<mgrwt>
<rscale>  0 0.12500080E+03</rscale>
<asrwt>0</asrwt>
<pdfrwt beam="2">  1        3 0.14397035E-02 0.12500080E+03</pdfrwt>
<pdfrwt beam="1">  1       -3 0.64219344E-01 0.12500080E+03</pdfrwt>
<totfact> 0.83915034E+03</totfact>
</mgrwt>
</event>
<event>
 5    1  0.2989269E-047  0.1250006E+03  0.7818608E-02  0.1235068E+00
          3   -1    0    0  501    0  0.00000000000E+00  0.00000000000E+00  0.18398727790E+03  0.18398730140E+03  0.93000000000E-01 0. -1.
         -3   -1    0    0    0  501 -0.00000000000E+00 -0.00000000000E+00 -0.21231150101E+02  0.21231353787E+02  0.93000000000E-01 0.  1.
         25    2    1    2    0    0  0.00000000000E+00  0.00000000000E+00  0.16275612780E+03  0.20521865519E+03  0.12500055721E+03 0.  0.
        -13    1    3    3    0    0 -0.44055641133E+02  0.23743151236E+02  0.14284232296E+03  0.15135579654E+03  0.10570000000E+00 0. -1.
         13    1    3    3    0    0  0.44055641133E+02 -0.23743151236E+02  0.19913804842E+02  0.53862858650E+02  0.10570000000E+00 0.  1.
<mgrwt>
<rscale>  0 0.12500056E+03</rscale>
<asrwt>0</asrwt>
<pdfrwt beam="1">  1        3 0.28305751E-01 0.12500056E+03</pdfrwt>
<pdfrwt beam="2">  1       -3 0.32663484E-02 0.12500056E+03</pdfrwt>
<totfact> 0.11853504E+04</totfact>
</mgrwt>
</event>
<event>
 5    1  0.2989269E-047  0.1249988E+03  0.7818608E-02  0.1235071E+00
          3   -1    0    0  501    0  0.00000000000E+00  0.00000000000E+00  0.14945822565E+03  0.14945825459E+03  0.93000000000E-01 0. -1.
         -3   -1    0    0    0  501 -0.00000000000E+00 -0.00000000000E+00 -0.26135461047E+02  0.26135626512E+02  0.93000000000E-01 0.  1.
         25    2    1    2    0    0  0.00000000000E+00  0.00000000000E+00  0.12332276460E+03  0.17559388110E+03  0.12499882723E+03 0.  0.
        -13    1    3    3    0    0 -0.29428050537E+02  0.54086457619E+02  0.76713381762E+02  0.98368232524E+02  0.10570000000E+00 0.  1.
         13    1    3    3    0    0  0.29428050537E+02 -0.54086457619E+02  0.46609382842E+02  0.77225648573E+02  0.10570000000E+00 0. -1.
<mgrwt>
<rscale>  0 0.12499883E+03</rscale>
<asrwt>0</asrwt>
<pdfrwt beam="1">  1        3 0.22993588E-01 0.12499883E+03</pdfrwt>
<pdfrwt beam="2">  1       -3 0.40208551E-02 0.12499883E+03</pdfrwt>
<totfact> 0.12493344E+04</totfact>
</mgrwt>
</event>
<event>
 5    1  0.2989269E-047  0.1250011E+03  0.7818608E-02  0.1235068E+00
         -3   -1    0    0    0  501 -0.00000000000E+00  0.00000000000E+00  0.11202874338E+03  0.11202878198E+03  0.93000000000E-01 0.  1.
          3   -1    0    0  501    0  0.00000000000E+00 -0.00000000000E+00 -0.34868806633E+02  0.34868930655E+02  0.93000000000E-01 0. -1.
         25    2    1    2    0    0  0.00000000000E+00  0.00000000000E+00  0.77159936744E+02  0.14689771263E+03  0.12500112855E+03 0.  0.
        -13    1    3    3    0    0 -0.52622848850E+02 -0.20027215397E+02  0.70462769079E+02  0.90195712627E+02  0.10570000000E+00 0.  1.
         13    1    3    3    0    0  0.52622848850E+02  0.20027215397E+02  0.66971676656E+01  0.56702000007E+02  0.10570000000E+00 0. -1.
<mgrwt>
<rscale>  0 0.12500113E+03</rscale>
<asrwt>0</asrwt>
<pdfrwt beam="2">  1        3 0.53644442E-02 0.12500113E+03</pdfrwt>
<pdfrwt beam="1">  1       -3 0.17235204E-01 0.12500113E+03</pdfrwt>
<totfact> 0.13171941E+04</totfact>
</mgrwt>
</event>
<event>
 5    1  0.2989269E-047  0.1249913E+03  0.7818608E-02  0.1235083E+00
         -3   -1    0    0    0  501 -0.00000000000E+00  0.00000000000E+00  0.63014723409E+02  0.63014792036E+02  0.93000000000E-01 0.  1.
          3   -1    0    0  501    0  0.00000000000E+00 -0.00000000000E+00 -0.61980748492E+02  0.61980818264E+02  0.93000000000E-01 0. -1.
         25    2    1    2    0    0  0.00000000000E+00  0.00000000000E+00  0.10339749168E+01  0.12499561030E+03  0.12499133366E+03 0.  0.
        -13    1    3    3    0    0 -0.14248038405E+02  0.60592832426E+02  0.61028083697E+01  0.62544011562E+02  0.10570000000E+00 0.  1.
         13    1    3    3    0    0  0.14248038405E+02 -0.60592832426E+02 -0.50688334529E+01  0.62451598738E+02  0.10570000000E+00 0. -1.
<mgrwt>
<rscale>  0 0.12499133E+03</rscale>
<asrwt>0</asrwt>
<pdfrwt beam="2">  1        3 0.95355104E-02 0.12499133E+03</pdfrwt>
<pdfrwt beam="1">  1       -3 0.96945835E-02 0.12499133E+03</pdfrwt>
<totfact> 0.13739230E+04</totfact>
</mgrwt>
</event>
<event>
 5    1  0.2989269E-047  0.1249959E+03  0.7818608E-02  0.1235076E+00
         -3   -1    0    0    0  501 -0.00000000000E+00  0.00000000000E+00  0.28556683146E+02  0.28556834582E+02  0.93000000000E-01 0.  1.
          3   -1    0    0  501    0  0.00000000000E+00 -0.00000000000E+00 -0.13677985334E+03  0.13677988496E+03  0.93000000000E-01 0. -1.
         25    2    1    2    0    0  0.00000000000E+00  0.00000000000E+00 -0.10822317020E+03  0.16533671954E+03  0.12499590498E+03 0.  0.
        -13    1    3    3    0    0  0.52177056207E+02 -0.33992740257E+02 -0.61114763895E+02  0.87252376031E+02  0.10570000000E+00 0.  1.
         13    1    3    3    0    0 -0.52177056207E+02  0.33992740257E+02 -0.47108406301E+02  0.78084343510E+02  0.10570000000E+00 0. -1.
<mgrwt>
<rscale>  0 0.12499590E+03</rscale>
<asrwt>0</asrwt>
<pdfrwt beam="2">  1        3 0.21043068E-01 0.12499590E+03</pdfrwt>
<pdfrwt beam="1">  1       -3 0.43933500E-02 0.12499590E+03</pdfrwt>
<totfact> 0.12729801E+04</totfact>
</mgrwt>
</event>
<event>
 5    1  0.2989269E-047  0.1249995E+03  0.7818608E-02  0.1235070E+00
         -3   -1    0    0    0  501 -0.00000000000E+00  0.00000000000E+00  0.18564291107E+03  0.18564293437E+03  0.93000000000E-01 0.  1.
          3   -1    0    0  501    0  0.00000000000E+00 -0.00000000000E+00 -0.21041451769E+02  0.21041657291E+02  0.93000000000E-01 0. -1.
         25    2    1    2    0    0  0.00000000000E+00  0.00000000000E+00  0.16460145930E+03  0.20668459166E+03  0.12499952010E+03 0.  0.
        -13    1    3    3    0    0 -0.40096348311E+02  0.47873708934E+02  0.78052958143E+02  0.99959414776E+02  0.10570000000E+00 0.  1.
         13    1    3    3    0    0  0.40096348311E+02 -0.47873708934E+02  0.86548501162E+02  0.10672517688E+03  0.10570000000E+00 0. -1.
<mgrwt>
<rscale>  0 0.12499952E+03</rscale>
<asrwt>0</asrwt>
<pdfrwt beam="2">  1        3 0.32371639E-02 0.12499952E+03</pdfrwt>
<pdfrwt beam="1">  1       -3 0.28560466E-01 0.12499952E+03</pdfrwt>
<totfact> 0.11822704E+04</totfact>
</mgrwt>
</event>
<event>
 5    1  0.2989269E-047  0.1250089E+03  0.7818608E-02  0.1235055E+00
         -3   -1    0    0    0  501 -0.00000000000E+00  0.00000000000E+00  0.53539893741E+03  0.53539894549E+03  0.93000000000E-01 0.  1.
          3   -1    0    0  501    0  0.00000000000E+00 -0.00000000000E+00 -0.72966934517E+01  0.72972860933E+01  0.93000000000E-01 0. -1.
         25    2    1    2    0    0  0.00000000000E+00  0.00000000000E+00  0.52810224396E+03  0.54269623158E+03  0.12500887848E+03 0.  0.
        -13    1    3    3    0    0 -0.14181781279E+02 -0.60542566887E+02  0.29159964227E+03  0.29815581139E+03  0.10570000000E+00 0.  1.
         13    1    3    3    0    0  0.14181781279E+02  0.60542566887E+02  0.23650260169E+03  0.24454042019E+03  0.10570000000E+00 0. -1.
<mgrwt>
<rscale>  0 0.12500888E+03</rscale>
<asrwt>0</asrwt>
<pdfrwt beam="2">  1        3 0.11226146E-02 0.12500888E+03</pdfrwt>
<pdfrwt beam="1">  1       -3 0.82369100E-01 0.12500888E+03</pdfrwt>
<totfact> 0.71738166E+03</totfact>
</mgrwt>
</event>
<event>
 5    1  0.2989269E-047  0.1250028E+03  0.7818608E-02  0.1235065E+00
          3   -1    0    0  501    0  0.00000000000E+00  0.00000000000E+00  0.15289254836E+03  0.15289257664E+03  0.93000000000E-01 0. -1.
         -3   -1    0    0    0  501 -0.00000000000E+00 -0.00000000000E+00 -0.25550035695E+02  0.25550204951E+02  0.93000000000E-01 0.  1.
         25    2    1    2    0    0  0.00000000000E+00  0.00000000000E+00  0.12734251266E+03  0.17844278159E+03  0.12500284305E+03 0.  0.
        -13    1    3    3    0    0  0.32660445906E+02 -0.50095853328E+02  0.37734645944E+02  0.70712190777E+02  0.10570000000E+00 0.  1.
         13    1    3    3    0    0 -0.32660445906E+02  0.50095853328E+02  0.89607866719E+02  0.10773059082E+03  0.10570000000E+00 0. -1.
<mgrwt>
<rscale>  0 0.12500284E+03</rscale>
<asrwt>0</asrwt>
<pdfrwt beam="1">  1        3 0.23521946E-01 0.12500284E+03</pdfrwt>
<pdfrwt beam="2">  1       -3 0.39307898E-02 0.12500284E+03</pdfrwt>
<totfact> 0.12428129E+04</totfact>
</mgrwt>
</event>
<event>
 5    1  0.2989269E-047  0.1249982E+03  0.7818608E-02  0.1235072E+00
          3   -1    0    0  501    0  0.00000000000E+00  0.00000000000E+00  0.35338751462E+02  0.35338873835E+02  0.93000000000E-01 0. -1.
         -3   -1    0    0    0  501 -0.00000000000E+00 -0.00000000000E+00 -0.11053380149E+03  0.11053384062E+03  0.93000000000E-01 0.  1.
         25    2    1    2    0    0  0.00000000000E+00  0.00000000000E+00 -0.75195050030E+02  0.14587271445E+03  0.12499821308E+03 0.  0.
        -13    1    3    3    0    0  0.58609324480E+02  0.20881947750E+02 -0.44503403836E+02  0.76496227249E+02  0.10570000000E+00 0.  1.
         13    1    3    3    0    0 -0.58609324480E+02 -0.20881947750E+02 -0.30691646194E+02  0.69376487202E+02  0.10570000000E+00 0. -1.
<mgrwt>
<rscale>  0 0.12499821E+03</rscale>
<asrwt>0</asrwt>
<pdfrwt beam="1">  1        3 0.54367435E-02 0.12499821E+03</pdfrwt>
<pdfrwt beam="2">  1       -3 0.17005212E-01 0.12499821E+03</pdfrwt>
<totfact> 0.13198262E+04</totfact>
</mgrwt>
</event>
<event>
 5    1  0.2989269E-047  0.1249964E+03  0.7818608E-02  0.1235075E+00
          3   -1    0    0  501    0  0.00000000000E+00  0.00000000000E+00  0.57011353438E+02  0.57011429292E+02  0.93000000000E-01 0. -1.
         -3   -1    0    0    0  501 -0.00000000000E+00 -0.00000000000E+00 -0.68513008107E+02  0.68513071226E+02  0.93000000000E-01 0.  1.
         25    2    1    2    0    0  0.00000000000E+00  0.00000000000E+00 -0.11501654668E+02  0.12552450052E+03  0.12499644863E+03 0.  0.
        -13    1    3    3    0    0  0.28700517750E+02  0.45972602270E+02 -0.37008144629E+02  0.65626319567E+02  0.10570000000E+00 0.  1.
         13    1    3    3    0    0 -0.28700517750E+02 -0.45972602270E+02  0.25506489960E+02  0.59898180950E+02  0.10570000000E+00 0. -1.
<mgrwt>
<rscale>  0 0.12499645E+03</rscale>
<asrwt>0</asrwt>
<pdfrwt beam="1">  1        3 0.87709882E-02 0.12499645E+03</pdfrwt>
<pdfrwt beam="2">  1       -3 0.10540473E-01 0.12499645E+03</pdfrwt>
<totfact> 0.13723554E+04</totfact>
</mgrwt>
</event>
<event>
 5    1  0.2989269E-047  0.1249950E+03  0.7818608E-02  0.1235077E+00
         -3   -1    0    0    0  501 -0.00000000000E+00  0.00000000000E+00  0.59434114417E+02  0.59434187178E+02  0.93000000000E-01 0.  1.
          3   -1    0    0  501    0  0.00000000000E+00 -0.00000000000E+00 -0.65718626000E+02  0.65718691803E+02  0.93000000000E-01 0. -1.
         25    2    1    2    0    0  0.00000000000E+00  0.00000000000E+00 -0.62845115823E+01  0.12515287898E+03  0.12499499203E+03 0.  0.
        -13    1    3    3    0    0 -0.44959231163E+02  0.99278951646E+01  0.39172577906E+02  0.60451613720E+02  0.10570000000E+00 0.  1.
         13    1    3    3    0    0  0.44959231163E+02 -0.99278951646E+01 -0.45457089488E+02  0.64701265261E+02  0.10570000000E+00 0. -1.
<mgrwt>
<rscale>  0 0.12499499E+03</rscale>
<asrwt>0</asrwt>
<pdfrwt beam="2">  1        3 0.10110568E-01 0.12499499E+03</pdfrwt>
<pdfrwt beam="1">  1       -3 0.91437206E-02 0.12499499E+03</pdfrwt>
<totfact> 0.13733904E+04</totfact>
</mgrwt>
</event>
<event>
 5    1  0.2989269E-047  0.1249984E+03  0.7818608E-02  0.1235072E+00
          3   -1    0    0  501    0  0.00000000000E+00  0.00000000000E+00  0.74905138433E+01  0.74910911513E+01  0.93000000000E-01 0. -1.
         -3   -1    0    0    0  501 -0.00000000000E+00 -0.00000000000E+00 -0.52145873325E+03  0.52145874154E+03  0.93000000000E-01 0.  1.
         25    2    1    2    0    0  0.00000000000E+00  0.00000000000E+00 -0.51396821941E+03  0.52894983270E+03  0.12499837978E+03 0.  0.
        -13    1    3    3    0    0 -0.58303941483E+02  0.88554407559E+01 -0.16940123636E+03  0.17937268041E+03  0.10570000000E+00 0. -1.
         13    1    3    3    0    0  0.58303941483E+02 -0.88554407559E+01 -0.34456698305E+03  0.34957715229E+03  0.10570000000E+00 0.  1.
<mgrwt>
<rscale>  0 0.12499838E+03</rscale>
<asrwt>0</asrwt>
<pdfrwt beam="1">  1        3 0.11524322E-02 0.12499838E+03</pdfrwt>
<pdfrwt beam="2">  1       -3 0.80224437E-01 0.12499838E+03</pdfrwt>
<totfact> 0.73050456E+03</totfact>
</mgrwt>
</event>
<event>
 5    1  0.2989269E-047  0.1249989E+03  0.7818608E-02  0.1235071E+00
          3   -1    0    0  501    0  0.00000000000E+00  0.00000000000E+00  0.94411646169E+01  0.94416226531E+01  0.93000000000E-01 0. -1.
         -3   -1    0    0    0  501 -0.00000000000E+00 -0.00000000000E+00 -0.41372859166E+03  0.41372860211E+03  0.93000000000E-01 0.  1.
         25    2    1    2    0    0  0.00000000000E+00  0.00000000000E+00 -0.40428742704E+03  0.42317022476E+03  0.12499886185E+03 0.  0.
        -13    1    3    3    0    0  0.24024037046E+02 -0.46987968241E+02 -0.31549847736E+03  0.31988173425E+03  0.10570000000E+00 0.  1.
         13    1    3    3    0    0 -0.24024037046E+02  0.46987968241E+02 -0.88788949679E+02  0.10328849052E+03  0.10570000000E+00 0. -1.
<mgrwt>
<rscale>  0 0.12499886E+03</rscale>
<asrwt>0</asrwt>
<pdfrwt beam="1">  1        3 0.14525232E-02 0.12499886E+03</pdfrwt>
<pdfrwt beam="2">  1       -3 0.63650575E-01 0.12499886E+03</pdfrwt>
<totfact> 0.84347952E+03</totfact>
</mgrwt>
</event>
<event>
 5    1  0.2989269E-047  0.1250135E+03  0.7818608E-02  0.1235048E+00
         -3   -1    0    0    0  501 -0.00000000000E+00  0.00000000000E+00  0.18919855936E+02  0.18920084504E+02  0.93000000000E-01 0. -1.
          3   -1    0    0  501    0  0.00000000000E+00 -0.00000000000E+00 -0.20650617702E+03  0.20650619796E+03  0.93000000000E-01 0.  1.
         25    2    1    2    0    0  0.00000000000E+00  0.00000000000E+00 -0.18758632108E+03  0.22542628246E+03  0.12501352314E+03 0.  0.
        -13    1    3    3    0    0  0.30482662643E+02  0.36560825301E+02 -0.20741857888E+02  0.51924199653E+02  0.10570000000E+00 0. -1.
         13    1    3    3    0    0 -0.30482662643E+02 -0.36560825301E+02 -0.16684446319E+03  0.17350208281E+03  0.10570000000E+00 0.  1.
<mgrwt>
<rscale>  0 0.12501352E+03</rscale>
<asrwt>0</asrwt>
<pdfrwt beam="2">  1        3 0.31770199E-01 0.12501352E+03</pdfrwt>
<pdfrwt beam="1">  1       -3 0.29107664E-02 0.12501352E+03</pdfrwt>
<totfact> 0.11445206E+04</totfact>
</mgrwt>
</event>
<event>
 5    1  0.2989269E-047  0.1249877E+03  0.7818608E-02  0.1235088E+00
          3   -1    0    0  501    0  0.00000000000E+00  0.00000000000E+00  0.13185268510E+02  0.13185596486E+02  0.93000000000E-01 0. -1.
         -3   -1    0    0    0  501 -0.00000000000E+00 -0.00000000000E+00 -0.29619646321E+03  0.29619647781E+03  0.93000000000E-01 0.  1.
         25    2    1    2    0    0  0.00000000000E+00  0.00000000000E+00 -0.28301119470E+03  0.30938207429E+03  0.12498772568E+03 0.  0.
        -13    1    3    3    0    0 -0.33733004883E+02  0.29710750693E+02 -0.24896973896E+03  0.25299523003E+03  0.10570000000E+00 0.  1.
         13    1    3    3    0    0  0.33733004883E+02 -0.29710750693E+02 -0.34041455733E+02  0.56386844264E+02  0.10570000000E+00 0. -1.
<mgrwt>
<rscale>  0 0.12498773E+03</rscale>
<asrwt>0</asrwt>
<pdfrwt beam="1">  1        3 0.20285294E-02 0.12498773E+03</pdfrwt>
<pdfrwt beam="2">  1       -3 0.45568708E-01 0.12498773E+03</pdfrwt>
<totfact> 0.99881877E+03</totfact>
</mgrwt>
</event>
<event>
 5    1  0.2989269E-047  0.1250014E+03  0.7818608E-02  0.1235067E+00
          3   -1    0    0  501    0  0.00000000000E+00  0.00000000000E+00  0.29702070016E+03  0.29702071472E+03  0.93000000000E-01 0. -1.
         -3   -1    0    0    0  501 -0.00000000000E+00 -0.00000000000E+00 -0.13151561354E+02  0.13151890170E+02  0.93000000000E-01 0.  1.
         25    2    1    2    0    0  0.00000000000E+00  0.00000000000E+00  0.28386913880E+03  0.31017260489E+03  0.12500142742E+03 0.  0.
        -13    1    3    3    0    0 -0.36908578025E+02 -0.27703806678E+02  0.37346694456E+02  0.59367758890E+02  0.10570000000E+00 0.  1.
         13    1    3    3    0    0  0.36908578025E+02  0.27703806678E+02  0.24652244435E+03  0.25080484600E+03  0.10570000000E+00 0. -1.
<mgrwt>
<rscale>  0 0.12500143E+03</rscale>
<asrwt>0</asrwt>
<pdfrwt beam="1">  1        3 0.45695514E-01 0.12500143E+03</pdfrwt>
<pdfrwt beam="2">  1       -3 0.20233438E-02 0.12500143E+03</pdfrwt>
<totfact> 0.99765081E+03</totfact>
</mgrwt>
</event>
<event>
 5    1  0.2989269E-047  0.1250018E+03  0.7818608E-02  0.1235067E+00
          3   -1    0    0  501    0  0.00000000000E+00  0.00000000000E+00  0.25220502745E+03  0.25220504460E+03  0.93000000000E-01 0.  1.
         -3   -1    0    0    0  501 -0.00000000000E+00 -0.00000000000E+00 -0.15488673641E+02  0.15488952843E+02  0.93000000000E-01 0. -1.
         25    2    1    2    0    0  0.00000000000E+00  0.00000000000E+00  0.23671635381E+03  0.26769399744E+03  0.12500177641E+03 0.  0.
        -13    1    3    3    0    0  0.10989470460E+02 -0.49223889480E+02  0.39307596611E+02  0.63944179410E+02  0.10570000000E+00 0. -1.
         13    1    3    3    0    0 -0.10989470460E+02  0.49223889480E+02  0.19740875720E+03  0.20374981803E+03  0.10570000000E+00 0.  1.
<mgrwt>
<rscale>  0 0.12500178E+03</rscale>
<asrwt>0</asrwt>
<pdfrwt beam="1">  1        3 0.38800796E-01 0.12500178E+03</pdfrwt>
<pdfrwt beam="2">  1       -3 0.23828957E-02 0.12500178E+03</pdfrwt>
<totfact> 0.10672512E+04</totfact>
</mgrwt>
</event>
<event>
 5    1  0.2989269E-047  0.1250014E+03  0.7818608E-02  0.1235067E+00
          3   -1    0    0  501    0  0.00000000000E+00  0.00000000000E+00  0.60598159509E+02  0.60598230872E+02  0.93000000000E-01 0. -1.
         -3   -1    0    0    0  501 -0.00000000000E+00 -0.00000000000E+00 -0.64462821134E+02  0.64462888219E+02  0.93000000000E-01 0.  1.
         25    2    1    2    0    0  0.00000000000E+00  0.00000000000E+00 -0.38646616252E+01  0.12506111909E+03  0.12500139159E+03 0.  0.
        -13    1    3    3    0    0 -0.28850058943E+02  0.55415507749E+02 -0.16473760497E+00  0.62475937056E+02  0.10570000000E+00 0. -1.
         13    1    3    3    0    0  0.28850058943E+02 -0.55415507749E+02 -0.36999240202E+01  0.62585182035E+02  0.10570000000E+00 0.  1.
<mgrwt>
<rscale>  0 0.12500139E+03</rscale>
<asrwt>0</asrwt>
<pdfrwt beam="1">  1        3 0.93228044E-02 0.12500139E+03</pdfrwt>
<pdfrwt beam="2">  1       -3 0.99173677E-02 0.12500139E+03</pdfrwt>
<totfact> 0.13734379E+04</totfact>
</mgrwt>
</event>
<event>
 5    1  0.2989269E-047  0.1249989E+03  0.7818608E-02  0.1235071E+00
         -3   -1    0    0    0  501 -0.00000000000E+00  0.00000000000E+00  0.66726989485E+02  0.66727054294E+02  0.93000000000E-01 0.  1.
          3   -1    0    0  501    0  0.00000000000E+00 -0.00000000000E+00 -0.58539625148E+02  0.58539699021E+02  0.93000000000E-01 0. -1.
         25    2    1    2    0    0  0.00000000000E+00  0.00000000000E+00  0.81873643367E+01  0.12526675332E+03  0.12499890620E+03 0.  0.
        -13    1    3    3    0    0 -0.34518639368E+02 -0.33927834805E+01 -0.48009291969E+02  0.59227955658E+02  0.10570000000E+00 0. -1.
         13    1    3    3    0    0  0.34518639368E+02  0.33927834805E+01  0.56196656306E+02  0.66038797657E+02  0.10570000000E+00 0.  1.
<mgrwt>
<rscale>  0 0.12499891E+03</rscale>
<asrwt>0</asrwt>
<pdfrwt beam="2">  1        3 0.90061068E-02 0.12499891E+03</pdfrwt>
<pdfrwt beam="1">  1       -3 0.10265701E-01 0.12499891E+03</pdfrwt>
<totfact> 0.13729711E+04</totfact>
</mgrwt>
</event>
<event>
 5    1  0.2989269E-047  0.1249988E+03  0.7818608E-02  0.1235071E+00
          3   -1    0    0  501    0  0.00000000000E+00  0.00000000000E+00  0.32125098955E+02  0.32125233569E+02  0.93000000000E-01 0. -1.
         -3   -1    0    0    0  501 -0.00000000000E+00 -0.00000000000E+00 -0.12159226519E+03  0.12159230076E+03  0.93000000000E-01 0.  1.
         25    2    1    2    0    0  0.00000000000E+00  0.00000000000E+00 -0.89467166238E+02  0.15371753433E+03  0.12499882609E+03 0.  0.
        -13    1    3    3    0    0 -0.41076462459E+02  0.45886192232E+02 -0.31641082840E+02  0.69238628680E+02  0.10570000000E+00 0. -1.
         13    1    3    3    0    0  0.41076462459E+02 -0.45886192232E+02 -0.57826083398E+02  0.84478905647E+02  0.10570000000E+00 0.  1.
<mgrwt>
<rscale>  0 0.12499883E+03</rscale>
<asrwt>0</asrwt>
<pdfrwt beam="1">  1        3 0.49423361E-02 0.12499883E+03</pdfrwt>
<pdfrwt beam="2">  1       -3 0.18706515E-01 0.12499883E+03</pdfrwt>
<totfact> 0.13005597E+04</totfact>
</mgrwt>
</event>
<event>
 5    1  0.2989269E-047  0.1249992E+03  0.7818608E-02  0.1235071E+00
          3   -1    0    0  501    0  0.00000000000E+00  0.00000000000E+00  0.37271297807E+03  0.37271298967E+03  0.93000000000E-01 0. -1.
         -3   -1    0    0    0  501 -0.00000000000E+00 -0.00000000000E+00 -0.10480226194E+02  0.10480638820E+02  0.93000000000E-01 0.  1.
         25    2    1    2    0    0  0.00000000000E+00  0.00000000000E+00  0.36223275188E+03  0.38319362849E+03  0.12499916154E+03 0.  0.
        -13    1    3    3    0    0 -0.48480524887E+02  0.14707151133E+02  0.68918001568E+02  0.85535745162E+02  0.10570000000E+00 0.  1.
         13    1    3    3    0    0  0.48480524887E+02 -0.14707151133E+02  0.29331475031E+03  0.29765788333E+03  0.10570000000E+00 0. -1.
<mgrwt>
<rscale>  0 0.12499916E+03</rscale>
<asrwt>0</asrwt>
<pdfrwt beam="1">  1        3 0.57340480E-01 0.12499916E+03</pdfrwt>
<pdfrwt beam="2">  1       -3 0.16123754E-02 0.12499916E+03</pdfrwt>
<totfact> 0.89392320E+03</totfact>
</mgrwt>
</event>
<event>
 5    1  0.2989269E-047  0.1250014E+03  0.7818608E-02  0.1235067E+00
         -3   -1    0    0    0  501 -0.00000000000E+00  0.00000000000E+00  0.23785320142E+02  0.23785501955E+02  0.93000000000E-01 0.  1.
          3   -1    0    0  501    0  0.00000000000E+00 -0.00000000000E+00 -0.16423240885E+03  0.16423243518E+03  0.93000000000E-01 0. -1.
         25    2    1    2    0    0  0.00000000000E+00  0.00000000000E+00 -0.14044708870E+03  0.18801793713E+03  0.12500143982E+03 0.  0.
        -13    1    3    3    0    0 -0.24679246377E+02 -0.50157858170E+02 -0.28176481333E+02  0.62600329158E+02  0.10570000000E+00 0.  1.
         13    1    3    3    0    0  0.24679246377E+02  0.50157858170E+02 -0.11227060737E+03  0.12541760797E+03  0.10570000000E+00 0. -1.
<mgrwt>
<rscale>  0 0.12500144E+03</rscale>
<asrwt>0</asrwt>
<pdfrwt beam="2">  1        3 0.25266540E-01 0.12500144E+03</pdfrwt>
<pdfrwt beam="1">  1       -3 0.36592961E-02 0.12500144E+03</pdfrwt>
<totfact> 0.12217368E+04</totfact>
</mgrwt>
</event>
<event>
 5    1  0.2989269E-047  0.1250026E+03  0.7818608E-02  0.1235065E+00
         -3   -1    0    0    0  501 -0.00000000000E+00  0.00000000000E+00  0.14867380895E+03  0.14867383803E+03  0.93000000000E-01 0.  1.
          3   -1    0    0  501    0  0.00000000000E+00 -0.00000000000E+00 -0.26274957982E+02  0.26275122567E+02  0.93000000000E-01 0. -1.
         25    2    1    2    0    0  0.00000000000E+00  0.00000000000E+00  0.12239885096E+03  0.17494896060E+03  0.12500264036E+03 0.  0.
        -13    1    3    3    0    0 -0.40916887744E+02 -0.44277035298E+02  0.84271252464E+02  0.10361613157E+03  0.10570000000E+00 0.  1.
         13    1    3    3    0    0  0.40916887744E+02  0.44277035298E+02  0.38127598500E+02  0.71332829029E+02  0.10570000000E+00 0. -1.
<mgrwt>
<rscale>  0 0.12500264E+03</rscale>
<asrwt>0</asrwt>
<pdfrwt beam="2">  1        3 0.40423161E-02 0.12500264E+03</pdfrwt>
<pdfrwt beam="1">  1       -3 0.22872908E-01 0.12500264E+03</pdfrwt>
<totfact> 0.12506643E+04</totfact>
</mgrwt>
</event>
<event>
 5    1  0.2989269E-047  0.1249947E+03  0.7818608E-02  0.1235078E+00
         -3   -1    0    0    0  501 -0.00000000000E+00  0.00000000000E+00  0.11917757341E+03  0.11917760970E+03  0.93000000000E-01 0. -1.
          3   -1    0    0  501    0  0.00000000000E+00 -0.00000000000E+00 -0.32773831056E+02  0.32773963006E+02  0.93000000000E-01 0.  1.
         25    2    1    2    0    0  0.00000000000E+00  0.00000000000E+00  0.86403742356E+02  0.15195157271E+03  0.12499469490E+03 0.  0.
        -13    1    3    3    0    0  0.45461651786E+02  0.41690053144E+02  0.30979460482E+02  0.69025795602E+02  0.10570000000E+00 0. -1.
         13    1    3    3    0    0 -0.45461651786E+02 -0.41690053144E+02  0.55424281875E+02  0.82925777103E+02  0.10570000000E+00 0.  1.
<mgrwt>
<rscale>  0 0.12499469E+03</rscale>
<asrwt>0</asrwt>
<pdfrwt beam="2">  1        3 0.50421408E-02 0.12499469E+03</pdfrwt>
<pdfrwt beam="1">  1       -3 0.18335024E-01 0.12499469E+03</pdfrwt>
<totfact> 0.13049680E+04</totfact>
</mgrwt>
</event>
<event>
 5    1  0.2989269E-047  0.1250004E+03  0.7818608E-02  0.1235069E+00
         -3   -1    0    0    0  501 -0.00000000000E+00  0.00000000000E+00  0.26779914092E+03  0.26779915707E+03  0.93000000000E-01 0.  1.
          3   -1    0    0  501    0  0.00000000000E+00 -0.00000000000E+00 -0.14586413545E+02  0.14586710016E+02  0.93000000000E-01 0. -1.
         25    2    1    2    0    0  0.00000000000E+00  0.00000000000E+00  0.25321272738E+03  0.28238586709E+03  0.12500037050E+03 0.  0.
        -13    1    3    3    0    0  0.56905125364E+02  0.19609193964E+02  0.16464676647E+03  0.17530340174E+03  0.10570000000E+00 0.  1.
         13    1    3    3    0    0 -0.56905125364E+02 -0.19609193964E+02  0.88565960910E+02  0.10708246535E+03  0.10570000000E+00 0. -1.
<mgrwt>
<rscale>  0 0.12500037E+03</rscale>
<asrwt>0</asrwt>
<pdfrwt beam="2">  1        3 0.22440878E-02 0.12500037E+03</pdfrwt>
<pdfrwt beam="1">  1       -3 0.41199890E-01 0.12500037E+03</pdfrwt>
<totfact> 0.10420495E+04</totfact>
</mgrwt>
</event>
<event>
 5    1  0.2989269E-047  0.1250024E+03  0.7818608E-02  0.1235066E+00
          3   -1    0    0  501    0  0.00000000000E+00  0.00000000000E+00  0.27950385542E+03  0.27950387090E+03  0.93000000000E-01 0. -1.
         -3   -1    0    0    0  501 -0.00000000000E+00 -0.00000000000E+00 -0.13976020551E+02  0.13976329970E+02  0.93000000000E-01 0.  1.
         25    2    1    2    0    0  0.00000000000E+00  0.00000000000E+00  0.26552783487E+03  0.29348020087E+03  0.12500238881E+03 0.  0.
        -13    1    3    3    0    0 -0.41263656216E+02 -0.14385879711E+02  0.27852724031E+02  0.51821117972E+02  0.10570000000E+00 0.  1.
         13    1    3    3    0    0  0.41263656216E+02  0.14385879711E+02  0.23767511084E+03  0.24165908289E+03  0.10570000000E+00 0. -1.
<mgrwt>
<rscale>  0 0.12500239E+03</rscale>
<asrwt>0</asrwt>
<pdfrwt beam="1">  1        3 0.43000613E-01 0.12500239E+03</pdfrwt>
<pdfrwt beam="2">  1       -3 0.21501822E-02 0.12500239E+03</pdfrwt>
<totfact> 0.10240740E+04</totfact>
</mgrwt>
</event>
<event>
 5    1  0.2989269E-047  0.1249994E+03  0.7818608E-02  0.1235070E+00
         -3   -1    0    0    0  501 -0.00000000000E+00  0.00000000000E+00  0.21548491070E+02  0.21548691756E+02  0.93000000000E-01 0.  1.
          3   -1    0    0  501    0  0.00000000000E+00 -0.00000000000E+00 -0.18127447996E+03  0.18127450381E+03  0.93000000000E-01 0. -1.
         25    2    1    2    0    0  0.00000000000E+00  0.00000000000E+00 -0.15972598889E+03  0.20282319557E+03  0.12499942854E+03 0.  0.
        -13    1    3    3    0    0 -0.41173712279E+02 -0.25888602705E+02 -0.16173196379E+02  0.51255026939E+02  0.10570000000E+00 0.  1.
         13    1    3    3    0    0  0.41173712279E+02  0.25888602705E+02 -0.14355279251E+03  0.15156816863E+03  0.10570000000E+00 0. -1.
<mgrwt>
<rscale>  0 0.12499943E+03</rscale>
<asrwt>0</asrwt>
<pdfrwt beam="2">  1        3 0.27888398E-01 0.12499943E+03</pdfrwt>
<pdfrwt beam="1">  1       -3 0.33151699E-02 0.12499943E+03</pdfrwt>
<totfact> 0.11903443E+04</totfact>
</mgrwt>
</event>
<event>
 5    1  0.2989269E-047  0.1250006E+03  0.7818608E-02  0.1235068E+00
         -3   -1    0    0    0  501 -0.00000000000E+00  0.00000000000E+00  0.24264126112E+02  0.24264304337E+02  0.93000000000E-01 0.  1.
          3   -1    0    0  501    0  0.00000000000E+00 -0.00000000000E+00 -0.16098944085E+03  0.16098946771E+03  0.93000000000E-01 0. -1.
         25    2    1    2    0    0  0.00000000000E+00  0.00000000000E+00 -0.13672531474E+03  0.18525377205E+03  0.12500059347E+03 0.  0.
        -13    1    3    3    0    0 -0.38967647269E+02  0.23414620603E+02 -0.13192666143E+03  0.13953987660E+03  0.10570000000E+00 0. -1.
         13    1    3    3    0    0  0.38967647269E+02 -0.23414620603E+02 -0.47986533099E+01  0.45713895456E+02  0.10570000000E+00 0.  1.
<mgrwt>
<rscale>  0 0.12500059E+03</rscale>
<asrwt>0</asrwt>
<pdfrwt beam="2">  1        3 0.24767621E-01 0.12500059E+03</pdfrwt>
<pdfrwt beam="1">  1       -3 0.37329583E-02 0.12500059E+03</pdfrwt>
<totfact> 0.12277897E+04</totfact>
</mgrwt>
</event>
<event>
 5    1  0.2989269E-047  0.1250005E+03  0.7818608E-02  0.1235068E+00
         -3   -1    0    0    0  501 -0.00000000000E+00  0.00000000000E+00  0.76142940970E+01  0.76148620208E+01  0.93000000000E-01 0.  1.
          3   -1    0    0  501    0  0.00000000000E+00 -0.00000000000E+00 -0.51299984011E+03  0.51299984854E+03  0.93000000000E-01 0. -1.
         25    2    1    2    0    0  0.00000000000E+00  0.00000000000E+00 -0.50538554602E+03  0.52061471056E+03  0.12500050693E+03 0.  0.
        -13    1    3    3    0    0  0.45946168124E+02  0.37517770204E+02 -0.33469342570E+03  0.33990930235E+03  0.10570000000E+00 0.  1.
         13    1    3    3    0    0 -0.45946168124E+02 -0.37517770204E+02 -0.17069212032E+03  0.18070540821E+03  0.10570000000E+00 0. -1.
<mgrwt>
<rscale>  0 0.12500051E+03</rscale>
<asrwt>0</asrwt>
<pdfrwt beam="2">  1        3 0.78923070E-01 0.12500051E+03</pdfrwt>
<pdfrwt beam="1">  1       -3 0.11714746E-02 0.12500051E+03</pdfrwt>
<totfact> 0.73944512E+03</totfact>
</mgrwt>
</event>
<event>
 5    1  0.2989269E-047  0.1249876E+03  0.7818608E-02  0.1235089E+00
          3   -1    0    0  501    0  0.00000000000E+00  0.00000000000E+00  0.66831571736E+02  0.66831636444E+02  0.93000000000E-01 0. -1.
         -3   -1    0    0    0  501 -0.00000000000E+00 -0.00000000000E+00 -0.58437406201E+02  0.58437480204E+02  0.93000000000E-01 0.  1.
         25    2    1    2    0    0  0.00000000000E+00  0.00000000000E+00  0.83941655349E+01  0.12526911665E+03  0.12498755766E+03 0.  0.
        -13    1    3    3    0    0  0.35192459966E+02 -0.45512177868E+02  0.28656846724E+02  0.64273584072E+02  0.10570000000E+00 0.  1.
         13    1    3    3    0    0 -0.35192459966E+02  0.45512177868E+02 -0.20262681190E+02  0.60995532576E+02  0.10570000000E+00 0. -1.
<mgrwt>
<rscale>  0 0.12498756E+03</rscale>
<asrwt>0</asrwt>
<pdfrwt beam="1">  1        3 0.10281791E-01 0.12498756E+03</pdfrwt>
<pdfrwt beam="2">  1       -3 0.89903808E-02 0.12498756E+03</pdfrwt>
<totfact> 0.13733124E+04</totfact>
</mgrwt>
</event>
<event>
 5    1  0.2989269E-047  0.1249915E+03  0.7818608E-02  0.1235083E+00
          3   -1    0    0  501    0  0.00000000000E+00  0.00000000000E+00  0.14847391238E+03  0.14847394151E+03  0.93000000000E-01 0. -1.
         -3   -1    0    0    0  501 -0.00000000000E+00 -0.00000000000E+00 -0.26305657865E+02  0.26305822258E+02  0.93000000000E-01 0.  1.
         25    2    1    2    0    0  0.00000000000E+00  0.00000000000E+00  0.12216825452E+03  0.17477976377E+03  0.12499153336E+03 0.  0.
        -13    1    3    3    0    0 -0.29182274172E+02  0.36017624639E+02  0.11969471453E+03  0.12835774331E+03  0.10570000000E+00 0. -1.
         13    1    3    3    0    0  0.29182274172E+02 -0.36017624639E+02  0.24735399918E+01  0.46422020454E+02  0.10570000000E+00 0.  1.
<mgrwt>
<rscale>  0 0.12499153E+03</rscale>
<asrwt>0</asrwt>
<pdfrwt beam="1">  1        3 0.22842156E-01 0.12499153E+03</pdfrwt>
<pdfrwt beam="2">  1       -3 0.40470391E-02 0.12499153E+03</pdfrwt>
<totfact> 0.12513819E+04</totfact>
</mgrwt>
</event>
<event>
 5    1  0.2989269E-047  0.1249894E+03  0.7818608E-02  0.1235086E+00
          3   -1    0    0  501    0  0.00000000000E+00  0.00000000000E+00  0.95318147706E+02  0.95318193075E+02  0.93000000000E-01 0. -1.
         -3   -1    0    0    0  501 -0.00000000000E+00 -0.00000000000E+00 -0.40974132717E+02  0.40974238259E+02  0.93000000000E-01 0.  1.
         25    2    1    2    0    0  0.00000000000E+00  0.00000000000E+00  0.54344014989E+02  0.13629243133E+03  0.12498941905E+03 0.  0.
        -13    1    3    3    0    0  0.29823056261E+02  0.48801980341E+02  0.54639842149E+02  0.79098492353E+02  0.10570000000E+00 0. -1.
         13    1    3    3    0    0 -0.29823056261E+02 -0.48801980341E+02 -0.29582715920E+00  0.57193938981E+02  0.10570000000E+00 0.  1.
<mgrwt>
<rscale>  0 0.12498942E+03</rscale>
<asrwt>0</asrwt>
<pdfrwt beam="1">  1        3 0.14664342E-01 0.12498942E+03</pdfrwt>
<pdfrwt beam="2">  1       -3 0.63037244E-02 0.12498942E+03</pdfrwt>
<totfact> 0.13443292E+04</totfact>
</mgrwt>
</event>
<event>
 5    1  0.2989269E-047  0.1250024E+03  0.7818608E-02  0.1235065E+00
          3   -1    0    0  501    0  0.00000000000E+00  0.00000000000E+00  0.16401056732E+02  0.16401320402E+02  0.93000000000E-01 0. -1.
         -3   -1    0    0    0  501 -0.00000000000E+00 -0.00000000000E+00 -0.23817768056E+03  0.23817769872E+03  0.93000000000E-01 0.  1.
         25    2    1    2    0    0  0.00000000000E+00  0.00000000000E+00 -0.22177662383E+03  0.25457901912E+03  0.12500242437E+03 0.  0.
        -13    1    3    3    0    0 -0.51285901255E+02 -0.33994443279E+02 -0.13324677061E+03  0.14676709063E+03  0.10570000000E+00 0. -1.
         13    1    3    3    0    0  0.51285901255E+02  0.33994443279E+02 -0.88529853221E+02  0.10781192849E+03  0.10570000000E+00 0.  1.
<mgrwt>
<rscale>  0 0.12500242E+03</rscale>
<asrwt>0</asrwt>
<pdfrwt beam="1">  1        3 0.25232614E-02 0.12500242E+03</pdfrwt>
<pdfrwt beam="2">  1       -3 0.36642739E-01 0.12500242E+03</pdfrwt>
<totfact> 0.10901267E+04</totfact>
</mgrwt>
</event>
<event>
 5    1  0.2989269E-047  0.1249982E+03  0.7818608E-02  0.1235072E+00
         -3   -1    0    0    0  501 -0.00000000000E+00  0.00000000000E+00  0.15661625812E+03  0.15661628573E+03  0.93000000000E-01 0.  1.
          3   -1    0    0  501    0  0.00000000000E+00 -0.00000000000E+00 -0.24940701723E+02  0.24940875113E+02  0.93000000000E-01 0. -1.
         25    2    1    2    0    0  0.00000000000E+00  0.00000000000E+00  0.13167555640E+03  0.18155716085E+03  0.12499820199E+03 0.  0.
        -13    1    3    3    0    0  0.16592092636E+02 -0.47314253479E+02  0.12003274112E+03  0.13008384309E+03  0.10570000000E+00 0.  1.
         13    1    3    3    0    0 -0.16592092636E+02  0.47314253479E+02  0.11642815275E+02  0.51473317751E+02  0.10570000000E+00 0. -1.
<mgrwt>
<rscale>  0 0.12499820E+03</rscale>
<asrwt>0</asrwt>
<pdfrwt beam="2">  1        3 0.38370465E-02 0.12499820E+03</pdfrwt>
<pdfrwt beam="1">  1       -3 0.24094824E-01 0.12499820E+03</pdfrwt>
<totfact> 0.12359688E+04</totfact>
</mgrwt>
</event>
<event>
 5    1  0.2989269E-047  0.1249981E+03  0.7818608E-02  0.1235072E+00
         -3   -1    0    0    0  501 -0.00000000000E+00  0.00000000000E+00  0.17363158180E+03  0.17363160671E+03  0.93000000000E-01 0.  1.
          3   -1    0    0  501    0  0.00000000000E+00 -0.00000000000E+00 -0.22496525037E+02  0.22496717266E+02  0.93000000000E-01 0. -1.
         25    2    1    2    0    0  0.00000000000E+00  0.00000000000E+00  0.15113505676E+03  0.19612832397E+03  0.12499805631E+03 0.  0.
        -13    1    3    3    0    0  0.49957759065E+02  0.30100332090E+02  0.11080345550E+03  0.12521671057E+03  0.10570000000E+00 0.  1.
         13    1    3    3    0    0 -0.49957759065E+02 -0.30100332090E+02  0.40331601269E+02  0.70911613408E+02  0.10570000000E+00 0. -1.
<mgrwt>
<rscale>  0 0.12499806E+03</rscale>
<asrwt>0</asrwt>
<pdfrwt beam="2">  1        3 0.34610205E-02 0.12499806E+03</pdfrwt>
<pdfrwt beam="1">  1       -3 0.26712568E-01 0.12499806E+03</pdfrwt>
<totfact> 0.12043710E+04</totfact>
</mgrwt>
</event>
<event>
 5    1  0.2989269E-047  0.1250345E+03  0.7818608E-02  0.1235015E+00
          3   -1    0    0  501    0  0.00000000000E+00  0.00000000000E+00  0.96468943553E+02  0.96468988381E+02  0.93000000000E-01 0. -1.
         -3   -1    0    0    0  501 -0.00000000000E+00 -0.00000000000E+00 -0.40514548184E+02  0.40514654923E+02  0.93000000000E-01 0.  1.
         25    2    1    2    0    0  0.00000000000E+00  0.00000000000E+00  0.55954395369E+02  0.13698364330E+03  0.12503449193E+03 0.  0.
        -13    1    3    3    0    0  0.33631851782E+02  0.26785580867E+02 -0.21745439507E+02  0.48181366819E+02  0.10570000000E+00 0.  1.
         13    1    3    3    0    0 -0.33631851782E+02 -0.26785580867E+02  0.77699834876E+02  0.88802276485E+02  0.10570000000E+00 0. -1.
<mgrwt>
<rscale>  0 0.12503449E+03</rscale>
<asrwt>0</asrwt>
<pdfrwt beam="1">  1        3 0.14841388E-01 0.12503449E+03</pdfrwt>
<pdfrwt beam="2">  1       -3 0.62330191E-02 0.12503449E+03</pdfrwt>
<totfact> 0.13411911E+04</totfact>
</mgrwt>
</event>
<event>
 5    1  0.2989269E-047  0.1250006E+03  0.7818608E-02  0.1235068E+00
         -3   -1    0    0    0  501 -0.00000000000E+00  0.00000000000E+00  0.12225149559E+02  0.12225503292E+02  0.93000000000E-01 0.  1.
          3   -1    0    0  501    0  0.00000000000E+00 -0.00000000000E+00 -0.31952404107E+03  0.31952405460E+03  0.93000000000E-01 0. -1.
         25    2    1    2    0    0  0.00000000000E+00  0.00000000000E+00 -0.30729889151E+03  0.33174955789E+03  0.12500064176E+03 0.  0.
        -13    1    3    3    0    0 -0.36410040268E+02 -0.50798372348E+02 -0.15454266846E+03  0.16670216919E+03  0.10570000000E+00 0. -1.
         13    1    3    3    0    0  0.36410040268E+02  0.50798372348E+02 -0.15275622305E+03  0.16504738870E+03  0.10570000000E+00 0.  1.
<mgrwt>
<rscale>  0 0.12500064E+03</rscale>
<asrwt>0</asrwt>
<pdfrwt beam="2">  1        3 0.49157567E-01 0.12500064E+03</pdfrwt>
<pdfrwt beam="1">  1       -3 0.18808207E-02 0.12500064E+03</pdfrwt>
<totfact> 0.96507149E+03</totfact>
</mgrwt>
</event>
<event>
 4    1  0.2989269E-047  0.1249204E+03  0.7818608E-02  0.1235194E+00
          3   -1    0    0  501    0  0.00000000000E+00  0.00000000000E+00  0.89027878808E+02  0.89027927383E+02  0.93000000000E-01 0. -1.
         -3   -1    0    0    0  501 -0.00000000000E+00 -0.00000000000E+00 -0.43820755162E+02  0.43820853848E+02  0.93000000000E-01 0.  1.
        -13    1    1    2    0    0  0.47204234602E+02 -0.29846927864E+02 -0.71391004494E+01  0.56303257410E+02  0.10570000000E+00 0.  1.
         13    1    1    2    0    0 -0.47204234602E+02  0.29846927864E+02  0.52346224096E+02  0.76545523820E+02  0.10570000000E+00 0. -1.
<mgrwt>
<rscale>  0 0.12492043E+03</rscale>
<asrwt>0</asrwt>
<pdfrwt beam="1">  1        3 0.13696608E-01 0.12492043E+03</pdfrwt>
<pdfrwt beam="2">  1       -3 0.67416660E-02 0.12492043E+03</pdfrwt>
<totfact> 0.13553495E+04</totfact>
</mgrwt>
</event>
<event>
 5    1  0.2989269E-047  0.1250003E+03  0.7818608E-02  0.1235069E+00
         -3   -1    0    0    0  501 -0.00000000000E+00  0.00000000000E+00  0.31644939105E+02  0.31645075762E+02  0.93000000000E-01 0.  1.
          3   -1    0    0  501    0  0.00000000000E+00 -0.00000000000E+00 -0.12344008816E+03  0.12344012319E+03  0.93000000000E-01 0. -1.
         25    2    1    2    0    0  0.00000000000E+00  0.00000000000E+00 -0.91795149052E+02  0.15508519895E+03  0.12500027818E+03 0.  0.
        -13    1    3    3    0    0 -0.55245305103E+02 -0.21982935771E+02 -0.22001603831E+02  0.63398540556E+02  0.10570000000E+00 0.  1.
         13    1    3    3    0    0  0.55245305103E+02  0.21982935771E+02 -0.69793545221E+02  0.91686658397E+02  0.10570000000E+00 0. -1.
<mgrwt>
<rscale>  0 0.12500028E+03</rscale>
<asrwt>0</asrwt>
<pdfrwt beam="2">  1        3 0.18990796E-01 0.12500028E+03</pdfrwt>
<pdfrwt beam="1">  1       -3 0.48684654E-02 0.12500028E+03</pdfrwt>
<totfact> 0.12971974E+04</totfact>
</mgrwt>
</event>
<event>
 5    1  0.2989269E-047  0.1249980E+03  0.7818608E-02  0.1235072E+00
         -3   -1    0    0    0  501 -0.00000000000E+00  0.00000000000E+00  0.16587950513E+02  0.16588211212E+02  0.93000000000E-01 0. -1.
          3   -1    0    0  501    0  0.00000000000E+00 -0.00000000000E+00 -0.23547759642E+03  0.23547761478E+03  0.93000000000E-01 0.  1.
         25    2    1    2    0    0  0.00000000000E+00  0.00000000000E+00 -0.21888964590E+03  0.25206582599E+03  0.12499801418E+03 0.  0.
        -13    1    3    3    0    0  0.51497946150E+02 -0.20973854423E+02 -0.51904885183E+02  0.76066216584E+02  0.10570000000E+00 0. -1.
         13    1    3    3    0    0 -0.51497946150E+02  0.20973854423E+02 -0.16698476072E+03  0.17599960941E+03  0.10570000000E+00 0.  1.
<mgrwt>
<rscale>  0 0.12499801E+03</rscale>
<asrwt>0</asrwt>
<pdfrwt beam="2">  1        3 0.36227342E-01 0.12499801E+03</pdfrwt>
<pdfrwt beam="1">  1       -3 0.25520140E-02 0.12499801E+03</pdfrwt>
<totfact> 0.10949660E+04</totfact>
</mgrwt>
</event>
<event>
 5    1  0.2989269E-047  0.1250006E+03  0.7818608E-02  0.1235068E+00
         -3   -1    0    0    0  501 -0.00000000000E+00  0.00000000000E+00  0.32633544317E+02  0.32633676834E+02  0.93000000000E-01 0.  1.
          3   -1    0    0  501    0  0.00000000000E+00 -0.00000000000E+00 -0.11970129636E+03  0.11970133249E+03  0.93000000000E-01 0. -1.
         25    2    1    2    0    0  0.00000000000E+00  0.00000000000E+00 -0.87067752041E+02  0.15233500932E+03  0.12500064647E+03 0.  0.
        -13    1    3    3    0    0  0.42373864064E+02 -0.28029252305E+02  0.82812404720E+00  0.50812206234E+02  0.10570000000E+00 0.  1.
         13    1    3    3    0    0 -0.42373864064E+02  0.28029252305E+02 -0.87895876089E+02  0.10152280309E+03  0.10570000000E+00 0. -1.
<mgrwt>
<rscale>  0 0.12500065E+03</rscale>
<asrwt>0</asrwt>
<pdfrwt beam="2">  1        3 0.18415597E-01 0.12500065E+03</pdfrwt>
<pdfrwt beam="1">  1       -3 0.50205583E-02 0.12500065E+03</pdfrwt>
<totfact> 0.13038498E+04</totfact>
</mgrwt>
</event>
<event>
 5    1  0.2989269E-047  0.1250018E+03  0.7818608E-02  0.1235067E+00
         -3   -1    0    0    0  501 -0.00000000000E+00  0.00000000000E+00  0.45983125091E+02  0.45983219137E+02  0.93000000000E-01 0.  1.
          3   -1    0    0  501    0  0.00000000000E+00 -0.00000000000E+00 -0.84951827229E+02  0.84951878134E+02  0.93000000000E-01 0. -1.
         25    2    1    2    0    0  0.00000000000E+00  0.00000000000E+00 -0.38968702137E+02  0.13093509727E+03  0.12500175979E+03 0.  0.
        -13    1    3    3    0    0 -0.31707749945E+02  0.29303952170E+02  0.27851910211E+02  0.51379403405E+02  0.10570000000E+00 0.  1.
         13    1    3    3    0    0  0.31707749945E+02 -0.29303952170E+02 -0.66820612348E+02  0.79555693865E+02  0.10570000000E+00 0. -1.
<mgrwt>
<rscale>  0 0.12500176E+03</rscale>
<asrwt>0</asrwt>
<pdfrwt beam="2">  1        3 0.13069523E-01 0.12500176E+03</pdfrwt>
<pdfrwt beam="1">  1       -3 0.70743381E-02 0.12500176E+03</pdfrwt>
<totfact> 0.13578709E+04</totfact>
</mgrwt>
</event>
<event>
 5    1  0.2989269E-047  0.1249996E+03  0.7818608E-02  0.1235070E+00
         -3   -1    0    0    0  501 -0.00000000000E+00  0.00000000000E+00  0.18794323050E+03  0.18794325350E+03  0.93000000000E-01 0.  1.
          3   -1    0    0  501    0  0.00000000000E+00 -0.00000000000E+00 -0.20783948536E+02  0.20784156604E+02  0.93000000000E-01 0. -1.
         25    2    1    2    0    0  0.00000000000E+00  0.00000000000E+00  0.16715928196E+03  0.20872741011E+03  0.12499962474E+03 0.  0.
        -13    1    3    3    0    0 -0.93921603123E+01 -0.27598633109E+02  0.17589416938E+03  0.17829376663E+03  0.10570000000E+00 0.  1.
         13    1    3    3    0    0  0.93921603123E+01  0.27598633109E+02 -0.87348874190E+01  0.30433643481E+02  0.10570000000E+00 0. -1.
<mgrwt>
<rscale>  0 0.12499962E+03</rscale>
<asrwt>0</asrwt>
<pdfrwt beam="2">  1        3 0.31975482E-02 0.12499962E+03</pdfrwt>
<pdfrwt beam="1">  1       -3 0.28914362E-01 0.12499962E+03</pdfrwt>
<totfact> 0.11780763E+04</totfact>
</mgrwt>
</event>
<event>
 5    1  0.2989269E-047  0.1250035E+03  0.7818608E-02  0.1235064E+00
          3   -1    0    0  501    0  0.00000000000E+00  0.00000000000E+00  0.19230799818E+02  0.19231024690E+02  0.93000000000E-01 0. -1.
         -3   -1    0    0    0  501 -0.00000000000E+00 -0.00000000000E+00 -0.20313466765E+03  0.20313468894E+03  0.93000000000E-01 0.  1.
         25    2    1    2    0    0  0.00000000000E+00  0.00000000000E+00 -0.18390386783E+03  0.22236571363E+03  0.12500351193E+03 0.  0.
        -13    1    3    3    0    0  0.10976711933E+02  0.61391979889E+02 -0.84618535937E+02  0.10511789189E+03  0.10570000000E+00 0.  1.
         13    1    3    3    0    0 -0.10976711933E+02 -0.61391979889E+02 -0.99285331893E+02  0.11724782173E+03  0.10570000000E+00 0. -1.
<mgrwt>
<rscale>  0 0.12500351E+03</rscale>
<asrwt>0</asrwt>
<pdfrwt beam="1">  1        3 0.29586037E-02 0.12500351E+03</pdfrwt>
<pdfrwt beam="2">  1       -3 0.31251505E-01 0.12500351E+03</pdfrwt>
<totfact> 0.11506323E+04</totfact>
</mgrwt>
</event>
<event>
 5    1  0.2989269E-047  0.1249855E+03  0.7818608E-02  0.1235092E+00
         -3   -1    0    0    0  501 -0.00000000000E+00  0.00000000000E+00  0.28896133332E+02  0.28896282988E+02  0.93000000000E-01 0.  1.
          3   -1    0    0  501    0  0.00000000000E+00 -0.00000000000E+00 -0.13515057029E+03  0.13515060228E+03  0.93000000000E-01 0. -1.
         25    2    1    2    0    0  0.00000000000E+00  0.00000000000E+00 -0.10625443695E+03  0.16404688527E+03  0.12498549994E+03 0.  0.
        -13    1    3    3    0    0  0.48782675803E+02 -0.38875528243E+02 -0.48167936528E+02  0.78811277344E+02  0.10570000000E+00 0.  1.
         13    1    3    3    0    0 -0.48782675803E+02  0.38875528243E+02 -0.58086500426E+02  0.85235607928E+02  0.10570000000E+00 0. -1.
<mgrwt>
<rscale>  0 0.12498550E+03</rscale>
<asrwt>0</asrwt>
<pdfrwt beam="2">  1        3 0.20792409E-01 0.12498550E+03</pdfrwt>
<pdfrwt beam="1">  1       -3 0.44455730E-02 0.12498550E+03</pdfrwt>
<totfact> 0.12762958E+04</totfact>
</mgrwt>
</event>
<event>
 5    1  0.2989269E-047  0.1249941E+03  0.7818608E-02  0.1235079E+00
          3   -1    0    0  501    0  0.00000000000E+00  0.00000000000E+00  0.35220398568E+02  0.35220521352E+02  0.93000000000E-01 0. -1.
         -3   -1    0    0    0  501 -0.00000000000E+00 -0.00000000000E+00 -0.11089786045E+03  0.11089789944E+03  0.93000000000E-01 0.  1.
         25    2    1    2    0    0  0.00000000000E+00  0.00000000000E+00 -0.75677461878E+02  0.14611842079E+03  0.12499405849E+03 0.  0.
        -13    1    3    3    0    0 -0.27972776388E+02  0.33780886818E+02  0.14208070175E+02  0.46103199061E+02  0.10570000000E+00 0. -1.
         13    1    3    3    0    0  0.27972776388E+02 -0.33780886818E+02 -0.89885532053E+02  0.10001522173E+03  0.10570000000E+00 0.  1.
<mgrwt>
<rscale>  0 0.12499406E+03</rscale>
<asrwt>0</asrwt>
<pdfrwt beam="1">  1        3 0.54185354E-02 0.12499406E+03</pdfrwt>
<pdfrwt beam="2">  1       -3 0.17061222E-01 0.12499406E+03</pdfrwt>
<totfact> 0.13193385E+04</totfact>
</mgrwt>
</event>
<event>
 5    1  0.2989269E-047  0.1249968E+03  0.7818608E-02  0.1235074E+00
         -3   -1    0    0    0  501 -0.00000000000E+00  0.00000000000E+00  0.13014914968E+02  0.13015247236E+02  0.93000000000E-01 0.  1.
          3   -1    0    0  501    0  0.00000000000E+00 -0.00000000000E+00 -0.30011700779E+03  0.30011702220E+03  0.93000000000E-01 0. -1.
         25    2    1    2    0    0  0.00000000000E+00  0.00000000000E+00 -0.28710209283E+03  0.31313226944E+03  0.12499682580E+03 0.  0.
        -13    1    3    3    0    0 -0.72497692884E+01  0.61119290669E+02 -0.11634842342E+03  0.13162482156E+03  0.10570000000E+00 0.  1.
         13    1    3    3    0    0  0.72497692884E+01 -0.61119290669E+02 -0.17075366940E+03  0.18150744788E+03  0.10570000000E+00 0. -1.
<mgrwt>
<rscale>  0 0.12499683E+03</rscale>
<asrwt>0</asrwt>
<pdfrwt beam="2">  1        3 0.46171869E-01 0.12499683E+03</pdfrwt>
<pdfrwt beam="1">  1       -3 0.20023215E-02 0.12499683E+03</pdfrwt>
<totfact> 0.99317850E+03</totfact>
</mgrwt>
</event>
<event>
 5    1  0.2989269E-047  0.1249990E+03  0.7818608E-02  0.1235071E+00
          3   -1    0    0  501    0  0.00000000000E+00  0.00000000000E+00  0.19355441927E+02  0.19355665351E+02  0.93000000000E-01 0. -1.
         -3   -1    0    0    0  501 -0.00000000000E+00 -0.00000000000E+00 -0.20181215193E+03  0.20181217335E+03  0.93000000000E-01 0.  1.
         25    2    1    2    0    0  0.00000000000E+00  0.00000000000E+00 -0.18245671000E+03  0.22116783871E+03  0.12499904741E+03 0.  0.
        -13    1    3    3    0    0 -0.35134646019E+02 -0.47877433251E+02 -0.12569618230E+03  0.13901882384E+03  0.10570000000E+00 0.  1.
         13    1    3    3    0    0  0.35134646019E+02  0.47877433251E+02 -0.56760527699E+02  0.82149014862E+02  0.10570000000E+00 0. -1.
<mgrwt>
<rscale>  0 0.12499905E+03</rscale>
<asrwt>0</asrwt>
<pdfrwt beam="1">  1        3 0.29777793E-02 0.12499905E+03</pdfrwt>
<pdfrwt beam="2">  1       -3 0.31048041E-01 0.12499905E+03</pdfrwt>
<totfact> 0.11531055E+04</totfact>
</mgrwt>
</event>
<event>
 5    1  0.2989269E-047  0.1250005E+03  0.7818608E-02  0.1235068E+00
         -3   -1    0    0    0  501 -0.00000000000E+00  0.00000000000E+00  0.92555442849E+02  0.92555489572E+02  0.93000000000E-01 0.  1.
          3   -1    0    0  501    0  0.00000000000E+00 -0.00000000000E+00 -0.42204679315E+02  0.42204781780E+02  0.93000000000E-01 0. -1.
         25    2    1    2    0    0  0.00000000000E+00  0.00000000000E+00  0.50350763534E+02  0.13476027135E+03  0.12500052538E+03 0.  0.
        -13    1    3    3    0    0  0.77209631191E+01 -0.47323941335E+02  0.68394100755E+02  0.83528036523E+02  0.10570000000E+00 0.  1.
         13    1    3    3    0    0 -0.77209631191E+01  0.47323941335E+02 -0.18043337221E+02  0.51232234828E+02  0.10570000000E+00 0. -1.
<mgrwt>
<rscale>  0 0.12500053E+03</rscale>
<asrwt>0</asrwt>
<pdfrwt beam="2">  1        3 0.64930392E-02 0.12500053E+03</pdfrwt>
<pdfrwt beam="1">  1       -3 0.14239310E-01 0.12500053E+03</pdfrwt>
<totfact> 0.13479614E+04</totfact>
</mgrwt>
</event>
<event>
 5    1  0.2989269E-047  0.1250016E+03  0.7818608E-02  0.1235067E+00
          3   -1    0    0  501    0  0.00000000000E+00  0.00000000000E+00  0.62458926895E+03  0.62458927587E+03  0.93000000000E-01 0. -1.
         -3   -1    0    0    0  501 -0.00000000000E+00 -0.00000000000E+00 -0.62539161793E+01  0.62546076278E+01  0.93000000000E-01 0.  1.
         25    2    1    2    0    0  0.00000000000E+00  0.00000000000E+00  0.61833535277E+03  0.63084388350E+03  0.12500158745E+03 0.  0.
        -13    1    3    3    0    0 -0.52535406355E+02 -0.32141829717E+02  0.25545615286E+03  0.26277542379E+03  0.10570000000E+00 0. -1.
         13    1    3    3    0    0  0.52535406355E+02  0.32141829717E+02  0.36287919991E+03  0.36806845971E+03  0.10570000000E+00 0.  1.
<mgrwt>
<rscale>  0 0.12500159E+03</rscale>
<asrwt>0</asrwt>
<pdfrwt beam="1">  1        3 0.96090715E-01 0.12500159E+03</pdfrwt>
<pdfrwt beam="2">  1       -3 0.96219462E-03 0.12500159E+03</pdfrwt>
<totfact> 0.64344903E+03</totfact>
</mgrwt>
</event>
<event>
 5    1  0.2989269E-047  0.1249979E+03  0.7818608E-02  0.1235073E+00
         -3   -1    0    0    0  501 -0.00000000000E+00  0.00000000000E+00  0.33739441126E+03  0.33739442408E+03  0.93000000000E-01 0.  1.
          3   -1    0    0  501    0  0.00000000000E+00 -0.00000000000E+00 -0.11577101253E+02  0.11577474786E+02  0.93000000000E-01 0. -1.
         25    2    1    2    0    0  0.00000000000E+00  0.00000000000E+00  0.32581731001E+03  0.34897189886E+03  0.12499786677E+03 0.  0.
        -13    1    3    3    0    0 -0.37428719756E+02  0.49861977105E+02  0.15074589109E+03  0.16313019547E+03  0.10570000000E+00 0.  1.
         13    1    3    3    0    0  0.37428719756E+02 -0.49861977105E+02  0.17507141892E+03  0.18584170339E+03  0.10570000000E+00 0. -1.
<mgrwt>
<rscale>  0 0.12499787E+03</rscale>
<asrwt>0</asrwt>
<pdfrwt beam="2">  1        3 0.17811222E-02 0.12499787E+03</pdfrwt>
<pdfrwt beam="1">  1       -3 0.51906864E-01 0.12499787E+03</pdfrwt>
<totfact> 0.93984392E+03</totfact>
</mgrwt>
</event>
<event>
 4    1  0.2989269E-047  0.1249471E+03  0.7818608E-02  0.1235152E+00
          3   -1    0    0  501    0  0.00000000000E+00  0.00000000000E+00  0.36265330465E+02  0.36265449711E+02  0.93000000000E-01 0. -1.
         -3   -1    0    0    0  501 -0.00000000000E+00 -0.00000000000E+00 -0.10762160757E+03  0.10762164775E+03  0.93000000000E-01 0.  1.
        -13    1    1    2    0    0  0.28611225564E+02 -0.24566336603E+02 -0.93036117876E+02  0.10038843322E+03  0.10570000000E+00 0.  1.
         13    1    1    2    0    0 -0.28611225564E+02  0.24566336603E+02  0.21679840773E+02  0.43498664241E+02  0.10570000000E+00 0. -1.
<mgrwt>
<rscale>  0 0.12494710E+03</rscale>
<asrwt>0</asrwt>
<pdfrwt beam="1">  1        3 0.55792939E-02 0.12494710E+03</pdfrwt>
<pdfrwt beam="2">  1       -3 0.16557183E-01 0.12494710E+03</pdfrwt>
<totfact> 0.13263112E+04</totfact>
</mgrwt>
</event>
<event>
 5    1  0.2989269E-047  0.1249990E+03  0.7818608E-02  0.1235071E+00
         -3   -1    0    0    0  501 -0.00000000000E+00  0.00000000000E+00  0.13616870444E+03  0.13616873620E+03  0.93000000000E-01 0.  1.
          3   -1    0    0  501    0  0.00000000000E+00 -0.00000000000E+00 -0.28686271063E+02  0.28686421814E+02  0.93000000000E-01 0. -1.
         25    2    1    2    0    0  0.00000000000E+00  0.00000000000E+00  0.10748243338E+03  0.16485515801E+03  0.12499899855E+03 0.  0.
        -13    1    3    3    0    0  0.12666787706E+02  0.46644362403E+02  0.10599891577E+03  0.11649860673E+03  0.10570000000E+00 0.  1.
         13    1    3    3    0    0 -0.12666787706E+02 -0.46644362403E+02  0.14835176132E+01  0.48356551281E+02  0.10570000000E+00 0. -1.
<mgrwt>
<rscale>  0 0.12499900E+03</rscale>
<asrwt>0</asrwt>
<pdfrwt beam="2">  1        3 0.44132865E-02 0.12499900E+03</pdfrwt>
<pdfrwt beam="1">  1       -3 0.20949046E-01 0.12499900E+03</pdfrwt>
<totfact> 0.12740108E+04</totfact>
</mgrwt>
</event>
<event>
 5    1  0.2989269E-047  0.1250001E+03  0.7818608E-02  0.1235069E+00
         -3   -1    0    0    0  501 -0.00000000000E+00  0.00000000000E+00  0.45137473830E+02  0.45137569637E+02  0.93000000000E-01 0.  1.
          3   -1    0    0  501    0  0.00000000000E+00 -0.00000000000E+00 -0.86541082303E+02  0.86541132274E+02  0.93000000000E-01 0. -1.
         25    2    1    2    0    0  0.00000000000E+00  0.00000000000E+00 -0.41403608473E+02  0.13167870191E+03  0.12500008697E+03 0.  0.
        -13    1    3    3    0    0 -0.36061406503E+01  0.58238134032E+02  0.28902937399E+01  0.58421310122E+02  0.10570000000E+00 0.  1.
         13    1    3    3    0    0  0.36061406503E+01 -0.58238134032E+02 -0.44293902213E+02  0.73257391789E+02  0.10570000000E+00 0. -1.
<mgrwt>
<rscale>  0 0.12500009E+03</rscale>
<asrwt>0</asrwt>
<pdfrwt beam="2">  1        3 0.13314024E-01 0.12500009E+03</pdfrwt>
<pdfrwt beam="1">  1       -3 0.69442380E-02 0.12500009E+03</pdfrwt>
<totfact> 0.13559721E+04</totfact>
</mgrwt>
</event>
<event>
 5    1  0.2989269E-047  0.1249996E+03  0.7818608E-02  0.1235070E+00
          3   -1    0    0  501    0  0.00000000000E+00  0.00000000000E+00  0.47039827088E+02  0.47039919020E+02  0.93000000000E-01 0. -1.
         -3   -1    0    0    0  501 -0.00000000000E+00 -0.00000000000E+00 -0.83040610592E+02  0.83040662669E+02  0.93000000000E-01 0.  1.
         25    2    1    2    0    0  0.00000000000E+00  0.00000000000E+00 -0.36000783504E+02  0.13008058169E+03  0.12499960528E+03 0.  0.
        -13    1    3    3    0    0  0.44604607677E+02 -0.29818388622E+02 -0.51358098598E+02  0.74272288171E+02  0.10570000000E+00 0.  1.
         13    1    3    3    0    0 -0.44604607677E+02  0.29818388622E+02  0.15357315094E+02  0.55808293518E+02  0.10570000000E+00 0. -1.
<mgrwt>
<rscale>  0 0.12499961E+03</rscale>
<asrwt>0</asrwt>
<pdfrwt beam="1">  1        3 0.72369075E-02 0.12499961E+03</pdfrwt>
<pdfrwt beam="2">  1       -3 0.12775490E-01 0.12499961E+03</pdfrwt>
<totfact> 0.13601946E+04</totfact>
</mgrwt>
</event>
<event>
 5    1  0.2989269E-047  0.1249991E+03  0.7818608E-02  0.1235071E+00
         -3   -1    0    0    0  501 -0.00000000000E+00  0.00000000000E+00  0.92434667292E+01  0.92439345613E+01  0.93000000000E-01 0.  1.
          3   -1    0    0  501    0  0.00000000000E+00 -0.00000000000E+00 -0.42257866338E+03  0.42257867361E+03  0.93000000000E-01 0. -1.
         25    2    1    2    0    0  0.00000000000E+00  0.00000000000E+00 -0.41333519665E+03  0.43182260817E+03  0.12499912056E+03 0.  0.
        -13    1    3    3    0    0 -0.56998892279E+02 -0.25230390039E+02 -0.19093584067E+03  0.20085306253E+03  0.10570000000E+00 0.  1.
         13    1    3    3    0    0  0.56998892279E+02  0.25230390039E+02 -0.22239935598E+03  0.23096954565E+03  0.10570000000E+00 0. -1.
<mgrwt>
<rscale>  0 0.12499912E+03</rscale>
<asrwt>0</asrwt>
<pdfrwt beam="2">  1        3 0.65012124E-01 0.12499912E+03</pdfrwt>
<pdfrwt beam="1">  1       -3 0.14221089E-02 0.12499912E+03</pdfrwt>
<totfact> 0.83396507E+03</totfact>
</mgrwt>
</event>
<event>
 5    1  0.2989269E-047  0.1250005E+03  0.7818608E-02  0.1235069E+00
         -3   -1    0    0    0  501 -0.00000000000E+00  0.00000000000E+00  0.29670525823E+02  0.29670671573E+02  0.93000000000E-01 0.  1.
          3   -1    0    0  501    0  0.00000000000E+00 -0.00000000000E+00 -0.13165473071E+03  0.13165476356E+03  0.93000000000E-01 0. -1.
         25    2    1    2    0    0  0.00000000000E+00  0.00000000000E+00 -0.10198420489E+03  0.16132543513E+03  0.12500047189E+03 0.  0.
        -13    1    3    3    0    0  0.23804602569E+00  0.60702812842E+02 -0.70194725157E+02  0.92801932982E+02  0.10570000000E+00 0. -1.
         13    1    3    3    0    0 -0.23804602569E+00 -0.60702812842E+02 -0.31789479733E+02  0.68523502151E+02  0.10570000000E+00 0.  1.
<mgrwt>
<rscale>  0 0.12500047E+03</rscale>
<asrwt>0</asrwt>
<pdfrwt beam="2">  1        3 0.20254587E-01 0.12500047E+03</pdfrwt>
<pdfrwt beam="1">  1       -3 0.45647101E-02 0.12500047E+03</pdfrwt>
<totfact> 0.12822741E+04</totfact>
</mgrwt>
</event>
<event>
 5    1  0.2989269E-047  0.1249971E+03  0.7818608E-02  0.1235074E+00
          3   -1    0    0  501    0  0.00000000000E+00  0.00000000000E+00  0.26571366175E+02  0.26571528925E+02  0.93000000000E-01 0. -1.
         -3   -1    0    0    0  501 -0.00000000000E+00 -0.00000000000E+00 -0.14700223631E+03  0.14700226573E+03  0.93000000000E-01 0.  1.
         25    2    1    2    0    0  0.00000000000E+00  0.00000000000E+00 -0.12043087013E+03  0.17357379465E+03  0.12499707080E+03 0.  0.
        -13    1    3    3    0    0  0.23491814308E+02 -0.57210367417E+02 -0.72725707848E+02  0.95466911723E+02  0.10570000000E+00 0.  1.
         13    1    3    3    0    0 -0.23491814308E+02  0.57210367417E+02 -0.47705162285E+02  0.78106882927E+02  0.10570000000E+00 0. -1.
<mgrwt>
<rscale>  0 0.12499707E+03</rscale>
<asrwt>0</asrwt>
<pdfrwt beam="1">  1        3 0.40879174E-02 0.12499707E+03</pdfrwt>
<pdfrwt beam="2">  1       -3 0.22615743E-01 0.12499707E+03</pdfrwt>
<totfact> 0.12539451E+04</totfact>
</mgrwt>
</event>
<event>
 5    1  0.2989269E-047  0.1249995E+03  0.7818608E-02  0.1235070E+00
          3   -1    0    0  501    0  0.00000000000E+00  0.00000000000E+00  0.10431411067E+03  0.10431415212E+03  0.93000000000E-01 0. -1.
         -3   -1    0    0    0  501 -0.00000000000E+00 -0.00000000000E+00 -0.37446614905E+02  0.37446730389E+02  0.93000000000E-01 0.  1.
         25    2    1    2    0    0  0.00000000000E+00  0.00000000000E+00  0.66867495761E+02  0.14176088251E+03  0.12499954328E+03 0.  0.
        -13    1    3    3    0    0 -0.26907764490E+02 -0.56147980750E+02  0.27265005729E+02  0.67970693995E+02  0.10570000000E+00 0.  1.
         13    1    3    3    0    0  0.26907764490E+02  0.56147980750E+02  0.39602490032E+02  0.73790188518E+02  0.10570000000E+00 0. -1.
<mgrwt>
<rscale>  0 0.12499954E+03</rscale>
<asrwt>0</asrwt>
<pdfrwt beam="1">  1        3 0.16048337E-01 0.12499954E+03</pdfrwt>
<pdfrwt beam="2">  1       -3 0.57610298E-02 0.12499954E+03</pdfrwt>
<totfact> 0.13300769E+04</totfact>
</mgrwt>
</event>
<event>
 5    1  0.2989269E-047  0.1250007E+03  0.7818608E-02  0.1235068E+00
          3   -1    0    0  501    0  0.00000000000E+00  0.00000000000E+00  0.63041462003E+02  0.63041530600E+02  0.93000000000E-01 0. -1.
         -3   -1    0    0    0  501 -0.00000000000E+00 -0.00000000000E+00 -0.61963742717E+02  0.61963812508E+02  0.93000000000E-01 0.  1.
         25    2    1    2    0    0  0.00000000000E+00  0.00000000000E+00  0.10777192854E+01  0.12500534311E+03  0.12500069731E+03 0.  0.
        -13    1    3    3    0    0 -0.32822735393E+02  0.53184312919E+02 -0.77044601614E-01  0.62497361606E+02  0.10570000000E+00 0.  1.
         13    1    3    3    0    0  0.32822735393E+02 -0.53184312919E+02  0.11547638870E+01  0.62507981502E+02  0.10570000000E+00 0. -1.
<mgrwt>
<rscale>  0 0.12500070E+03</rscale>
<asrwt>0</asrwt>
<pdfrwt beam="1">  1        3 0.96986971E-02 0.12500070E+03</pdfrwt>
<pdfrwt beam="2">  1       -3 0.95328942E-02 0.12500070E+03</pdfrwt>
<totfact> 0.13736060E+04</totfact>
</mgrwt>
</event>
<event>
 5    1  0.2989269E-047  0.1250003E+03  0.7818608E-02  0.1235069E+00
          3   -1    0    0  501    0  0.00000000000E+00  0.00000000000E+00  0.19729726785E+02  0.19729945971E+02  0.93000000000E-01 0. -1.
         -3   -1    0    0    0  501 -0.00000000000E+00 -0.00000000000E+00 -0.19798767821E+03  0.19798770005E+03  0.93000000000E-01 0.  1.
         25    2    1    2    0    0  0.00000000000E+00  0.00000000000E+00 -0.17825795142E+03  0.21771764602E+03  0.12500030458E+03 0.  0.
        -13    1    3    3    0    0 -0.48859816529E+02 -0.97135653629E+01 -0.23388550275E+02  0.55033357882E+02  0.10570000000E+00 0. -1.
         13    1    3    3    0    0  0.48859816529E+02  0.97135653629E+01 -0.15486940115E+03  0.16268428814E+03  0.10570000000E+00 0.  1.
<mgrwt>
<rscale>  0 0.12500030E+03</rscale>
<asrwt>0</asrwt>
<pdfrwt beam="1">  1        3 0.30353612E-02 0.12500030E+03</pdfrwt>
<pdfrwt beam="2">  1       -3 0.30459660E-01 0.12500030E+03</pdfrwt>
<totfact> 0.11599113E+04</totfact>
</mgrwt>
</event>
<event>
 5    1  0.2989269E-047  0.1250001E+03  0.7818608E-02  0.1235069E+00
          3   -1    0    0  501    0  0.00000000000E+00  0.00000000000E+00  0.13998507820E+02  0.13998816742E+02  0.93000000000E-01 0. -1.
         -3   -1    0    0    0  501 -0.00000000000E+00 -0.00000000000E+00 -0.27904448713E+03  0.27904450262E+03  0.93000000000E-01 0.  1.
         25    2    1    2    0    0  0.00000000000E+00  0.00000000000E+00 -0.26504597931E+03  0.29304331937E+03  0.12500006352E+03 0.  0.
        -13    1    3    3    0    0 -0.29872667353E+02 -0.30501648261E+02 -0.25514062275E+02  0.49736358408E+02  0.10570000000E+00 0.  1.
         13    1    3    3    0    0  0.29872667353E+02  0.30501648261E+02 -0.23953191703E+03  0.24330696096E+03  0.10570000000E+00 0. -1.
<mgrwt>
<rscale>  0 0.12500006E+03</rscale>
<asrwt>0</asrwt>
<pdfrwt beam="1">  1        3 0.21536417E-02 0.12500006E+03</pdfrwt>
<pdfrwt beam="2">  1       -3 0.42929942E-01 0.12500006E+03</pdfrwt>
<totfact> 0.10245175E+04</totfact>
</mgrwt>
</event>
<event>
 5    1  0.2989269E-047  0.1250012E+03  0.7818608E-02  0.1235067E+00
         -3   -1    0    0    0  501 -0.00000000000E+00  0.00000000000E+00  0.33735670866E+03  0.33735672148E+03  0.93000000000E-01 0.  1.
          3   -1    0    0  501    0  0.00000000000E+00 -0.00000000000E+00 -0.11579020473E+02  0.11579393944E+02  0.93000000000E-01 0. -1.
         25    2    1    2    0    0  0.00000000000E+00  0.00000000000E+00  0.32577768818E+03  0.34893611542E+03  0.12500124210E+03 0.  0.
        -13    1    3    3    0    0 -0.30400915713E+02 -0.54391436270E+02  0.17647051289E+03  0.18714832916E+03  0.10570000000E+00 0.  1.
         13    1    3    3    0    0  0.30400915713E+02  0.54391436270E+02  0.14930717529E+03  0.16178778626E+03  0.10570000000E+00 0. -1.
<mgrwt>
<rscale>  0 0.12500124E+03</rscale>
<asrwt>0</asrwt>
<pdfrwt beam="2">  1        3 0.17814174E-02 0.12500124E+03</pdfrwt>
<pdfrwt beam="1">  1       -3 0.51901064E-01 0.12500124E+03</pdfrwt>
<totfact> 0.93982396E+03</totfact>
</mgrwt>
</event>
<event>
 5    1  0.2989269E-047  0.1249997E+03  0.7818608E-02  0.1235070E+00
          3   -1    0    0  501    0  0.00000000000E+00  0.00000000000E+00  0.29418716807E+03  0.29418718277E+03  0.93000000000E-01 0. -1.
         -3   -1    0    0    0  501 -0.00000000000E+00 -0.00000000000E+00 -0.13277866873E+02  0.13278192562E+02  0.93000000000E-01 0.  1.
         25    2    1    2    0    0  0.00000000000E+00  0.00000000000E+00  0.28090930119E+03  0.30746537533E+03  0.12499968611E+03 0.  0.
        -13    1    3    3    0    0 -0.27078372226E+02  0.46787020495E+02  0.21761160238E+03  0.22422552083E+03  0.10570000000E+00 0.  1.
         13    1    3    3    0    0  0.27078372226E+02 -0.46787020495E+02  0.63297698817E+02  0.83239854500E+02  0.10570000000E+00 0. -1.
<mgrwt>
<rscale>  0 0.12499969E+03</rscale>
<asrwt>0</asrwt>
<pdfrwt beam="1">  1        3 0.45259586E-01 0.12499969E+03</pdfrwt>
<pdfrwt beam="2">  1       -3 0.20427751E-02 0.12499969E+03</pdfrwt>
<totfact> 0.10019028E+04</totfact>
</mgrwt>
</event>
<event>
 5    1  0.2989269E-047  0.1250022E+03  0.7818608E-02  0.1235066E+00
          3   -1    0    0  501    0  0.00000000000E+00  0.00000000000E+00  0.14697980116E+03  0.14697983058E+03  0.93000000000E-01 0. -1.
         -3   -1    0    0    0  501 -0.00000000000E+00 -0.00000000000E+00 -0.26577605337E+02  0.26577768049E+02  0.93000000000E-01 0.  1.
         25    2    1    2    0    0  0.00000000000E+00  0.00000000000E+00  0.12040219582E+03  0.17355759863E+03  0.12500220512E+03 0.  0.
        -13    1    3    3    0    0  0.28777920580E+02  0.28686544966E+02  0.12613779103E+03  0.13252109294E+03  0.10570000000E+00 0. -1.
         13    1    3    3    0    0 -0.28777920580E+02 -0.28686544966E+02 -0.57355952039E+01  0.41036505697E+02  0.10570000000E+00 0.  1.
<mgrwt>
<rscale>  0 0.12500221E+03</rscale>
<asrwt>0</asrwt>
<pdfrwt beam="1">  1        3 0.22612292E-01 0.12500221E+03</pdfrwt>
<pdfrwt beam="2">  1       -3 0.40888771E-02 0.12500221E+03</pdfrwt>
<totfact> 0.12538570E+04</totfact>
</mgrwt>
</event>
<event>
 5    1  0.2989269E-047  0.1249992E+03  0.7818608E-02  0.1235071E+00
         -3   -1    0    0    0  501 -0.00000000000E+00  0.00000000000E+00  0.25804789325E+02  0.25804956909E+02  0.93000000000E-01 0.  1.
          3   -1    0    0  501    0  0.00000000000E+00 -0.00000000000E+00 -0.15137424034E+03  0.15137426891E+03  0.93000000000E-01 0. -1.
         25    2    1    2    0    0  0.00000000000E+00  0.00000000000E+00 -0.12556945102E+03  0.17717922582E+03  0.12499916413E+03 0.  0.
        -13    1    3    3    0    0  0.56998781910E+02 -0.23984408408E+01 -0.26603172277E+02  0.62947228735E+02  0.10570000000E+00 0.  1.
         13    1    3    3    0    0 -0.56998781910E+02  0.23984408408E+01 -0.98966278739E+02  0.11423199708E+03  0.10570000000E+00 0. -1.
<mgrwt>
<rscale>  0 0.12499916E+03</rscale>
<asrwt>0</asrwt>
<pdfrwt beam="2">  1        3 0.23288359E-01 0.12499916E+03</pdfrwt>
<pdfrwt beam="1">  1       -3 0.39699828E-02 0.12499916E+03</pdfrwt>
<totfact> 0.12457509E+04</totfact>
</mgrwt>
</event>
<event>
 5    1  0.2989269E-047  0.1250001E+03  0.7818608E-02  0.1235069E+00
         -3   -1    0    0    0  501 -0.00000000000E+00  0.00000000000E+00  0.20068434640E+02  0.20068650127E+02  0.93000000000E-01 0.  1.
          3   -1    0    0  501    0  0.00000000000E+00 -0.00000000000E+00 -0.19464543930E+03  0.19464546152E+03  0.93000000000E-01 0. -1.
         25    2    1    2    0    0  0.00000000000E+00  0.00000000000E+00 -0.17457700466E+03  0.21471411164E+03  0.12500007673E+03 0.  0.
        -13    1    3    3    0    0  0.45677702079E+01  0.31184789344E+02  0.54184283931E+01  0.31980089898E+02  0.10570000000E+00 0.  1.
         13    1    3    3    0    0 -0.45677702079E+01 -0.31184789344E+02 -0.17999543305E+03  0.18273402175E+03  0.10570000000E+00 0. -1.
<mgrwt>
<rscale>  0 0.12500008E+03</rscale>
<asrwt>0</asrwt>
<pdfrwt beam="2">  1        3 0.29945469E-01 0.12500008E+03</pdfrwt>
<pdfrwt beam="1">  1       -3 0.30874699E-02 0.12500008E+03</pdfrwt>
<totfact> 0.11660330E+04</totfact>
</mgrwt>
</event>
<event>
 5    1  0.2989269E-047  0.1250000E+03  0.7818608E-02  0.1235069E+00
          3   -1    0    0  501    0  0.00000000000E+00  0.00000000000E+00  0.23040610874E+02  0.23040798563E+02  0.93000000000E-01 0. -1.
         -3   -1    0    0    0  501 -0.00000000000E+00 -0.00000000000E+00 -0.16953663735E+03  0.16953666286E+03  0.93000000000E-01 0.  1.
         25    2    1    2    0    0  0.00000000000E+00  0.00000000000E+00 -0.14649602647E+03  0.19257746142E+03  0.12499997150E+03 0.  0.
        -13    1    3    3    0    0 -0.48362788517E+02  0.38187438869E+02 -0.89332355461E+02  0.10852428625E+03  0.10570000000E+00 0.  1.
         13    1    3    3    0    0  0.48362788517E+02 -0.38187438869E+02 -0.57163671013E+02  0.84053175173E+02  0.10570000000E+00 0. -1.
<mgrwt>
<rscale>  0 0.12499997E+03</rscale>
<asrwt>0</asrwt>
<pdfrwt beam="1">  1        3 0.35447259E-02 0.12499997E+03</pdfrwt>
<pdfrwt beam="2">  1       -3 0.26082575E-01 0.12499997E+03</pdfrwt>
<totfact> 0.12118883E+04</totfact>
</mgrwt>
</event>
<event>
 5    1  0.2989269E-047  0.1249992E+03  0.7818608E-02  0.1235071E+00
          3   -1    0    0  501    0  0.00000000000E+00  0.00000000000E+00  0.26098700631E+02  0.26098866329E+02  0.93000000000E-01 0. -1.
         -3   -1    0    0    0  501 -0.00000000000E+00 -0.00000000000E+00 -0.14966951628E+03  0.14966954517E+03  0.93000000000E-01 0.  1.
         25    2    1    2    0    0  0.00000000000E+00  0.00000000000E+00 -0.12357081565E+03  0.17576841150E+03  0.12499915201E+03 0.  0.
        -13    1    3    3    0    0 -0.93748672470E+01  0.45623208585E+02 -0.12038724523E+03  0.12908317197E+03  0.10570000000E+00 0.  1.
         13    1    3    3    0    0  0.93748672470E+01 -0.45623208585E+02 -0.31835704159E+01  0.46685239537E+02  0.10570000000E+00 0. -1.
<mgrwt>
<rscale>  0 0.12499915E+03</rscale>
<asrwt>0</asrwt>
<pdfrwt beam="1">  1        3 0.40151998E-02 0.12499915E+03</pdfrwt>
<pdfrwt beam="2">  1       -3 0.23026094E-01 0.12499915E+03</pdfrwt>
<totfact> 0.12489074E+04</totfact>
</mgrwt>
</event>
<event>
 5    1  0.2989269E-047  0.1250005E+03  0.7818608E-02  0.1235069E+00
          3   -1    0    0  501    0  0.00000000000E+00  0.00000000000E+00  0.10954772917E+02  0.10955167669E+02  0.93000000000E-01 0. -1.
         -3   -1    0    0    0  501 -0.00000000000E+00 -0.00000000000E+00 -0.35657551657E+03  0.35657552869E+03  0.93000000000E-01 0.  1.
         25    2    1    2    0    0  0.00000000000E+00  0.00000000000E+00 -0.34562074365E+03  0.36753069636E+03  0.12500045731E+03 0.  0.
        -13    1    3    3    0    0  0.20998879111E+02  0.48267482288E+02 -0.73729927436E+02  0.90591479414E+02  0.10570000000E+00 0. -1.
         13    1    3    3    0    0 -0.20998879111E+02 -0.48267482288E+02 -0.27189081621E+03  0.27693921695E+03  0.10570000000E+00 0.  1.
<mgrwt>
<rscale>  0 0.12500046E+03</rscale>
<asrwt>0</asrwt>
<pdfrwt beam="1">  1        3 0.16853813E-02 0.12500046E+03</pdfrwt>
<pdfrwt beam="2">  1       -3 0.54857794E-01 0.12500046E+03</pdfrwt>
<totfact> 0.91412736E+03</totfact>
</mgrwt>
</event>
<event>
 5    1  0.2989269E-047  0.1249973E+03  0.7818608E-02  0.1235074E+00
          3   -1    0    0  501    0  0.00000000000E+00  0.00000000000E+00  0.20641743267E+02  0.20641952769E+02  0.93000000000E-01 0. -1.
         -3   -1    0    0    0  501 -0.00000000000E+00 -0.00000000000E+00 -0.18923084277E+03  0.18923086562E+03  0.93000000000E-01 0.  1.
         25    2    1    2    0    0  0.00000000000E+00  0.00000000000E+00 -0.16858909950E+03  0.20987281839E+03  0.12499726168E+03 0.  0.
        -13    1    3    3    0    0 -0.43795477683E+02 -0.43240939646E+02 -0.66036810071E+02  0.90270117890E+02  0.10570000000E+00 0.  1.
         13    1    3    3    0    0  0.43795477683E+02  0.43240939646E+02 -0.10255228943E+03  0.11960270050E+03  0.10570000000E+00 0. -1.
<mgrwt>
<rscale>  0 0.12499726E+03</rscale>
<asrwt>0</asrwt>
<pdfrwt beam="1">  1        3 0.31756708E-02 0.12499726E+03</pdfrwt>
<pdfrwt beam="2">  1       -3 0.29112454E-01 0.12499726E+03</pdfrwt>
<totfact> 0.11757996E+04</totfact>
</mgrwt>
</event>
<event>
 5    1  0.2989269E-047  0.1250002E+03  0.7818608E-02  0.1235069E+00
         -3   -1    0    0    0  501 -0.00000000000E+00  0.00000000000E+00  0.87118701699E+02  0.87118751338E+02  0.93000000000E-01 0.  1.
          3   -1    0    0  501    0  0.00000000000E+00 -0.00000000000E+00 -0.44838258992E+02  0.44838355438E+02  0.93000000000E-01 0. -1.
         25    2    1    2    0    0  0.00000000000E+00  0.00000000000E+00  0.42280442707E+02  0.13195710678E+03  0.12500016877E+03 0.  0.
        -13    1    3    3    0    0  0.55777116607E+02 -0.24817989473E+02  0.35273000851E+02  0.70506844349E+02  0.10570000000E+00 0.  1.
         13    1    3    3    0    0 -0.55777116607E+02  0.24817989473E+02  0.70074418561E+01  0.61450262427E+02  0.10570000000E+00 0. -1.
<mgrwt>
<rscale>  0 0.12500017E+03</rscale>
<asrwt>0</asrwt>
<pdfrwt beam="2">  1        3 0.68982050E-02 0.12500017E+03</pdfrwt>
<pdfrwt beam="1">  1       -3 0.13402888E-01 0.12500017E+03</pdfrwt>
<totfact> 0.13552594E+04</totfact>
</mgrwt>
</event>
<event>
 5    1  0.2989269E-047  0.1249989E+03  0.7818608E-02  0.1235071E+00
          3   -1    0    0  501    0  0.00000000000E+00  0.00000000000E+00  0.27656752933E+03  0.27656754497E+03  0.93000000000E-01 0. -1.
         -3   -1    0    0    0  501 -0.00000000000E+00 -0.00000000000E+00 -0.14123612311E+02  0.14123918497E+02  0.93000000000E-01 0.  1.
         25    2    1    2    0    0  0.00000000000E+00  0.00000000000E+00  0.26244391702E+03  0.29069146347E+03  0.12499886940E+03 0.  0.
        -13    1    3    3    0    0 -0.59797859654E+02  0.17137960023E+02  0.14530537848E+03  0.15806061458E+03  0.10570000000E+00 0.  1.
         13    1    3    3    0    0  0.59797859654E+02 -0.17137960023E+02  0.11713853854E+03  0.13263084889E+03  0.10570000000E+00 0. -1.
<mgrwt>
<rscale>  0 0.12499887E+03</rscale>
<asrwt>0</asrwt>
<pdfrwt beam="1">  1        3 0.42548873E-01 0.12499887E+03</pdfrwt>
<pdfrwt beam="2">  1       -3 0.21728883E-02 0.12499887E+03</pdfrwt>
<totfact> 0.10286841E+04</totfact>
</mgrwt>
</event>
<event>
 5    1  0.2989269E-047  0.1249978E+03  0.7818608E-02  0.1235073E+00
         -3   -1    0    0    0  501 -0.00000000000E+00  0.00000000000E+00  0.84534096418E+02  0.84534147575E+02  0.93000000000E-01 0.  1.
          3   -1    0    0  501    0  0.00000000000E+00 -0.00000000000E+00 -0.46207389734E+02  0.46207483323E+02  0.93000000000E-01 0. -1.
         25    2    1    2    0    0  0.00000000000E+00  0.00000000000E+00  0.38326706683E+02  0.13074163090E+03  0.12499775040E+03 0.  0.
        -13    1    3    3    0    0 -0.24244619015E+02 -0.50448949206E+02 -0.99208840220E+01  0.56844816294E+02  0.10570000000E+00 0. -1.
         13    1    3    3    0    0  0.24244619015E+02  0.50448949206E+02  0.48247590705E+02  0.73896814604E+02  0.10570000000E+00 0.  1.
<mgrwt>
<rscale>  0 0.12499775E+03</rscale>
<asrwt>0</asrwt>
<pdfrwt beam="2">  1        3 0.71088404E-02 0.12499775E+03</pdfrwt>
<pdfrwt beam="1">  1       -3 0.13005257E-01 0.12499775E+03</pdfrwt>
<totfact> 0.13585195E+04</totfact>
</mgrwt>
</event>
<event>
 5    1  0.2989269E-047  0.1249996E+03  0.7818608E-02  0.1235070E+00
          3   -1    0    0  501    0  0.00000000000E+00  0.00000000000E+00  0.11256122761E+03  0.11256126603E+03  0.93000000000E-01 0. -1.
         -3   -1    0    0    0  501 -0.00000000000E+00 -0.00000000000E+00 -0.34703014107E+02  0.34703138721E+02  0.93000000000E-01 0.  1.
         25    2    1    2    0    0  0.00000000000E+00  0.00000000000E+00  0.77858213503E+02  0.14726440475E+03  0.12499961399E+03 0.  0.
        -13    1    3    3    0    0  0.23994264057E+02 -0.51844313963E+02  0.90629891613E+01  0.57842082802E+02  0.10570000000E+00 0.  1.
         13    1    3    3    0    0 -0.23994264057E+02  0.51844313963E+02  0.68795224342E+02  0.89422321948E+02  0.10570000000E+00 0. -1.
<mgrwt>
<rscale>  0 0.12499961E+03</rscale>
<asrwt>0</asrwt>
<pdfrwt beam="1">  1        3 0.17317125E-01 0.12499961E+03</pdfrwt>
<pdfrwt beam="2">  1       -3 0.53389377E-02 0.12499961E+03</pdfrwt>
<totfact> 0.13163157E+04</totfact>
</mgrwt>
</event>
<event>
 5    1  0.2989269E-047  0.1250032E+03  0.7818608E-02  0.1235064E+00
          3   -1    0    0  501    0  0.00000000000E+00  0.00000000000E+00  0.11939839681E+02  0.11940201867E+02  0.93000000000E-01 0. -1.
         -3   -1    0    0    0  501 -0.00000000000E+00 -0.00000000000E+00 -0.32717253680E+03  0.32717255002E+03  0.93000000000E-01 0.  1.
         25    2    1    2    0    0  0.00000000000E+00  0.00000000000E+00 -0.31523269712E+03  0.33911275188E+03  0.12500322059E+03 0.  0.
        -13    1    3    3    0    0 -0.22237108121E+02  0.43833464185E+02 -0.26235340241E+03  0.26691792837E+03  0.10570000000E+00 0.  1.
         13    1    3    3    0    0  0.22237108121E+02 -0.43833464185E+02 -0.52879294710E+02  0.72194823510E+02  0.10570000000E+00 0. -1.
<mgrwt>
<rscale>  0 0.12500322E+03</rscale>
<asrwt>0</asrwt>
<pdfrwt beam="1">  1        3 0.18369275E-02 0.12500322E+03</pdfrwt>
<pdfrwt beam="2">  1       -3 0.50334259E-01 0.12500322E+03</pdfrwt>
<totfact> 0.95383369E+03</totfact>
</mgrwt>
</event>
<event>
 5    1  0.2989269E-047  0.1250268E+03  0.7818608E-02  0.1235027E+00
          3   -1    0    0  501    0  0.00000000000E+00  0.00000000000E+00  0.90961311888E+02  0.90961359430E+02  0.93000000000E-01 0. -1.
         -3   -1    0    0    0  501 -0.00000000000E+00 -0.00000000000E+00 -0.42962399290E+02  0.42962499947E+02  0.93000000000E-01 0.  1.
         25    2    1    2    0    0  0.00000000000E+00  0.00000000000E+00  0.47998912598E+02  0.13392385938E+03  0.12502681512E+03 0.  0.
        -13    1    3    3    0    0 -0.37415597778E+02  0.19222241111E+02  0.73534066444E+02  0.84715356404E+02  0.10570000000E+00 0. -1.
         13    1    3    3    0    0  0.37415597778E+02 -0.19222241111E+02 -0.25535153846E+02  0.49208502973E+02  0.10570000000E+00 0.  1.
<mgrwt>
<rscale>  0 0.12502682E+03</rscale>
<asrwt>0</asrwt>
<pdfrwt beam="1">  1        3 0.13994059E-01 0.12502682E+03</pdfrwt>
<pdfrwt beam="2">  1       -3 0.66096114E-02 0.12502682E+03</pdfrwt>
<totfact> 0.13493079E+04</totfact>
</mgrwt>
</event>
<event>
 5    1  0.2989269E-047  0.1249988E+03  0.7818608E-02  0.1235071E+00
          3   -1    0    0  501    0  0.00000000000E+00  0.00000000000E+00  0.65264301438E+03  0.65264302101E+03  0.93000000000E-01 0. -1.
         -3   -1    0    0    0  501 -0.00000000000E+00 -0.00000000000E+00 -0.59847971081E+01  0.59855196454E+01  0.93000000000E-01 0.  1.
         25    2    1    2    0    0  0.00000000000E+00  0.00000000000E+00  0.64665821728E+03  0.65862854066E+03  0.12499881838E+03 0.  0.
        -13    1    3    3    0    0  0.61712928324E+02  0.62693111736E+01  0.28307142358E+03  0.28978825339E+03  0.10570000000E+00 0.  1.
         13    1    3    3    0    0 -0.61712928324E+02 -0.62693111736E+01  0.36358679369E+03  0.36884028726E+03  0.10570000000E+00 0. -1.
<mgrwt>
<rscale>  0 0.12499882E+03</rscale>
<asrwt>0</asrwt>
<pdfrwt beam="1">  1        3 0.10040669E+00 0.12499882E+03</pdfrwt>
<pdfrwt beam="2">  1       -3 0.92079397E-03 0.12499882E+03</pdfrwt>
<totfact> 0.62223281E+03</totfact>
</mgrwt>
</event>
<event>
 5    1  0.2989269E-047  0.1250001E+03  0.7818608E-02  0.1235069E+00
          3   -1    0    0  501    0  0.00000000000E+00  0.00000000000E+00  0.26889569805E+03  0.26889571413E+03  0.93000000000E-01 0. -1.
         -3   -1    0    0    0  501 -0.00000000000E+00 -0.00000000000E+00 -0.14526870297E+02  0.14527167984E+02  0.93000000000E-01 0.  1.
         25    2    1    2    0    0  0.00000000000E+00  0.00000000000E+00  0.25436882775E+03  0.28342288212E+03  0.12500011830E+03 0.  0.
        -13    1    3    3    0    0 -0.33117880554E+02 -0.50127632718E+02  0.16623820861E+03  0.17676177966E+03  0.10570000000E+00 0.  1.
         13    1    3    3    0    0  0.33117880554E+02  0.50127632718E+02  0.88130619147E+02  0.10666110246E+03  0.10570000000E+00 0. -1.
<mgrwt>
<rscale>  0 0.12500012E+03</rscale>
<asrwt>0</asrwt>
<pdfrwt beam="1">  1        3 0.41368589E-01 0.12500012E+03</pdfrwt>
<pdfrwt beam="2">  1       -3 0.22349275E-02 0.12500012E+03</pdfrwt>
<totfact> 0.10406169E+04</totfact>
</mgrwt>
</event>
<event>
 4    1  0.2989269E-047  0.1250760E+03  0.7818608E-02  0.1234951E+00
         -3   -1    0    0    0  501 -0.00000000000E+00  0.00000000000E+00  0.63877267750E+03  0.63877268427E+03  0.93000000000E-01 0.  1.
          3   -1    0    0  501    0  0.00000000000E+00 -0.00000000000E+00 -0.61223200881E+01  0.61230263972E+01  0.93000000000E-01 0. -1.
        -13    1    1    2    0    0 -0.56222934569E+02 -0.27172156311E+02  0.29873026191E+03  0.30518703283E+03  0.10570000000E+00 0. -1.
         13    1    1    2    0    0  0.56222934569E+02  0.27172156311E+02  0.33392009550E+03  0.33970867785E+03  0.10570000000E+00 0.  1.
<mgrwt>
<rscale>  0 0.12507599E+03</rscale>
<asrwt>0</asrwt>
<pdfrwt beam="2">  1        3 0.94195048E-03 0.12507599E+03</pdfrwt>
<pdfrwt beam="1">  1       -3 0.98272751E-01 0.12507599E+03</pdfrwt>
<totfact> 0.63032692E+03</totfact>
</mgrwt>
</event>
<event>
 5    1  0.2989269E-047  0.1249942E+03  0.7818608E-02  0.1235078E+00
         -3   -1    0    0    0  501 -0.00000000000E+00  0.00000000000E+00  0.19248593999E+03  0.19248596245E+03  0.93000000000E-01 0.  1.
          3   -1    0    0  501    0  0.00000000000E+00 -0.00000000000E+00 -0.20291675539E+02  0.20291888655E+02  0.93000000000E-01 0. -1.
         25    2    1    2    0    0  0.00000000000E+00  0.00000000000E+00  0.17219426445E+03  0.21277785111E+03  0.12499419672E+03 0.  0.
        -13    1    3    3    0    0  0.34005335850E+02  0.50048176041E+02  0.59468574602E+02  0.84839291186E+02  0.10570000000E+00 0.  1.
         13    1    3    3    0    0 -0.34005335850E+02 -0.50048176041E+02  0.11272568985E+03  0.12793855992E+03  0.10570000000E+00 0. -1.
<mgrwt>
<rscale>  0 0.12499420E+03</rscale>
<asrwt>0</asrwt>
<pdfrwt beam="2">  1        3 0.31218145E-02 0.12499420E+03</pdfrwt>
<pdfrwt beam="1">  1       -3 0.29613238E-01 0.12499420E+03</pdfrwt>
<totfact> 0.11699829E+04</totfact>
</mgrwt>
</event>
<event>
 5    1  0.2989269E-047  0.1250013E+03  0.7818608E-02  0.1235067E+00
         -3   -1    0    0    0  501 -0.00000000000E+00  0.00000000000E+00  0.46680670235E+02  0.46680762875E+02  0.93000000000E-01 0.  1.
          3   -1    0    0  501    0  0.00000000000E+00 -0.00000000000E+00 -0.83681847402E+02  0.83681899079E+02  0.93000000000E-01 0. -1.
         25    2    1    2    0    0  0.00000000000E+00  0.00000000000E+00 -0.37001177166E+02  0.13036266195E+03  0.12500134607E+03 0.  0.
        -13    1    3    3    0    0 -0.50097902686E+02  0.22661202130E+02  0.12489096720E+02  0.56385447102E+02  0.10570000000E+00 0.  1.
         13    1    3    3    0    0  0.50097902686E+02 -0.22661202130E+02 -0.49490273886E+02  0.73977214853E+02  0.10570000000E+00 0. -1.
<mgrwt>
<rscale>  0 0.12500135E+03</rscale>
<asrwt>0</asrwt>
<pdfrwt beam="2">  1        3 0.12874141E-01 0.12500135E+03</pdfrwt>
<pdfrwt beam="1">  1       -3 0.71816527E-02 0.12500135E+03</pdfrwt>
<totfact> 0.13593868E+04</totfact>
</mgrwt>
</event>
<event>
 5    1  0.2989269E-047  0.1250010E+03  0.7818608E-02  0.1235068E+00
         -3   -1    0    0    0  501 -0.00000000000E+00  0.00000000000E+00  0.22753230440E+03  0.22753232341E+03  0.93000000000E-01 0.  1.
          3   -1    0    0  501    0  0.00000000000E+00 -0.00000000000E+00 -0.17168033811E+02  0.17168285702E+02  0.93000000000E-01 0. -1.
         25    2    1    2    0    0  0.00000000000E+00  0.00000000000E+00  0.21036427059E+03  0.24470060911E+03  0.12500104703E+03 0.  0.
        -13    1    3    3    0    0  0.49145225944E+02  0.25577517078E+02  0.16181167665E+03  0.17103360046E+03  0.10570000000E+00 0.  1.
         13    1    3    3    0    0 -0.49145225944E+02 -0.25577517078E+02  0.48552593943E+02  0.73667008654E+02  0.10570000000E+00 0. -1.
<mgrwt>
<rscale>  0 0.12500105E+03</rscale>
<asrwt>0</asrwt>
<pdfrwt beam="2">  1        3 0.26412568E-02 0.12500105E+03</pdfrwt>
<pdfrwt beam="1">  1       -3 0.35004990E-01 0.12500105E+03</pdfrwt>
<totfact> 0.11081449E+04</totfact>
</mgrwt>
</event>
<event>
 5    1  0.2989269E-047  0.1250037E+03  0.7818608E-02  0.1235064E+00
          3   -1    0    0  501    0  0.00000000000E+00  0.00000000000E+00  0.15310838451E+03  0.15310841275E+03  0.93000000000E-01 0. -1.
         -3   -1    0    0    0  501 -0.00000000000E+00 -0.00000000000E+00 -0.25514350726E+02  0.25514520219E+02  0.93000000000E-01 0.  1.
         25    2    1    2    0    0  0.00000000000E+00  0.00000000000E+00  0.12759403378E+03  0.17862293297E+03  0.12500365885E+03 0.  0.
        -13    1    3    3    0    0 -0.36912371567E+02  0.31402680985E+02  0.73978659654E+01  0.49024393327E+02  0.10570000000E+00 0.  1.
         13    1    3    3    0    0  0.36912371567E+02 -0.31402680985E+02  0.12019616782E+03  0.12959853964E+03  0.10570000000E+00 0. -1.
<mgrwt>
<rscale>  0 0.12500366E+03</rscale>
<asrwt>0</asrwt>
<pdfrwt beam="1">  1        3 0.23555152E-01 0.12500366E+03</pdfrwt>
<pdfrwt beam="2">  1       -3 0.39252999E-02 0.12500366E+03</pdfrwt>
<totfact> 0.12423868E+04</totfact>
</mgrwt>
</event>
<event>
 5    1  0.2989269E-047  0.1250008E+03  0.7818608E-02  0.1235068E+00
          3   -1    0    0  501    0  0.00000000000E+00  0.00000000000E+00  0.48982881837E+02  0.48982970123E+02  0.93000000000E-01 0. -1.
         -3   -1    0    0    0  501 -0.00000000000E+00 -0.00000000000E+00 -0.79748133248E+02  0.79748187475E+02  0.93000000000E-01 0.  1.
         25    2    1    2    0    0  0.00000000000E+00  0.00000000000E+00 -0.30765251411E+02  0.12873115760E+03  0.12500084097E+03 0.  0.
        -13    1    3    3    0    0  0.14076995254E+02 -0.25178126151E+02  0.41717386684E+02  0.50719339074E+02  0.10570000000E+00 0. -1.
         13    1    3    3    0    0 -0.14076995254E+02  0.25178126151E+02 -0.72482638094E+02  0.78011818524E+02  0.10570000000E+00 0.  1.
<mgrwt>
<rscale>  0 0.12500084E+03</rscale>
<asrwt>0</asrwt>
<pdfrwt beam="1">  1        3 0.75358390E-02 0.12500084E+03</pdfrwt>
<pdfrwt beam="2">  1       -3 0.12268955E-01 0.12500084E+03</pdfrwt>
<totfact> 0.13636966E+04</totfact>
</mgrwt>
</event>
<event>
 5    1  0.2989269E-047  0.1250003E+03  0.7818608E-02  0.1235069E+00
          3   -1    0    0  501    0  0.00000000000E+00  0.00000000000E+00  0.14619336365E+03  0.14619339323E+03  0.93000000000E-01 0. -1.
         -3   -1    0    0    0  501 -0.00000000000E+00 -0.00000000000E+00 -0.26719773708E+02  0.26719935554E+02  0.93000000000E-01 0.  1.
         25    2    1    2    0    0  0.00000000000E+00  0.00000000000E+00  0.11947358994E+03  0.17291332878E+03  0.12500032231E+03 0.  0.
        -13    1    3    3    0    0  0.49628138601E+02  0.36105088930E+02  0.43385158949E+02  0.75158584188E+02  0.10570000000E+00 0.  1.
         13    1    3    3    0    0 -0.49628138601E+02 -0.36105088930E+02  0.76088430989E+02  0.97754744593E+02  0.10570000000E+00 0. -1.
<mgrwt>
<rscale>  0 0.12500032E+03</rscale>
<asrwt>0</asrwt>
<pdfrwt beam="1">  1        3 0.22491302E-01 0.12500032E+03</pdfrwt>
<pdfrwt beam="2">  1       -3 0.41107491E-02 0.12500032E+03</pdfrwt>
<totfact> 0.12553775E+04</totfact>
</mgrwt>
</event>
<event>
 5    1  0.2989269E-047  0.1249984E+03  0.7818608E-02  0.1235072E+00
         -3   -1    0    0    0  501 -0.00000000000E+00  0.00000000000E+00  0.34075860280E+03  0.34075861549E+03  0.93000000000E-01 0.  1.
          3   -1    0    0  501    0  0.00000000000E+00 -0.00000000000E+00 -0.11462905698E+02  0.11463282952E+02  0.93000000000E-01 0. -1.
         25    2    1    2    0    0  0.00000000000E+00  0.00000000000E+00  0.32929569710E+03  0.35222189845E+03  0.12499843844E+03 0.  0.
        -13    1    3    3    0    0 -0.59851861676E+02  0.25070346015E+00  0.21535536491E+03  0.22351790212E+03  0.10570000000E+00 0.  1.
         13    1    3    3    0    0  0.59851861676E+02 -0.25070346015E+00  0.11394033219E+03  0.12870399633E+03  0.10570000000E+00 0. -1.
<mgrwt>
<rscale>  0 0.12499844E+03</rscale>
<asrwt>0</asrwt>
<pdfrwt beam="2">  1        3 0.17635540E-02 0.12499844E+03</pdfrwt>
<pdfrwt beam="1">  1       -3 0.52424427E-01 0.12499844E+03</pdfrwt>
<totfact> 0.93525575E+03</totfact>
</mgrwt>
</event>
<event>
 5    1  0.2989269E-047  0.1249792E+03  0.7818608E-02  0.1235102E+00
          3   -1    0    0  501    0  0.00000000000E+00  0.00000000000E+00  0.13136600979E+02  0.13136930170E+02  0.93000000000E-01 0. -1.
         -3   -1    0    0    0  501 -0.00000000000E+00 -0.00000000000E+00 -0.29725325281E+03  0.29725326736E+03  0.93000000000E-01 0.  1.
         25    2    1    2    0    0  0.00000000000E+00  0.00000000000E+00 -0.28411665183E+03  0.31039019753E+03  0.12497920977E+03 0.  0.
        -13    1    3    3    0    0 -0.33664530316E+02 -0.45030811001E+02 -0.74322678368E+02  0.93193058932E+02  0.10570000000E+00 0. -1.
         13    1    3    3    0    0  0.33664530316E+02  0.45030811001E+02 -0.20979397347E+03  0.21719713860E+03  0.10570000000E+00 0.  1.
<mgrwt>
<rscale>  0 0.12497921E+03</rscale>
<asrwt>0</asrwt>
<pdfrwt beam="1">  1        3 0.20210422E-02 0.12497921E+03</pdfrwt>
<pdfrwt beam="2">  1       -3 0.45731291E-01 0.12497921E+03</pdfrwt>
<totfact> 0.99743994E+03</totfact>
</mgrwt>
</event>
<event>
 5    1  0.2989269E-047  0.1250086E+03  0.7818608E-02  0.1235056E+00
         -3   -1    0    0    0  501 -0.00000000000E+00  0.00000000000E+00  0.11102532628E+03  0.11102536523E+03  0.93000000000E-01 0.  1.
          3   -1    0    0  501    0  0.00000000000E+00 -0.00000000000E+00 -0.35188165184E+02  0.35188288080E+02  0.93000000000E-01 0. -1.
         25    2    1    2    0    0  0.00000000000E+00  0.00000000000E+00  0.75837161098E+02  0.14621365331E+03  0.12500862935E+03 0.  0.
        -13    1    3    3    0    0 -0.38345696986E+02 -0.38393575533E+02  0.74201938990E+02  0.91926046592E+02  0.10570000000E+00 0.  1.
         13    1    3    3    0    0  0.38345696986E+02  0.38393575533E+02  0.16352221072E+01  0.54287606720E+02  0.10570000000E+00 0. -1.
<mgrwt>
<rscale>  0 0.12500863E+03</rscale>
<asrwt>0</asrwt>
<pdfrwt beam="2">  1        3 0.54135762E-02 0.12500863E+03</pdfrwt>
<pdfrwt beam="1">  1       -3 0.17080832E-01 0.12500863E+03</pdfrwt>
<totfact> 0.13186690E+04</totfact>
</mgrwt>
</event>
<event>
 5    1  0.2989269E-047  0.1249988E+03  0.7818608E-02  0.1235071E+00
         -3   -1    0    0    0  501 -0.00000000000E+00  0.00000000000E+00  0.97629615741E+02  0.97629660036E+02  0.93000000000E-01 0.  1.
          3   -1    0    0  501    0  0.00000000000E+00 -0.00000000000E+00 -0.40010042600E+02  0.40010150685E+02  0.93000000000E-01 0. -1.
         25    2    1    2    0    0  0.00000000000E+00  0.00000000000E+00  0.57619573141E+02  0.13763981072E+03  0.12499880914E+03 0.  0.
        -13    1    3    3    0    0 -0.55946199350E+02  0.27075863207E+02  0.21582083924E+02  0.65794202701E+02  0.10570000000E+00 0.  1.
         13    1    3    3    0    0  0.55946199350E+02 -0.27075863207E+02  0.36037489217E+02  0.71845608019E+02  0.10570000000E+00 0. -1.
<mgrwt>
<rscale>  0 0.12499881E+03</rscale>
<asrwt>0</asrwt>
<pdfrwt beam="2">  1        3 0.61554030E-02 0.12499881E+03</pdfrwt>
<pdfrwt beam="1">  1       -3 0.15019952E-01 0.12499881E+03</pdfrwt>
<totfact> 0.13406101E+04</totfact>
</mgrwt>
</event>
<event>
 5    1  0.2989269E-047  0.1250188E+03  0.7818608E-02  0.1235040E+00
          3   -1    0    0  501    0  0.00000000000E+00  0.00000000000E+00  0.22195219540E+02  0.22195414378E+02  0.93000000000E-01 0. -1.
         -3   -1    0    0    0  501 -0.00000000000E+00 -0.00000000000E+00 -0.17604708743E+03  0.17604711199E+03  0.93000000000E-01 0.  1.
         25    2    1    2    0    0  0.00000000000E+00  0.00000000000E+00 -0.15385186789E+03  0.19824252637E+03  0.12501880662E+03 0.  0.
        -13    1    3    3    0    0  0.45998543454E+02 -0.40637289071E+01 -0.14373337947E+03  0.15096912082E+03  0.10570000000E+00 0.  1.
         13    1    3    3    0    0 -0.45998543454E+02  0.40637289071E+01 -0.10118488415E+02  0.47273405555E+02  0.10570000000E+00 0. -1.
<mgrwt>
<rscale>  0 0.12501881E+03</rscale>
<asrwt>0</asrwt>
<pdfrwt beam="1">  1        3 0.34146661E-02 0.12501881E+03</pdfrwt>
<pdfrwt beam="2">  1       -3 0.27084183E-01 0.12501881E+03</pdfrwt>
<totfact> 0.11993450E+04</totfact>
</mgrwt>
</event>
<event>
 5    1  0.2989269E-047  0.1250009E+03  0.7818608E-02  0.1235068E+00
         -3   -1    0    0    0  501 -0.00000000000E+00  0.00000000000E+00  0.21191956068E+03  0.21191958109E+03  0.93000000000E-01 0.  1.
          3   -1    0    0  501    0  0.00000000000E+00 -0.00000000000E+00 -0.18432832793E+02  0.18433067400E+02  0.93000000000E-01 0. -1.
         25    2    1    2    0    0  0.00000000000E+00  0.00000000000E+00  0.19348672789E+03  0.23035264849E+03  0.12500091518E+03 0.  0.
        -13    1    3    3    0    0  0.41707533743E+02 -0.24168448491E+02  0.17005524203E+03  0.17675527938E+03  0.10570000000E+00 0.  1.
         13    1    3    3    0    0 -0.41707533743E+02  0.24168448491E+02  0.23431485856E+02  0.53597369108E+02  0.10570000000E+00 0. -1.
<mgrwt>
<rscale>  0 0.12500092E+03</rscale>
<asrwt>0</asrwt>
<pdfrwt beam="2">  1        3 0.28358402E-02 0.12500092E+03</pdfrwt>
<pdfrwt beam="1">  1       -3 0.32603028E-01 0.12500092E+03</pdfrwt>
<totfact> 0.11351734E+04</totfact>
</mgrwt>
</event>
<event>
 5    1  0.2989269E-047  0.1250172E+03  0.7818608E-02  0.1235042E+00
          3   -1    0    0  501    0  0.00000000000E+00  0.00000000000E+00  0.20712335976E+03  0.20712338063E+03  0.93000000000E-01 0. -1.
         -3   -1    0    0    0  501 -0.00000000000E+00 -0.00000000000E+00 -0.18864581264E+02  0.18864810502E+02  0.93000000000E-01 0.  1.
         25    2    1    2    0    0  0.00000000000E+00  0.00000000000E+00  0.18825877849E+03  0.22598819114E+03  0.12501717824E+03 0.  0.
        -13    1    3    3    0    0 -0.54587038893E+02 -0.11859233401E+02  0.43420618078E+02  0.70751307258E+02  0.10570000000E+00 0.  1.
         13    1    3    3    0    0  0.54587038893E+02  0.11859233401E+02  0.14483816041E+03  0.15523688388E+03  0.10570000000E+00 0. -1.
<mgrwt>
<rscale>  0 0.12501718E+03</rscale>
<asrwt>0</asrwt>
<pdfrwt beam="1">  1        3 0.31865150E-01 0.12501718E+03</pdfrwt>
<pdfrwt beam="2">  1       -3 0.29022626E-02 0.12501718E+03</pdfrwt>
<totfact> 0.11433341E+04</totfact>
</mgrwt>
</event>
<event>
 5    1  0.2989269E-047  0.1249996E+03  0.7818608E-02  0.1235070E+00
          3   -1    0    0  501    0  0.00000000000E+00  0.00000000000E+00  0.27799230637E+03  0.27799232192E+03  0.93000000000E-01 0. -1.
         -3   -1    0    0    0  501 -0.00000000000E+00 -0.00000000000E+00 -0.14051379242E+02  0.14051687002E+02  0.93000000000E-01 0.  1.
         25    2    1    2    0    0  0.00000000000E+00  0.00000000000E+00  0.26394092713E+03  0.29204400893E+03  0.12499956055E+03 0.  0.
        -13    1    3    3    0    0  0.55807761810E+02 -0.12131149191E+02  0.72655419866E+02  0.92414783814E+02  0.10570000000E+00 0.  1.
         13    1    3    3    0    0 -0.55807761810E+02  0.12131149191E+02  0.19128550726E+03  0.19962922511E+03  0.10570000000E+00 0. -1.
<mgrwt>
<rscale>  0 0.12499956E+03</rscale>
<asrwt>0</asrwt>
<pdfrwt beam="1">  1        3 0.42768069E-01 0.12499956E+03</pdfrwt>
<pdfrwt beam="2">  1       -3 0.21617757E-02 0.12499956E+03</pdfrwt>
<totfact> 0.10264673E+04</totfact>
</mgrwt>
</event>
<event>
 5    1  0.2989269E-047  0.1249969E+03  0.7818608E-02  0.1235074E+00
         -3   -1    0    0    0  501 -0.00000000000E+00  0.00000000000E+00  0.61813898482E+03  0.61813899182E+03  0.93000000000E-01 0.  1.
          3   -1    0    0  501    0  0.00000000000E+00 -0.00000000000E+00 -0.63187084035E+01  0.63193927626E+01  0.93000000000E-01 0. -1.
         25    2    1    2    0    0  0.00000000000E+00  0.00000000000E+00  0.61182027642E+03  0.62445838458E+03  0.12499689371E+03 0.  0.
        -13    1    3    3    0    0 -0.50329186018E+02 -0.36927868915E+02  0.29063394419E+03  0.29726216570E+03  0.10570000000E+00 0.  1.
         13    1    3    3    0    0  0.50329186018E+02  0.36927868915E+02  0.32118633222E+03  0.32719621888E+03  0.10570000000E+00 0. -1.
<mgrwt>
<rscale>  0 0.12499689E+03</rscale>
<asrwt>0</asrwt>
<pdfrwt beam="2">  1        3 0.97216195E-03 0.12499689E+03</pdfrwt>
<pdfrwt beam="1">  1       -3 0.95098379E-01 0.12499689E+03</pdfrwt>
<totfact> 0.64737026E+03</totfact>
</mgrwt>
</event>
<event>
 5    1  0.2989269E-047  0.1249999E+03  0.7818608E-02  0.1235069E+00
          3   -1    0    0  501    0  0.00000000000E+00  0.00000000000E+00  0.38164346041E+02  0.38164459353E+02  0.93000000000E-01 0. -1.
         -3   -1    0    0    0  501 -0.00000000000E+00 -0.00000000000E+00 -0.10235294421E+03  0.10235298646E+03  0.93000000000E-01 0.  1.
         25    2    1    2    0    0  0.00000000000E+00  0.00000000000E+00 -0.64188598167E+02  0.14051744581E+03  0.12499990577E+03 0.  0.
        -13    1    3    3    0    0 -0.54284325923E+02  0.32459613284E+00 -0.66912532509E+02  0.86163748658E+02  0.10570000000E+00 0. -1.
         13    1    3    3    0    0  0.54284325923E+02 -0.32459613284E+00  0.27239343417E+01  0.54353697154E+02  0.10570000000E+00 0.  1.
<mgrwt>
<rscale>  0 0.12499991E+03</rscale>
<asrwt>0</asrwt>
<pdfrwt beam="1">  1        3 0.58714498E-02 0.12499991E+03</pdfrwt>
<pdfrwt beam="2">  1       -3 0.15746619E-01 0.12499991E+03</pdfrwt>
<totfact> 0.13332333E+04</totfact>
</mgrwt>
</event>
<event>
 5    1  0.2989269E-047  0.1250004E+03  0.7818608E-02  0.1235069E+00
         -3   -1    0    0    0  501 -0.00000000000E+00  0.00000000000E+00  0.25477297765E+02  0.25477467503E+02  0.93000000000E-01 0.  1.
          3   -1    0    0  501    0  0.00000000000E+00 -0.00000000000E+00 -0.15332296133E+03  0.15332298954E+03  0.93000000000E-01 0. -1.
         25    2    1    2    0    0  0.00000000000E+00  0.00000000000E+00 -0.12784566357E+03  0.17880045704E+03  0.12500035898E+03 0.  0.
        -13    1    3    3    0    0  0.22291092120E+02 -0.15963426933E+02  0.16415944073E+02  0.31956504496E+02  0.10570000000E+00 0.  1.
         13    1    3    3    0    0 -0.22291092120E+02  0.15963426933E+02 -0.14426160764E+03  0.14684395255E+03  0.10570000000E+00 0. -1.
<mgrwt>
<rscale>  0 0.12500036E+03</rscale>
<asrwt>0</asrwt>
<pdfrwt beam="2">  1        3 0.23588162E-01 0.12500036E+03</pdfrwt>
<pdfrwt beam="1">  1       -3 0.39195996E-02 0.12500036E+03</pdfrwt>
<totfact> 0.12420817E+04</totfact>
</mgrwt>
</event>
<event>
 5    1  0.2989269E-047  0.1250001E+03  0.7818608E-02  0.1235069E+00
          3   -1    0    0  501    0  0.00000000000E+00  0.00000000000E+00  0.28307496136E+02  0.28307648904E+02  0.93000000000E-01 0. -1.
         -3   -1    0    0    0  501 -0.00000000000E+00 -0.00000000000E+00 -0.13799315599E+03  0.13799318733E+03  0.93000000000E-01 0.  1.
         25    2    1    2    0    0  0.00000000000E+00  0.00000000000E+00 -0.10968565985E+03  0.16630083623E+03  0.12500009662E+03 0.  0.
        -13    1    3    3    0    0  0.35402633671E+02  0.31699607778E+02 -0.83371370993E+00  0.47528074389E+02  0.10570000000E+00 0.  1.
         13    1    3    3    0    0 -0.35402633671E+02 -0.31699607778E+02 -0.10885194614E+03  0.11877276184E+03  0.10570000000E+00 0. -1.
<mgrwt>
<rscale>  0 0.12500010E+03</rscale>
<asrwt>0</asrwt>
<pdfrwt beam="1">  1        3 0.43550136E-02 0.12500010E+03</pdfrwt>
<pdfrwt beam="2">  1       -3 0.21229730E-01 0.12500010E+03</pdfrwt>
<totfact> 0.12706058E+04</totfact>
</mgrwt>
</event>
<event>
 5    1  0.2989269E-047  0.1250000E+03  0.7818608E-02  0.1235069E+00
         -3   -1    0    0    0  501 -0.00000000000E+00  0.00000000000E+00  0.17010934943E+02  0.17011189160E+02  0.93000000000E-01 0.  1.
          3   -1    0    0  501    0  0.00000000000E+00 -0.00000000000E+00 -0.22962979146E+03  0.22962981030E+03  0.93000000000E-01 0. -1.
         25    2    1    2    0    0  0.00000000000E+00  0.00000000000E+00 -0.21261885652E+03  0.24664099946E+03  0.12500001786E+03 0.  0.
        -13    1    3    3    0    0  0.40113318971E+02 -0.47191692159E+02 -0.12283026720E+03  0.13756242176E+03  0.10570000000E+00 0.  1.
         13    1    3    3    0    0 -0.40113318971E+02  0.47191692159E+02 -0.89788589323E+02  0.10907857770E+03  0.10570000000E+00 0. -1.
<mgrwt>
<rscale>  0 0.12500002E+03</rscale>
<asrwt>0</asrwt>
<pdfrwt beam="2">  1        3 0.35327679E-01 0.12500002E+03</pdfrwt>
<pdfrwt beam="1">  1       -3 0.26170881E-02 0.12500002E+03</pdfrwt>
<totfact> 0.11047866E+04</totfact>
</mgrwt>
</event>
<event>
 5    1  0.2989269E-047  0.1250058E+03  0.7818608E-02  0.1235060E+00
         -3   -1    0    0    0  501 -0.00000000000E+00  0.00000000000E+00  0.54810588773E+03  0.54810589562E+03  0.93000000000E-01 0.  1.
          3   -1    0    0  501    0  0.00000000000E+00 -0.00000000000E+00 -0.71271666686E+01  0.71277734056E+01  0.93000000000E-01 0. -1.
         25    2    1    2    0    0  0.00000000000E+00  0.00000000000E+00  0.54097872106E+03  0.55523366902E+03  0.12500580218E+03 0.  0.
        -13    1    3    3    0    0 -0.36835929092E+02  0.50443002115E+02  0.28063672636E+03  0.28750367909E+03  0.10570000000E+00 0.  1.
         13    1    3    3    0    0  0.36835929092E+02 -0.50443002115E+02  0.26034199470E+03  0.26772998993E+03  0.10570000000E+00 0. -1.
<mgrwt>
<rscale>  0 0.12500580E+03</rscale>
<asrwt>0</asrwt>
<pdfrwt beam="2">  1        3 0.10965346E-02 0.12500580E+03</pdfrwt>
<pdfrwt beam="1">  1       -3 0.84324023E-01 0.12500580E+03</pdfrwt>
<totfact> 0.70593569E+03</totfact>
</mgrwt>
</event>
<event>
 5    1  0.2989269E-047  0.1250006E+03  0.7818608E-02  0.1235068E+00
          3   -1    0    0  501    0  0.00000000000E+00  0.00000000000E+00  0.12296795018E+02  0.12297146690E+02  0.93000000000E-01 0. -1.
         -3   -1    0    0    0  501 -0.00000000000E+00 -0.00000000000E+00 -0.31766208989E+03  0.31766210351E+03  0.93000000000E-01 0.  1.
         25    2    1    2    0    0  0.00000000000E+00  0.00000000000E+00 -0.30536529488E+03  0.32995925020E+03  0.12500057390E+03 0.  0.
        -13    1    3    3    0    0 -0.56368962513E+02  0.23973635738E+02 -0.11991684537E+03  0.13465606604E+03  0.10570000000E+00 0. -1.
         13    1    3    3    0    0  0.56368962513E+02 -0.23973635738E+02 -0.18544844950E+03  0.19530318415E+03  0.10570000000E+00 0.  1.
<mgrwt>
<rscale>  0 0.12500057E+03</rscale>
<asrwt>0</asrwt>
<pdfrwt beam="1">  1        3 0.18918430E-02 0.12500057E+03</pdfrwt>
<pdfrwt beam="2">  1       -3 0.48871113E-01 0.12500057E+03</pdfrwt>
<totfact> 0.96728822E+03</totfact>
</mgrwt>
</event>
<event>
 5    1  0.3914461E-047  0.1249980E+03  0.7818608E-02  0.1235072E+00
          3   -1    0    0  501    0  0.00000000000E+00  0.00000000000E+00  0.37271452741E+02  0.37271568768E+02  0.93000000000E-01 0. -1.
         -3   -1    0    0    0  501 -0.00000000000E+00 -0.00000000000E+00 -0.10480178927E+03  0.10480183054E+03  0.93000000000E-01 0.  1.
         25    2    1    2    0    0  0.00000000000E+00  0.00000000000E+00 -0.67530336532E+02  0.14207339930E+03  0.12499801774E+03 0.  0.
        -13    1    3    3    0    0  0.35339667124E+02  0.29551772470E+02 -0.81771309503E+02  0.93854981535E+02  0.10570000000E+00 0.  1.
         13    1    3    3    0    0 -0.35339667124E+02 -0.29551772470E+02  0.14240972971E+02  0.48218417770E+02  0.10570000000E+00 0. -1.
<mgrwt>
<rscale>  0 0.12499802E+03</rscale>
<asrwt>0</asrwt>
<pdfrwt beam="1">  1        3 0.57340818E-02 0.12499802E+03</pdfrwt>
<pdfrwt beam="2">  1       -3 0.16123364E-01 0.12499802E+03</pdfrwt>
<totfact> 0.13293519E+04</totfact>
</mgrwt>
</event>
<event>
 5    1  0.2989269E-047  0.1250042E+03  0.7818608E-02  0.1235063E+00
         -3   -1    0    0    0  501 -0.00000000000E+00  0.00000000000E+00  0.31462234654E+03  0.31462236029E+03  0.93000000000E-01 0.  1.
          3   -1    0    0  501    0  0.00000000000E+00 -0.00000000000E+00 -0.12416317260E+02  0.12416665547E+02  0.93000000000E-01 0. -1.
         25    2    1    2    0    0  0.00000000000E+00  0.00000000000E+00  0.30220602928E+03  0.32703902583E+03  0.12500416107E+03 0.  0.
        -13    1    3    3    0    0 -0.60353593611E+02 -0.12722760486E+02  0.12467085292E+03  0.13909441986E+03  0.10570000000E+00 0. -1.
         13    1    3    3    0    0  0.60353593611E+02  0.12722760486E+02  0.17753517637E+03  0.18794460598E+03  0.10570000000E+00 0.  1.
<mgrwt>
<rscale>  0 0.12500416E+03</rscale>
<asrwt>0</asrwt>
<pdfrwt beam="2">  1        3 0.19102305E-02 0.12500416E+03</pdfrwt>
<pdfrwt beam="1">  1       -3 0.48403467E-01 0.12500416E+03</pdfrwt>
<totfact> 0.97154860E+03</totfact>
</mgrwt>
</event>
<event>
 4    1  0.2989269E-047  0.1249298E+03  0.7818608E-02  0.1235179E+00
         -3   -1    0    0    0  501 -0.00000000000E+00  0.00000000000E+00  0.18964286631E+02  0.18964514664E+02  0.93000000000E-01 0.  1.
          3   -1    0    0  501    0  0.00000000000E+00 -0.00000000000E+00 -0.20574641119E+03  0.20574643221E+03  0.93000000000E-01 0. -1.
        -13    1    1    2    0    0 -0.11242211223E+02  0.59696329526E+02 -0.11956886628E+03  0.13411474202E+03  0.10570000000E+00 0.  1.
         13    1    1    2    0    0  0.11242211223E+02 -0.59696329526E+02 -0.67213258282E+02  0.90596204851E+02  0.10570000000E+00 0. -1.
<mgrwt>
<rscale>  0 0.12492977E+03</rscale>
<asrwt>0</asrwt>
<pdfrwt beam="2">  1        3 0.31653312E-01 0.12492977E+03</pdfrwt>
<pdfrwt beam="1">  1       -3 0.29176018E-02 0.12492977E+03</pdfrwt>
<totfact> 0.11480645E+04</totfact>
</mgrwt>
</event>
<event>
 4    1  0.2989269E-047  0.1250639E+03  0.7818608E-02  0.1234969E+00
         -3   -1    0    0    0  501 -0.00000000000E+00  0.00000000000E+00  0.80134573472E+01  0.80139969837E+01  0.93000000000E-01 0.  1.
          3   -1    0    0  501    0  0.00000000000E+00 -0.00000000000E+00 -0.48794299212E+03  0.48794300098E+03  0.93000000000E-01 0. -1.
        -13    1    1    2    0    0 -0.56126900781E+02  0.10939268274E+02 -0.13961489769E+03  0.15087155932E+03  0.10570000000E+00 0.  1.
         13    1    1    2    0    0  0.56126900781E+02 -0.10939268274E+02 -0.34031463708E+03  0.34508543864E+03  0.10570000000E+00 0. -1.
<mgrwt>
<rscale>  0 0.12506393E+03</rscale>
<asrwt>0</asrwt>
<pdfrwt beam="2">  1        3 0.75068171E-01 0.12506393E+03</pdfrwt>
<pdfrwt beam="1">  1       -3 0.12328822E-02 0.12506393E+03</pdfrwt>
<totfact> 0.76288418E+03</totfact>
</mgrwt>
</event>
<event>
 5    1  0.2989269E-047  0.1250008E+03  0.7818608E-02  0.1235068E+00
          3   -1    0    0  501    0  0.00000000000E+00  0.00000000000E+00  0.13990023792E+03  0.13990026883E+03  0.93000000000E-01 0.  1.
         -3   -1    0    0    0  501 -0.00000000000E+00 -0.00000000000E+00 -0.27921939085E+02  0.27922093963E+02  0.93000000000E-01 0. -1.
         25    2    1    2    0    0  0.00000000000E+00  0.00000000000E+00  0.11197829884E+03  0.16782236280E+03  0.12500082417E+03 0.  0.
        -13    1    3    3    0    0 -0.91080146967E+01  0.61655652969E+02  0.49704134074E+02  0.79717548829E+02  0.10570000000E+00 0. -1.
         13    1    3    3    0    0  0.91080146967E+01 -0.61655652969E+02  0.62274164763E+02  0.88104813967E+02  0.10570000000E+00 0.  1.
<mgrwt>
<rscale>  0 0.12500082E+03</rscale>
<asrwt>0</asrwt>
<pdfrwt beam="1">  1        3 0.21523128E-01 0.12500082E+03</pdfrwt>
<pdfrwt beam="2">  1       -3 0.42956973E-02 0.12500082E+03</pdfrwt>
<totfact> 0.12670620E+04</totfact>
</mgrwt>
</event>
<event>
 5    1  0.2989269E-047  0.1250016E+03  0.7818608E-02  0.1235067E+00
         -3   -1    0    0    0  501 -0.00000000000E+00  0.00000000000E+00  0.87033553610E+02  0.87033603298E+02  0.93000000000E-01 0.  1.
          3   -1    0    0  501    0  0.00000000000E+00 -0.00000000000E+00 -0.44883166544E+02  0.44883262894E+02  0.93000000000E-01 0. -1.
         25    2    1    2    0    0  0.00000000000E+00  0.00000000000E+00  0.42150387066E+02  0.13191686619E+03  0.12500161781E+03 0.  0.
        -13    1    3    3    0    0  0.44437250244E+02  0.25522238287E+02 -0.16685347177E+02  0.53893096398E+02  0.10570000000E+00 0.  1.
         13    1    3    3    0    0 -0.44437250244E+02 -0.25522238287E+02  0.58835734243E+02  0.78023769794E+02  0.10570000000E+00 0. -1.
<mgrwt>
<rscale>  0 0.12500162E+03</rscale>
<asrwt>0</asrwt>
<pdfrwt beam="2">  1        3 0.69051138E-02 0.12500162E+03</pdfrwt>
<pdfrwt beam="1">  1       -3 0.13389789E-01 0.12500162E+03</pdfrwt>
<totfact> 0.13553203E+04</totfact>
</mgrwt>
</event>
<event>
 5    1  0.2989269E-047  0.1250041E+03  0.7818608E-02  0.1235063E+00
         -3   -1    0    0    0  501 -0.00000000000E+00  0.00000000000E+00  0.10206040224E+03  0.10206044461E+03  0.93000000000E-01 0.  1.
          3   -1    0    0  501    0  0.00000000000E+00 -0.00000000000E+00 -0.38276325719E+02  0.38276438700E+02  0.93000000000E-01 0. -1.
         25    2    1    2    0    0  0.00000000000E+00  0.00000000000E+00  0.63784076519E+02  0.14033688331E+03  0.12500412953E+03 0.  0.
        -13    1    3    3    0    0 -0.25248581620E+02  0.51787990214E+02  0.59092123338E+02  0.82531066983E+02  0.10570000000E+00 0.  1.
         13    1    3    3    0    0  0.25248581620E+02 -0.51787990214E+02  0.46919531812E+01  0.57805816328E+02  0.10570000000E+00 0. -1.
<mgrwt>
<rscale>  0 0.12500413E+03</rscale>
<asrwt>0</asrwt>
<pdfrwt beam="2">  1        3 0.58886775E-02 0.12500413E+03</pdfrwt>
<pdfrwt beam="1">  1       -3 0.15701612E-01 0.12500413E+03</pdfrwt>
<totfact> 0.13335649E+04</totfact>
</mgrwt>
</event>
<event>
 5    1  0.2989269E-047  0.1249990E+03  0.7818608E-02  0.1235071E+00
         -3   -1    0    0    0  501 -0.00000000000E+00  0.00000000000E+00  0.39059729795E+02  0.39059840510E+02  0.93000000000E-01 0. -1.
          3   -1    0    0  501    0  0.00000000000E+00 -0.00000000000E+00 -0.10000526145E+03  0.10000530470E+03  0.93000000000E-01 0.  1.
         25    2    1    2    0    0  0.00000000000E+00  0.00000000000E+00 -0.60945531658E+02  0.13906514521E+03  0.12499902713E+03 0.  0.
        -13    1    3    3    0    0 -0.18540628347E+02 -0.49690335743E+02  0.63130231343E+01  0.53411139281E+02  0.10570000000E+00 0. -1.
         13    1    3    3    0    0  0.18540628347E+02  0.49690335743E+02 -0.67258554792E+02  0.85654005925E+02  0.10570000000E+00 0.  1.
<mgrwt>
<rscale>  0 0.12499903E+03</rscale>
<asrwt>0</asrwt>
<pdfrwt beam="2">  1        3 0.15385437E-01 0.12499903E+03</pdfrwt>
<pdfrwt beam="1">  1       -3 0.60092011E-02 0.12499903E+03</pdfrwt>
<totfact> 0.13369373E+04</totfact>
</mgrwt>
</event>
<event>
 5    1  0.2989269E-047  0.1249997E+03  0.7818608E-02  0.1235070E+00
         -3   -1    0    0    0  501 -0.00000000000E+00  0.00000000000E+00  0.22608310734E+03  0.22608312647E+03  0.93000000000E-01 0.  1.
          3   -1    0    0  501    0  0.00000000000E+00 -0.00000000000E+00 -0.17277722389E+02  0.17277972681E+02  0.93000000000E-01 0. -1.
         25    2    1    2    0    0  0.00000000000E+00  0.00000000000E+00  0.20880538496E+03  0.24336109915E+03  0.12499974318E+03 0.  0.
        -13    1    3    3    0    0  0.44148147085E+02 -0.41806594922E+02  0.13257366651E+03  0.14585142610E+03  0.10570000000E+00 0.  1.
         13    1    3    3    0    0 -0.44148147085E+02  0.41806594922E+02  0.76231718444E+02  0.97509673055E+02  0.10570000000E+00 0. -1.
<mgrwt>
<rscale>  0 0.12499974E+03</rscale>
<asrwt>0</asrwt>
<pdfrwt beam="2">  1        3 0.26581319E-02 0.12499974E+03</pdfrwt>
<pdfrwt beam="1">  1       -3 0.34782037E-01 0.12499974E+03</pdfrwt>
<totfact> 0.11106542E+04</totfact>
</mgrwt>
</event>
<event>
 5    1  0.2989269E-047  0.1249953E+03  0.7818608E-02  0.1235077E+00
          3   -1    0    0  501    0  0.00000000000E+00  0.00000000000E+00  0.10610857838E+02  0.10611265385E+02  0.93000000000E-01 0. -1.
         -3   -1    0    0    0  501 -0.00000000000E+00 -0.00000000000E+00 -0.36810205826E+03  0.36810207001E+03  0.93000000000E-01 0.  1.
         25    2    1    2    0    0  0.00000000000E+00  0.00000000000E+00 -0.35749120042E+03  0.37871333539E+03  0.12499532801E+03 0.  0.
        -13    1    3    3    0    0 -0.58101055976E+02 -0.62960871889E+01 -0.24585275435E+03  0.25270330709E+03  0.10570000000E+00 0.  1.
         13    1    3    3    0    0  0.58101055976E+02  0.62960871889E+01 -0.11163844607E+03  0.12601002830E+03  0.10570000000E+00 0. -1.
<mgrwt>
<rscale>  0 0.12499533E+03</rscale>
<asrwt>0</asrwt>
<pdfrwt beam="1">  1        3 0.16324722E-02 0.12499533E+03</pdfrwt>
<pdfrwt beam="2">  1       -3 0.56631108E-01 0.12499533E+03</pdfrwt>
<totfact> 0.89929834E+03</totfact>
</mgrwt>
</event>
<event>
 5    1  0.2989269E-047  0.1249994E+03  0.7818608E-02  0.1235070E+00
          3   -1    0    0  501    0  0.00000000000E+00  0.00000000000E+00  0.58076917544E+02  0.58076992006E+02  0.93000000000E-01 0. -1.
         -3   -1    0    0    0  501 -0.00000000000E+00 -0.00000000000E+00 -0.67259185587E+02  0.67259249883E+02  0.93000000000E-01 0.  1.
         25    2    1    2    0    0  0.00000000000E+00  0.00000000000E+00 -0.91822680426E+01  0.12533624189E+03  0.12499943794E+03 0.  0.
        -13    1    3    3    0    0  0.37299995419E+02 -0.33891601235E+02 -0.41653864882E+02  0.65383376516E+02  0.10570000000E+00 0.  1.
         13    1    3    3    0    0 -0.37299995419E+02  0.33891601235E+02  0.32471596839E+02  0.59952865372E+02  0.10570000000E+00 0. -1.
<mgrwt>
<rscale>  0 0.12499944E+03</rscale>
<asrwt>0</asrwt>
<pdfrwt beam="1">  1        3 0.89349210E-02 0.12499944E+03</pdfrwt>
<pdfrwt beam="2">  1       -3 0.10347578E-01 0.12499944E+03</pdfrwt>
<totfact> 0.13727707E+04</totfact>
</mgrwt>
</event>
<event>
 5    1  0.2989269E-047  0.1250004E+03  0.7818608E-02  0.1235069E+00
          3   -1    0    0  501    0  0.00000000000E+00  0.00000000000E+00  0.54043556149E+02  0.54043636167E+02  0.93000000000E-01 0. -1.
         -3   -1    0    0    0  501 -0.00000000000E+00 -0.00000000000E+00 -0.72280017798E+02  0.72280077627E+02  0.93000000000E-01 0.  1.
         25    2    1    2    0    0  0.00000000000E+00  0.00000000000E+00 -0.18236461649E+02  0.12632371379E+03  0.12500044853E+03 0.  0.
        -13    1    3    3    0    0 -0.83123433663E+01 -0.53177981070E+02  0.22987154459E+02  0.58527029359E+02  0.10570000000E+00 0.  1.
         13    1    3    3    0    0  0.83123433663E+01  0.53177981070E+02 -0.41223616109E+02  0.67796684436E+02  0.10570000000E+00 0. -1.
<mgrwt>
<rscale>  0 0.12500045E+03</rscale>
<asrwt>0</asrwt>
<pdfrwt beam="1">  1        3 0.83144040E-02 0.12500045E+03</pdfrwt>
<pdfrwt beam="2">  1       -3 0.11120014E-01 0.12500045E+03</pdfrwt>
<totfact> 0.13700860E+04</totfact>
</mgrwt>
</event>
<event>
 5    1  0.2989269E-047  0.1250153E+03  0.7818608E-02  0.1235045E+00
         -3   -1    0    0    0  501 -0.00000000000E+00  0.00000000000E+00  0.32277389898E+03  0.32277391238E+03  0.93000000000E-01 0.  1.
          3   -1    0    0  501    0  0.00000000000E+00 -0.00000000000E+00 -0.12104904628E+02  0.12105261874E+02  0.93000000000E-01 0. -1.
         25    2    1    2    0    0  0.00000000000E+00  0.00000000000E+00  0.31066899435E+03  0.33487917425E+03  0.12501534824E+03 0.  0.
        -13    1    3    3    0    0  0.54474390013E+02 -0.30629713510E+02  0.15867980602E+03  0.17054304597E+03  0.10570000000E+00 0. -1.
         13    1    3    3    0    0 -0.54474390013E+02  0.30629713510E+02  0.15198918834E+03  0.16433612829E+03  0.10570000000E+00 0.  1.
<mgrwt>
<rscale>  0 0.12501535E+03</rscale>
<asrwt>0</asrwt>
<pdfrwt beam="2">  1        3 0.18623220E-02 0.12501535E+03</pdfrwt>
<pdfrwt beam="1">  1       -3 0.49657539E-01 0.12501535E+03</pdfrwt>
<totfact> 0.95973408E+03</totfact>
</mgrwt>
</event>
<event>
 5    1  0.2989269E-047  0.1250009E+03  0.7818608E-02  0.1235068E+00
          3   -1    0    0  501    0  0.00000000000E+00  0.00000000000E+00  0.76796301885E+02  0.76796358196E+02  0.93000000000E-01 0. -1.
         -3   -1    0    0    0  501 -0.00000000000E+00 -0.00000000000E+00 -0.50865664663E+02  0.50865749681E+02  0.93000000000E-01 0.  1.
         25    2    1    2    0    0  0.00000000000E+00  0.00000000000E+00  0.25930637222E+02  0.12766210788E+03  0.12500086336E+03 0.  0.
        -13    1    3    3    0    0  0.53739603490E+02 -0.29835339705E+02  0.24528931235E+02  0.66179846771E+02  0.10570000000E+00 0. -1.
         13    1    3    3    0    0 -0.53739603490E+02  0.29835339705E+02  0.14017059870E+01  0.61482261107E+02  0.10570000000E+00 0.  1.
<mgrwt>
<rscale>  0 0.12500086E+03</rscale>
<asrwt>0</asrwt>
<pdfrwt beam="1">  1        3 0.11814826E-01 0.12500086E+03</pdfrwt>
<pdfrwt beam="2">  1       -3 0.78254978E-02 0.12500086E+03</pdfrwt>
<totfact> 0.13665034E+04</totfact>
</mgrwt>
</event>
<event>
 5    1  0.2989269E-047  0.1250001E+03  0.7818608E-02  0.1235069E+00
          3   -1    0    0  501    0  0.00000000000E+00  0.00000000000E+00  0.24734074117E+03  0.24734075866E+03  0.93000000000E-01 0.  1.
         -3   -1    0    0    0  501 -0.00000000000E+00 -0.00000000000E+00 -0.15792871184E+02  0.15793145008E+02  0.93000000000E-01 0. -1.
         25    2    1    2    0    0  0.00000000000E+00  0.00000000000E+00  0.23154786999E+03  0.26313390367E+03  0.12500014065E+03 0.  0.
        -13    1    3    3    0    0  0.15279721381E+02 -0.55379524291E+02  0.63958186804E+02  0.85971055757E+02  0.10570000000E+00 0. -1.
         13    1    3    3    0    0 -0.15279721381E+02  0.55379524291E+02  0.16758968319E+03  0.17716284791E+03  0.10570000000E+00 0.  1.
<mgrwt>
<rscale>  0 0.12500014E+03</rscale>
<asrwt>0</asrwt>
<pdfrwt beam="1">  1        3 0.38052444E-01 0.12500014E+03</pdfrwt>
<pdfrwt beam="2">  1       -3 0.24296949E-02 0.12500014E+03</pdfrwt>
<totfact> 0.10752294E+04</totfact>
</mgrwt>
</event>
<event>
 5    1  0.2989269E-047  0.1249997E+03  0.7818608E-02  0.1235070E+00
          3   -1    0    0  501    0  0.00000000000E+00  0.00000000000E+00  0.32432922408E+02  0.32433055745E+02  0.93000000000E-01 0. -1.
         -3   -1    0    0    0  501 -0.00000000000E+00 -0.00000000000E+00 -0.12043991540E+03  0.12043995131E+03  0.93000000000E-01 0.  1.
         25    2    1    2    0    0  0.00000000000E+00  0.00000000000E+00 -0.88006992996E+02  0.15287300705E+03  0.12499970188E+03 0.  0.
        -13    1    3    3    0    0  0.41519853719E+02  0.25369318582E+01 -0.10105142668E+03  0.10927825165E+03  0.10570000000E+00 0.  1.
         13    1    3    3    0    0 -0.41519853719E+02 -0.25369318582E+01  0.13044433689E+02  0.43594755405E+02  0.10570000000E+00 0. -1.
<mgrwt>
<rscale>  0 0.12499970E+03</rscale>
<asrwt>0</asrwt>
<pdfrwt beam="1">  1        3 0.49896935E-02 0.12499970E+03</pdfrwt>
<pdfrwt beam="2">  1       -3 0.18529231E-01 0.12499970E+03</pdfrwt>
<totfact> 0.13025809E+04</totfact>
</mgrwt>
</event>
<event>
 5    1  0.2989269E-047  0.1250002E+03  0.7818608E-02  0.1235069E+00
         -3   -1    0    0    0  501 -0.00000000000E+00  0.00000000000E+00  0.59818479383E+03  0.59818480106E+03  0.93000000000E-01 0.  1.
          3   -1    0    0  501    0  0.00000000000E+00 -0.00000000000E+00 -0.65298579857E+01  0.65305202176E+01  0.93000000000E-01 0. -1.
         25    2    1    2    0    0  0.00000000000E+00  0.00000000000E+00  0.59165493585E+03  0.60471532128E+03  0.12500022671E+03 0.  0.
        -13    1    3    3    0    0 -0.10249778807E+02  0.61419076275E+02  0.26982409203E+03  0.27691589464E+03  0.10570000000E+00 0.  1.
         13    1    3    3    0    0  0.10249778807E+02 -0.61419076275E+02  0.32183084382E+03  0.32779942664E+03  0.10570000000E+00 0. -1.
<mgrwt>
<rscale>  0 0.12500023E+03</rscale>
<asrwt>0</asrwt>
<pdfrwt beam="2">  1        3 0.10046449E-02 0.12500023E+03</pdfrwt>
<pdfrwt beam="1">  1       -3 0.92028494E-01 0.12500023E+03</pdfrwt>
<totfact> 0.66329523E+03</totfact>
</mgrwt>
</event>
<event>
 5    1  0.2989269E-047  0.1249919E+03  0.7818608E-02  0.1235082E+00
         -3   -1    0    0    0  501 -0.00000000000E+00  0.00000000000E+00  0.11815272792E+02  0.11815638796E+02  0.93000000000E-01 0.  1.
          3   -1    0    0  501    0  0.00000000000E+00 -0.00000000000E+00 -0.33056195060E+03  0.33056196368E+03  0.93000000000E-01 0. -1.
         25    2    1    2    0    0  0.00000000000E+00  0.00000000000E+00 -0.31874667781E+03  0.34237760248E+03  0.12499191200E+03 0.  0.
        -13    1    3    3    0    0 -0.14389879840E+02  0.60091956905E+02 -0.13373271598E+03  0.14731789580E+03  0.10570000000E+00 0.  1.
         13    1    3    3    0    0  0.14389879840E+02 -0.60091956905E+02 -0.18501396183E+03  0.19505970668E+03  0.10570000000E+00 0. -1.
<mgrwt>
<rscale>  0 0.12499191E+03</rscale>
<asrwt>0</asrwt>
<pdfrwt beam="2">  1        3 0.50855707E-01 0.12499191E+03</pdfrwt>
<pdfrwt beam="1">  1       -3 0.18177637E-02 0.12499191E+03</pdfrwt>
<totfact> 0.94982523E+03</totfact>
</mgrwt>
</event>
<event>
 5    1  0.2989269E-047  0.1249997E+03  0.7818608E-02  0.1235070E+00
         -3   -1    0    0    0  501 -0.00000000000E+00  0.00000000000E+00  0.48163505456E+03  0.48163506354E+03  0.93000000000E-01 0.  1.
          3   -1    0    0  501    0  0.00000000000E+00 -0.00000000000E+00 -0.81100757610E+01  0.81106089691E+01  0.93000000000E-01 0. -1.
         25    2    1    2    0    0  0.00000000000E+00  0.00000000000E+00  0.47352497880E+03  0.48974567251E+03  0.12499967277E+03 0.  0.
        -13    1    3    3    0    0 -0.31521527050E+01 -0.57454784697E+02  0.33235065910E+03  0.33729506390E+03  0.10570000000E+00 0.  1.
         13    1    3    3    0    0  0.31521527050E+01  0.57454784697E+02  0.14117431969E+03  0.15245060861E+03  0.10570000000E+00 0. -1.
<mgrwt>
<rscale>  0 0.12499967E+03</rscale>
<asrwt>0</asrwt>
<pdfrwt beam="2">  1        3 0.12477454E-02 0.12499967E+03</pdfrwt>
<pdfrwt beam="1">  1       -3 0.74097761E-01 0.12499967E+03</pdfrwt>
<totfact> 0.76947523E+03</totfact>
</mgrwt>
</event>
<event>
 5    1  0.2989269E-047  0.1249993E+03  0.7818608E-02  0.1235070E+00
         -3   -1    0    0    0  501 -0.00000000000E+00  0.00000000000E+00  0.63457776430E+02  0.63457844577E+02  0.93000000000E-01 0.  1.
          3   -1    0    0  501    0  0.00000000000E+00 -0.00000000000E+00 -0.61555826167E+02  0.61555896420E+02  0.93000000000E-01 0. -1.
         25    2    1    2    0    0  0.00000000000E+00  0.00000000000E+00  0.19019502625E+01  0.12501374100E+03  0.12499927209E+03 0.  0.
        -13    1    3    3    0    0 -0.30096900107E+02 -0.39040817382E+02  0.39376569176E+02  0.63091474784E+02  0.10570000000E+00 0.  1.
         13    1    3    3    0    0  0.30096900107E+02  0.39040817382E+02 -0.37474618913E+02  0.61922266214E+02  0.10570000000E+00 0. -1.
<mgrwt>
<rscale>  0 0.12499927E+03</rscale>
<asrwt>0</asrwt>
<pdfrwt beam="2">  1        3 0.94701378E-02 0.12499927E+03</pdfrwt>
<pdfrwt beam="1">  1       -3 0.97627454E-02 0.12499927E+03</pdfrwt>
<totfact> 0.13736288E+04</totfact>
</mgrwt>
</event>
<event>
 5    1  0.2989269E-047  0.1250007E+03  0.7818608E-02  0.1235068E+00
          3   -1    0    0  501    0  0.00000000000E+00  0.00000000000E+00  0.15282678202E+02  0.15282961166E+02  0.93000000000E-01 0. -1.
         -3   -1    0    0    0  501 -0.00000000000E+00 -0.00000000000E+00 -0.25559997800E+03  0.25559999492E+03  0.93000000000E-01 0.  1.
         25    2    1    2    0    0  0.00000000000E+00  0.00000000000E+00 -0.24031729980E+03  0.27088295609E+03  0.12500068526E+03 0.  0.
        -13    1    3    3    0    0 -0.35797293524E+02  0.48473217637E+02 -0.15610706723E+03  0.16733357900E+03  0.10570000000E+00 0. -1.
         13    1    3    3    0    0  0.35797293524E+02 -0.48473217637E+02 -0.84210232574E+02  0.10354937708E+03  0.10570000000E+00 0.  1.
<mgrwt>
<rscale>  0 0.12500069E+03</rscale>
<asrwt>0</asrwt>
<pdfrwt beam="1">  1        3 0.23512045E-02 0.12500069E+03</pdfrwt>
<pdfrwt beam="2">  1       -3 0.39323093E-01 0.12500069E+03</pdfrwt>
<totfact> 0.10615288E+04</totfact>
</mgrwt>
</event>
<event>
 5    1  0.2989269E-047  0.1249962E+03  0.7818608E-02  0.1235075E+00
          3   -1    0    0  501    0  0.00000000000E+00  0.00000000000E+00  0.22181098384E+03  0.22181100333E+03  0.93000000000E-01 0. -1.
         -3   -1    0    0    0  501 -0.00000000000E+00 -0.00000000000E+00 -0.17609514421E+02  0.17609759997E+02  0.93000000000E-01 0.  1.
         25    2    1    2    0    0  0.00000000000E+00  0.00000000000E+00  0.20420146942E+03  0.23942076333E+03  0.12499624715E+03 0.  0.
        -13    1    3    3    0    0  0.54525661864E+02 -0.27300015938E+02  0.12834033287E+03  0.14209008018E+03  0.10570000000E+00 0.  1.
         13    1    3    3    0    0 -0.54525661864E+02  0.27300015938E+02  0.75861136546E+02  0.97330683150E+02  0.10570000000E+00 0. -1.
<mgrwt>
<rscale>  0 0.12499625E+03</rscale>
<asrwt>0</asrwt>
<pdfrwt beam="1">  1        3 0.34124790E-01 0.12499625E+03</pdfrwt>
<pdfrwt beam="2">  1       -3 0.27091763E-02 0.12499625E+03</pdfrwt>
<totfact> 0.11182513E+04</totfact>
</mgrwt>
</event>
<event>
 5    1  0.2989269E-047  0.1250018E+03  0.7818608E-02  0.1235066E+00
         -3   -1    0    0    0  501 -0.00000000000E+00  0.00000000000E+00  0.23938182759E+02  0.23938363411E+02  0.93000000000E-01 0.  1.
          3   -1    0    0  501    0  0.00000000000E+00 -0.00000000000E+00 -0.16318466785E+03  0.16318469435E+03  0.93000000000E-01 0. -1.
         25    2    1    2    0    0  0.00000000000E+00  0.00000000000E+00 -0.13924648509E+03  0.18712305776E+03  0.12500182053E+03 0.  0.
        -13    1    3    3    0    0  0.24653399684E+02  0.51977920665E+02 -0.10619506236E+03  0.12077622612E+03  0.10570000000E+00 0. -1.
         13    1    3    3    0    0 -0.24653399684E+02 -0.51977920665E+02 -0.33051422734E+02  0.66346831649E+02  0.10570000000E+00 0.  1.
<mgrwt>
<rscale>  0 0.12500182E+03</rscale>
<asrwt>0</asrwt>
<pdfrwt beam="2">  1        3 0.25105349E-01 0.12500182E+03</pdfrwt>
<pdfrwt beam="1">  1       -3 0.36828134E-02 0.12500182E+03</pdfrwt>
<totfact> 0.12236726E+04</totfact>
</mgrwt>
</event>
<event>
 5    1  0.2989269E-047  0.1250000E+03  0.7818608E-02  0.1235069E+00
         -3   -1    0    0    0  501 -0.00000000000E+00  0.00000000000E+00  0.28670713287E+02  0.28670864120E+02  0.93000000000E-01 0.  1.
          3   -1    0    0  501    0  0.00000000000E+00 -0.00000000000E+00 -0.13624472157E+03  0.13624475331E+03  0.93000000000E-01 0. -1.
         25    2    1    2    0    0  0.00000000000E+00  0.00000000000E+00 -0.10757400828E+03  0.16491561743E+03  0.12499997446E+03 0.  0.
        -13    1    3    3    0    0 -0.62332415281E+02 -0.45210112925E+01 -0.52884742668E+02  0.81869266013E+02  0.10570000000E+00 0.  1.
         13    1    3    3    0    0  0.62332415281E+02  0.45210112925E+01 -0.54689265615E+02  0.83046351418E+02  0.10570000000E+00 0. -1.
<mgrwt>
<rscale>  0 0.12499997E+03</rscale>
<asrwt>0</asrwt>
<pdfrwt beam="2">  1        3 0.20960740E-01 0.12499997E+03</pdfrwt>
<pdfrwt beam="1">  1       -3 0.44108931E-02 0.12499997E+03</pdfrwt>
<totfact> 0.12738471E+04</totfact>
</mgrwt>
</event>
<event>
 5    1  0.2989269E-047  0.1250003E+03  0.7818608E-02  0.1235069E+00
         -3   -1    0    0    0  501 -0.00000000000E+00  0.00000000000E+00  0.79264930347E+02  0.79264984904E+02  0.93000000000E-01 0.  1.
          3   -1    0    0  501    0  0.00000000000E+00 -0.00000000000E+00 -0.49281034473E+02  0.49281122225E+02  0.93000000000E-01 0. -1.
         25    2    1    2    0    0  0.00000000000E+00  0.00000000000E+00  0.29983895874E+02  0.12854610713E+03  0.12500027059E+03 0.  0.
        -13    1    3    3    0    0 -0.36010059444E+02 -0.40250617306E+02  0.47339255285E+02  0.71818192947E+02  0.10570000000E+00 0.  1.
         13    1    3    3    0    0  0.36010059444E+02  0.40250617306E+02 -0.17355359411E+02  0.56727914183E+02  0.10570000000E+00 0. -1.
<mgrwt>
<rscale>  0 0.12500027E+03</rscale>
<asrwt>0</asrwt>
<pdfrwt beam="2">  1        3 0.75817085E-02 0.12500027E+03</pdfrwt>
<pdfrwt beam="1">  1       -3 0.12194616E-01 0.12500027E+03</pdfrwt>
<totfact> 0.13642013E+04</totfact>
</mgrwt>
</event>
<event>
 5    1  0.3126534E-047  0.1250010E+03  0.7818608E-02  0.1235068E+00
         -3   -1    0    0    0  501 -0.00000000000E+00  0.00000000000E+00  0.41026285055E+02  0.41026390463E+02  0.93000000000E-01 0.  1.
          3   -1    0    0  501    0  0.00000000000E+00 -0.00000000000E+00 -0.95214551809E+02  0.95214597228E+02  0.93000000000E-01 0. -1.
         25    2    1    2    0    0  0.00000000000E+00  0.00000000000E+00 -0.54188266755E+02  0.13624098769E+03  0.12500095389E+03 0.  0.
        -13    1    3    3    0    0 -0.60794351384E+02  0.13513030107E+02 -0.21353318559E+02  0.65837151585E+02  0.10570000000E+00 0.  1.
         13    1    3    3    0    0  0.60794351384E+02 -0.13513030107E+02 -0.32834948196E+02  0.70403836106E+02  0.10570000000E+00 0. -1.
<mgrwt>
<rscale>  0 0.12500095E+03</rscale>
<asrwt>0</asrwt>
<pdfrwt beam="2">  1        3 0.14648404E-01 0.12500095E+03</pdfrwt>
<pdfrwt beam="1">  1       -3 0.63117478E-02 0.12500095E+03</pdfrwt>
<totfact> 0.13441119E+04</totfact>
</mgrwt>
</event>
<event>
 4    1  0.2989269E-047  0.1248433E+03  0.7818608E-02  0.1235314E+00
          3   -1    0    0  501    0  0.00000000000E+00  0.00000000000E+00  0.38568835763E+02  0.38568947887E+02  0.93000000000E-01 0. -1.
         -3   -1    0    0    0  501 -0.00000000000E+00 -0.00000000000E+00 -0.10102591758E+03  0.10102596038E+03  0.93000000000E-01 0.  1.
        -13    1    1    2    0    0 -0.47415633150E+02  0.20814597529E+01  0.14107016741E+02  0.49513572236E+02  0.10570000000E+00 0. -1.
         13    1    1    2    0    0  0.47415633150E+02 -0.20814597529E+01 -0.76564098554E+02  0.90081336034E+02  0.10570000000E+00 0.  1.
<mgrwt>
<rscale>  0 0.12484331E+03</rscale>
<asrwt>0</asrwt>
<pdfrwt beam="1">  1        3 0.59336790E-02 0.12484331E+03</pdfrwt>
<pdfrwt beam="2">  1       -3 0.15542461E-01 0.12484331E+03</pdfrwt>
<totfact> 0.13403029E+04</totfact>
</mgrwt>
</event>
<event>
 5    1  0.2989269E-047  0.1250017E+03  0.7818608E-02  0.1235067E+00
         -3   -1    0    0    0  501 -0.00000000000E+00  0.00000000000E+00  0.37669572302E+03  0.37669573450E+03  0.93000000000E-01 0.  1.
          3   -1    0    0  501    0  0.00000000000E+00 -0.00000000000E+00 -0.10369839374E+02  0.10370256393E+02  0.93000000000E-01 0. -1.
         25    2    1    2    0    0  0.00000000000E+00  0.00000000000E+00  0.36632588365E+03  0.38706599089E+03  0.12500171310E+03 0.  0.
        -13    1    3    3    0    0 -0.53531175372E+02 -0.31399439228E+02  0.20609249032E+03  0.21523391290E+03  0.10570000000E+00 0.  1.
         13    1    3    3    0    0  0.53531175372E+02  0.31399439228E+02  0.16023339332E+03  0.17183207800E+03  0.10570000000E+00 0. -1.
<mgrwt>
<rscale>  0 0.12500171E+03</rscale>
<asrwt>0</asrwt>
<pdfrwt beam="2">  1        3 0.15953928E-02 0.12500171E+03</pdfrwt>
<pdfrwt beam="1">  1       -3 0.57953222E-01 0.12500171E+03</pdfrwt>
<totfact> 0.88826577E+03</totfact>
</mgrwt>
</event>
<event>
 5    1  0.2989269E-047  0.1250026E+03  0.7818608E-02  0.1235065E+00
         -3   -1    0    0    0  501 -0.00000000000E+00  0.00000000000E+00  0.91389134061E+02  0.91389181381E+02  0.93000000000E-01 0.  1.
          3   -1    0    0  501    0  0.00000000000E+00 -0.00000000000E+00 -0.42744706410E+02  0.42744807580E+02  0.93000000000E-01 0. -1.
         25    2    1    2    0    0  0.00000000000E+00  0.00000000000E+00  0.48644427651E+02  0.13413398896E+03  0.12500258659E+03 0.  0.
        -13    1    3    3    0    0 -0.40634778556E+02  0.42209254122E+02  0.97027225074E+00  0.58598284639E+02  0.10570000000E+00 0. -1.
         13    1    3    3    0    0  0.40634778556E+02 -0.42209254122E+02  0.47674155400E+02  0.75535704323E+02  0.10570000000E+00 0.  1.
<mgrwt>
<rscale>  0 0.12500259E+03</rscale>
<asrwt>0</asrwt>
<pdfrwt beam="2">  1        3 0.65761201E-02 0.12500259E+03</pdfrwt>
<pdfrwt beam="1">  1       -3 0.14059878E-01 0.12500259E+03</pdfrwt>
<totfact> 0.13495197E+04</totfact>
</mgrwt>
</event>
<event>
 5    1  0.2989269E-047  0.1250027E+03  0.7818608E-02  0.1235065E+00
          3   -1    0    0  501    0  0.00000000000E+00  0.00000000000E+00  0.15095527010E+03  0.15095529875E+03  0.93000000000E-01 0. -1.
         -3   -1    0    0    0  501 -0.00000000000E+00 -0.00000000000E+00 -0.25877854662E+02  0.25878021773E+02  0.93000000000E-01 0.  1.
         25    2    1    2    0    0  0.00000000000E+00  0.00000000000E+00  0.12507741544E+03  0.17683332052E+03  0.12500265355E+03 0.  0.
        -13    1    3    3    0    0  0.38209670738E+02 -0.46819930130E+02  0.85098496297E+02  0.10437360797E+03  0.10570000000E+00 0.  1.
         13    1    3    3    0    0 -0.38209670738E+02  0.46819930130E+02  0.39978919140E+02  0.72459712554E+02  0.10570000000E+00 0. -1.
<mgrwt>
<rscale>  0 0.12500265E+03</rscale>
<asrwt>0</asrwt>
<pdfrwt beam="1">  1        3 0.23223902E-01 0.12500265E+03</pdfrwt>
<pdfrwt beam="2">  1       -3 0.39812236E-02 0.12500265E+03</pdfrwt>
<totfact> 0.12464315E+04</totfact>
</mgrwt>
</event>
<event>
 5    1  0.2989269E-047  0.1250206E+03  0.7818608E-02  0.1235037E+00
          3   -1    0    0  501    0  0.00000000000E+00  0.00000000000E+00  0.17308602255E+03  0.17308604753E+03  0.93000000000E-01 0. -1.
         -3   -1    0    0    0  501 -0.00000000000E+00 -0.00000000000E+00 -0.22575571013E+02  0.22575762569E+02  0.93000000000E-01 0.  1.
         25    2    1    2    0    0  0.00000000000E+00  0.00000000000E+00  0.15051045154E+03  0.19566181010E+03  0.12502058995E+03 0.  0.
        -13    1    3    3    0    0  0.18155487711E+02 -0.55844959226E+02  0.41716500473E+02  0.72031651302E+02  0.10570000000E+00 0.  1.
         13    1    3    3    0    0 -0.18155487711E+02  0.55844959226E+02  0.10879395106E+03  0.12363015880E+03  0.10570000000E+00 0. -1.
<mgrwt>
<rscale>  0 0.12502059E+03</rscale>
<asrwt>0</asrwt>
<pdfrwt beam="1">  1        3 0.26628634E-01 0.12502059E+03</pdfrwt>
<pdfrwt beam="2">  1       -3 0.34731816E-02 0.12502059E+03</pdfrwt>
<totfact> 0.12048145E+04</totfact>
</mgrwt>
</event>
<event>
 5    1  0.2989269E-047  0.1250292E+03  0.7818608E-02  0.1235024E+00
          3   -1    0    0  501    0  0.00000000000E+00  0.00000000000E+00  0.27276418703E+02  0.27276577246E+02  0.93000000000E-01 0. -1.
         -3   -1    0    0    0  501 -0.00000000000E+00 -0.00000000000E+00 -0.14327613149E+03  0.14327616168E+03  0.93000000000E-01 0.  1.
         25    2    1    2    0    0  0.00000000000E+00  0.00000000000E+00 -0.11599971279E+03  0.17055273892E+03  0.12502921013E+03 0.  0.
        -13    1    3    3    0    0  0.23636875674E+02  0.10076530959E+02 -0.13573969026E+03  0.13815032773E+03  0.10570000000E+00 0.  1.
         13    1    3    3    0    0 -0.23636875674E+02 -0.10076530959E+02  0.19739977471E+02  0.32402411189E+02  0.10570000000E+00 0. -1.
<mgrwt>
<rscale>  0 0.12502921E+03</rscale>
<asrwt>0</asrwt>
<pdfrwt beam="1">  1        3 0.41963867E-02 0.12502921E+03</pdfrwt>
<pdfrwt beam="2">  1       -3 0.22042496E-01 0.12502921E+03</pdfrwt>
<totfact> 0.12599481E+04</totfact>
</mgrwt>
</event>
<event>
 5    1  0.2989269E-047  0.1249944E+03  0.7818608E-02  0.1235078E+00
         -3   -1    0    0    0  501 -0.00000000000E+00  0.00000000000E+00  0.14310483098E+03  0.14310486120E+03  0.93000000000E-01 0.  1.
          3   -1    0    0  501    0  0.00000000000E+00 -0.00000000000E+00 -0.27293867212E+02  0.27294025654E+02  0.93000000000E-01 0. -1.
         25    2    1    2    0    0  0.00000000000E+00  0.00000000000E+00  0.11581096377E+03  0.17039888686E+03  0.12499440512E+03 0.  0.
        -13    1    3    3    0    0 -0.54172572575E+02 -0.22407244038E+02  0.28378028007E+02  0.65131220247E+02  0.10570000000E+00 0. -1.
         13    1    3    3    0    0  0.54172572575E+02  0.22407244038E+02  0.87432935764E+02  0.10526766661E+03  0.10570000000E+00 0.  1.
<mgrwt>
<rscale>  0 0.12499441E+03</rscale>
<asrwt>0</asrwt>
<pdfrwt beam="2">  1        3 0.41990711E-02 0.12499441E+03</pdfrwt>
<pdfrwt beam="1">  1       -3 0.22016142E-01 0.12499441E+03</pdfrwt>
<totfact> 0.12612877E+04</totfact>
</mgrwt>
</event>
<event>
 5    1  0.2989269E-047  0.1249960E+03  0.7818608E-02  0.1235076E+00
         -3   -1    0    0    0  501 -0.00000000000E+00  0.00000000000E+00  0.37907393235E+02  0.37907507315E+02  0.93000000000E-01 0.  1.
          3   -1    0    0  501    0  0.00000000000E+00 -0.00000000000E+00 -0.10304028309E+03  0.10304032506E+03  0.93000000000E-01 0. -1.
         25    2    1    2    0    0  0.00000000000E+00  0.00000000000E+00 -0.65132889857E+02  0.14094783238E+03  0.12499599238E+03 0.  0.
        -13    1    3    3    0    0 -0.29946462475E+02 -0.52372304442E+02 -0.14163807226E+02  0.61969940253E+02  0.10570000000E+00 0.  1.
         13    1    3    3    0    0  0.29946462475E+02  0.52372304442E+02 -0.50969082632E+02  0.78977892123E+02  0.10570000000E+00 0. -1.
<mgrwt>
<rscale>  0 0.12499599E+03</rscale>
<asrwt>0</asrwt>
<pdfrwt beam="2">  1        3 0.15852363E-01 0.12499599E+03</pdfrwt>
<pdfrwt beam="1">  1       -3 0.58319187E-02 0.12499599E+03</pdfrwt>
<totfact> 0.13322405E+04</totfact>
</mgrwt>
</event>
<event>
 5    1  0.2989269E-047  0.1250050E+03  0.7818608E-02  0.1235062E+00
         -3   -1    0    0    0  501 -0.00000000000E+00  0.00000000000E+00  0.94835347673E+02  0.94835393273E+02  0.93000000000E-01 0.  1.
          3   -1    0    0  501    0  0.00000000000E+00 -0.00000000000E+00 -0.41192983074E+02  0.41193088056E+02  0.93000000000E-01 0. -1.
         25    2    1    2    0    0  0.00000000000E+00  0.00000000000E+00  0.53642364598E+02  0.13602848133E+03  0.12500497771E+03 0.  0.
        -13    1    3    3    0    0  0.21782304835E+02 -0.53363196992E+02  0.53128486796E+02  0.78388435874E+02  0.10570000000E+00 0.  1.
         13    1    3    3    0    0 -0.21782304835E+02  0.53363196992E+02  0.51387780262E+00  0.57640045454E+02  0.10570000000E+00 0. -1.
<mgrwt>
<rscale>  0 0.12500498E+03</rscale>
<asrwt>0</asrwt>
<pdfrwt beam="2">  1        3 0.63373938E-02 0.12500498E+03</pdfrwt>
<pdfrwt beam="1">  1       -3 0.14590065E-01 0.12500498E+03</pdfrwt>
<totfact> 0.13445559E+04</totfact>
</mgrwt>
</event>
<event>
 5    1  0.2989269E-047  0.1249995E+03  0.7818608E-02  0.1235070E+00
          3   -1    0    0  501    0  0.00000000000E+00  0.00000000000E+00  0.44090265098E+03  0.44090266079E+03  0.93000000000E-01 0. -1.
         -3   -1    0    0    0  501 -0.00000000000E+00 -0.00000000000E+00 -0.88593432420E+01  0.88598313573E+01  0.93000000000E-01 0.  1.
         25    2    1    2    0    0  0.00000000000E+00  0.00000000000E+00  0.43204330774E+03  0.44976249215E+03  0.12499951832E+03 0.  0.
        -13    1    3    3    0    0  0.31285259604E+02  0.50130578040E+02  0.28926482868E+03  0.29523887719E+03  0.10570000000E+00 0. -1.
         13    1    3    3    0    0 -0.31285259604E+02 -0.50130578040E+02  0.14277847906E+03  0.15452361496E+03  0.10570000000E+00 0.  1.
<mgrwt>
<rscale>  0 0.12499952E+03</rscale>
<asrwt>0</asrwt>
<pdfrwt beam="1">  1        3 0.67831205E-01 0.12499952E+03</pdfrwt>
<pdfrwt beam="2">  1       -3 0.13630144E-02 0.12499952E+03</pdfrwt>
<totfact> 0.81341152E+03</totfact>
</mgrwt>
</event>
<event>
 5    1  0.2989269E-047  0.1249995E+03  0.7818608E-02  0.1235070E+00
         -3   -1    0    0    0  501 -0.00000000000E+00  0.00000000000E+00  0.42979691011E+03  0.42979692018E+03  0.93000000000E-01 0.  1.
          3   -1    0    0  501    0  0.00000000000E+00 -0.00000000000E+00 -0.90882697621E+01  0.90887455828E+01  0.93000000000E-01 0. -1.
         25    2    1    2    0    0  0.00000000000E+00  0.00000000000E+00  0.42070864035E+03  0.43888566576E+03  0.12499947017E+03 0.  0.
        -13    1    3    3    0    0 -0.34136106623E+02  0.46213203261E+02  0.29673536212E+03  0.30224629069E+03  0.10570000000E+00 0.  1.
         13    1    3    3    0    0  0.34136106623E+02 -0.46213203261E+02  0.12397327824E+03  0.13663937507E+03  0.10570000000E+00 0. -1.
<mgrwt>
<rscale>  0 0.12499947E+03</rscale>
<asrwt>0</asrwt>
<pdfrwt beam="2">  1        3 0.13982328E-02 0.12499947E+03</pdfrwt>
<pdfrwt beam="1">  1       -3 0.66122636E-01 0.12499947E+03</pdfrwt>
<totfact> 0.82504303E+03</totfact>
</mgrwt>
</event>
<event>
 5    1  0.2989269E-047  0.1249985E+03  0.7818608E-02  0.1235072E+00
          3   -1    0    0  501    0  0.00000000000E+00  0.00000000000E+00  0.18096482080E+03  0.18096484470E+03  0.93000000000E-01 0. -1.
         -3   -1    0    0    0  501 -0.00000000000E+00 -0.00000000000E+00 -0.21585042109E+02  0.21585242456E+02  0.93000000000E-01 0.  1.
         25    2    1    2    0    0  0.00000000000E+00  0.00000000000E+00  0.15937977869E+03  0.20255008715E+03  0.12499849579E+03 0.  0.
        -13    1    3    3    0    0 -0.17047047313E+02  0.33458688606E+02  0.16064701567E+03  0.16497745446E+03  0.10570000000E+00 0. -1.
         13    1    3    3    0    0  0.17047047313E+02 -0.33458688606E+02 -0.12672369754E+01  0.37572632692E+02  0.10570000000E+00 0.  1.
<mgrwt>
<rscale>  0 0.12499850E+03</rscale>
<asrwt>0</asrwt>
<pdfrwt beam="1">  1        3 0.27840758E-01 0.12499850E+03</pdfrwt>
<pdfrwt beam="2">  1       -3 0.33207931E-02 0.12499850E+03</pdfrwt>
<totfact> 0.11909374E+04</totfact>
</mgrwt>
</event>
<event>
 5    1  0.2989269E-047  0.1249992E+03  0.7818608E-02  0.1235071E+00
         -3   -1    0    0    0  501 -0.00000000000E+00  0.00000000000E+00  0.32556782972E+02  0.32556915801E+02  0.93000000000E-01 0.  1.
          3   -1    0    0  501    0  0.00000000000E+00 -0.00000000000E+00 -0.11998069119E+03  0.11998072723E+03  0.93000000000E-01 0. -1.
         25    2    1    2    0    0  0.00000000000E+00  0.00000000000E+00 -0.87423908218E+02  0.15253764303E+03  0.12499917125E+03 0.  0.
        -13    1    3    3    0    0 -0.23706272255E+02 -0.25699452139E+02 -0.10692983636E+03  0.11250089005E+03  0.10570000000E+00 0. -1.
         13    1    3    3    0    0  0.23706272255E+02  0.25699452139E+02  0.19505928144E+02  0.40036752987E+02  0.10570000000E+00 0.  1.
<mgrwt>
<rscale>  0 0.12499917E+03</rscale>
<asrwt>0</asrwt>
<pdfrwt beam="2">  1        3 0.18458581E-01 0.12499917E+03</pdfrwt>
<pdfrwt beam="1">  1       -3 0.50087489E-02 0.12499917E+03</pdfrwt>
<totfact> 0.13034007E+04</totfact>
</mgrwt>
</event>
<event>
 5    1  0.2989269E-047  0.1249989E+03  0.7818608E-02  0.1235071E+00
          3   -1    0    0  501    0  0.00000000000E+00  0.00000000000E+00  0.15243651064E+02  0.15243934754E+02  0.93000000000E-01 0.  1.
         -3   -1    0    0    0  501 -0.00000000000E+00 -0.00000000000E+00 -0.25624717551E+03  0.25624719238E+03  0.93000000000E-01 0. -1.
         25    2    1    2    0    0  0.00000000000E+00  0.00000000000E+00 -0.24100352444E+03  0.27149112714E+03  0.12499893328E+03 0.  0.
        -13    1    3    3    0    0  0.36084373338E+02 -0.46890877663E+02 -0.16422947772E+03  0.17456279366E+03  0.10570000000E+00 0. -1.
         13    1    3    3    0    0 -0.36084373338E+02  0.46890877663E+02 -0.76774046724E+02  0.96928333474E+02  0.10570000000E+00 0.  1.
<mgrwt>
<rscale>  0 0.12499893E+03</rscale>
<asrwt>0</asrwt>
<pdfrwt beam="1">  1        3 0.23452004E-02 0.12499893E+03</pdfrwt>
<pdfrwt beam="2">  1       -3 0.39422662E-01 0.12499893E+03</pdfrwt>
<totfact> 0.10605261E+04</totfact>
</mgrwt>
</event>
<event>
 5    1  0.2989269E-047  0.1250000E+03  0.7818608E-02  0.1235069E+00
         -3   -1    0    0    0  501 -0.00000000000E+00  0.00000000000E+00  0.22832176483E+03  0.22832178377E+03  0.93000000000E-01 0.  1.
          3   -1    0    0  501    0  0.00000000000E+00 -0.00000000000E+00 -0.17108393159E+02  0.17108645928E+02  0.93000000000E-01 0. -1.
         25    2    1    2    0    0  0.00000000000E+00  0.00000000000E+00  0.21121337167E+03  0.24543042970E+03  0.12500002980E+03 0.  0.
        -13    1    3    3    0    0  0.52455584130E+02 -0.33914174427E+02  0.10145032407E+03  0.11913831861E+03  0.10570000000E+00 0.  1.
         13    1    3    3    0    0 -0.52455584130E+02  0.33914174427E+02  0.10976304760E+03  0.12629211109E+03  0.10570000000E+00 0. -1.
<mgrwt>
<rscale>  0 0.12500003E+03</rscale>
<asrwt>0</asrwt>
<pdfrwt beam="2">  1        3 0.26320815E-02 0.12500003E+03</pdfrwt>
<pdfrwt beam="1">  1       -3 0.35126445E-01 0.12500003E+03</pdfrwt>
<totfact> 0.11068244E+04</totfact>
</mgrwt>
</event>
<event>
 5    1  0.2989269E-047  0.1250349E+03  0.7818608E-02  0.1235015E+00
          3   -1    0    0  501    0  0.00000000000E+00  0.00000000000E+00  0.76560653619E+01  0.76566301874E+01  0.93000000000E-01 0. -1.
         -3   -1    0    0    0  501 -0.00000000000E+00 -0.00000000000E+00 -0.51048209916E+03  0.51048210763E+03  0.93000000000E-01 0.  1.
         25    2    1    2    0    0  0.00000000000E+00  0.00000000000E+00 -0.50282603380E+03  0.51813873782E+03  0.12503492058E+03 0.  0.
        -13    1    3    3    0    0  0.57114164841E+02  0.25223539041E+02 -0.23819977252E+03  0.24624661936E+03  0.10570000000E+00 0.  1.
         13    1    3    3    0    0 -0.57114164841E+02 -0.25223539041E+02 -0.26462626128E+03  0.27189211846E+03  0.10570000000E+00 0. -1.
<mgrwt>
<rscale>  0 0.12503492E+03</rscale>
<asrwt>0</asrwt>
<pdfrwt beam="1">  1        3 0.11779007E-02 0.12503492E+03</pdfrwt>
<pdfrwt beam="2">  1       -3 0.78535725E-01 0.12503492E+03</pdfrwt>
<totfact> 0.74035007E+03</totfact>
</mgrwt>
</event>
<event>
 5    1  0.2989269E-047  0.1249999E+03  0.7818608E-02  0.1235069E+00
          3   -1    0    0  501    0  0.00000000000E+00  0.00000000000E+00  0.14007883975E+02  0.14008192691E+02  0.93000000000E-01 0. -1.
         -3   -1    0    0    0  501 -0.00000000000E+00 -0.00000000000E+00 -0.27885681682E+03  0.27885683232E+03  0.93000000000E-01 0.  1.
         25    2    1    2    0    0  0.00000000000E+00  0.00000000000E+00 -0.26484893284E+03  0.29286502501E+03  0.12499986260E+03 0.  0.
        -13    1    3    3    0    0 -0.22288076028E+02 -0.43571261885E+02 -0.22349809828E+03  0.22879384673E+03  0.10570000000E+00 0.  1.
         13    1    3    3    0    0  0.22288076028E+02  0.43571261885E+02 -0.41350834564E+02  0.64071178286E+02  0.10570000000E+00 0. -1.
<mgrwt>
<rscale>  0 0.12499986E+03</rscale>
<asrwt>0</asrwt>
<pdfrwt beam="1">  1        3 0.21550842E-02 0.12499986E+03</pdfrwt>
<pdfrwt beam="2">  1       -3 0.42901070E-01 0.12499986E+03</pdfrwt>
<totfact> 0.10248115E+04</totfact>
</mgrwt>
</event>
<event>
 5    1  0.2989269E-047  0.1249983E+03  0.7818608E-02  0.1235072E+00
          3   -1    0    0  501    0  0.00000000000E+00  0.00000000000E+00  0.46683635207E+03  0.46683636134E+03  0.93000000000E-01 0. -1.
         -3   -1    0    0    0  501 -0.00000000000E+00 -0.00000000000E+00 -0.83669930691E+01  0.83675099055E+01  0.93000000000E-01 0.  1.
         25    2    1    2    0    0  0.00000000000E+00  0.00000000000E+00  0.45846935900E+03  0.47520387124E+03  0.12499826438E+03 0.  0.
        -13    1    3    3    0    0  0.45076212469E+02  0.34087952233E+02  0.33069598065E+03  0.33549023266E+03  0.10570000000E+00 0.  1.
         13    1    3    3    0    0 -0.45076212469E+02 -0.34087952233E+02  0.12777337835E+03  0.13971363858E+03  0.10570000000E+00 0. -1.
<mgrwt>
<rscale>  0 0.12499826E+03</rscale>
<asrwt>0</asrwt>
<pdfrwt beam="1">  1        3 0.71821014E-01 0.12499826E+03</pdfrwt>
<pdfrwt beam="2">  1       -3 0.12872702E-02 0.12499826E+03</pdfrwt>
<totfact> 0.78561124E+03</totfact>
</mgrwt>
</event>
<event>
 5    1  0.2989269E-047  0.1250010E+03  0.7818608E-02  0.1235068E+00
          3   -1    0    0  501    0  0.00000000000E+00  0.00000000000E+00  0.22053937093E+03  0.22053939053E+03  0.93000000000E-01 0.  1.
         -3   -1    0    0    0  501 -0.00000000000E+00 -0.00000000000E+00 -0.17712398737E+02  0.17712642886E+02  0.93000000000E-01 0. -1.
         25    2    1    2    0    0  0.00000000000E+00  0.00000000000E+00  0.20282697219E+03  0.23825203342E+03  0.12500100312E+03 0.  0.
        -13    1    3    3    0    0 -0.62438594491E+02  0.21601817009E+01  0.10474602180E+03  0.12196304654E+03  0.10570000000E+00 0. -1.
         13    1    3    3    0    0  0.62438594491E+02 -0.21601817009E+01  0.98080950392E+02  0.11628898688E+03  0.10570000000E+00 0.  1.
<mgrwt>
<rscale>  0 0.12500100E+03</rscale>
<asrwt>0</asrwt>
<pdfrwt beam="1">  1        3 0.33929155E-01 0.12500100E+03</pdfrwt>
<pdfrwt beam="2">  1       -3 0.27250046E-02 0.12500100E+03</pdfrwt>
<totfact> 0.11203224E+04</totfact>
</mgrwt>
</event>
<event>
 5    1  0.2989269E-047  0.1249994E+03  0.7818608E-02  0.1235070E+00
         -3   -1    0    0    0  501 -0.00000000000E+00  0.00000000000E+00  0.48169550370E+02  0.48169640147E+02  0.93000000000E-01 0.  1.
          3   -1    0    0  501    0  0.00000000000E+00 -0.00000000000E+00 -0.81092816666E+02  0.81092869993E+02  0.93000000000E-01 0. -1.
         25    2    1    2    0    0  0.00000000000E+00  0.00000000000E+00 -0.32923266296E+02  0.12926251014E+03  0.12499942026E+03 0.  0.
        -13    1    3    3    0    0  0.53787287909E+02 -0.14531106009E+01  0.16419303889E+02  0.56256453707E+02  0.10570000000E+00 0.  1.
         13    1    3    3    0    0 -0.53787287909E+02  0.14531106009E+01 -0.49342570184E+02  0.73006056433E+02  0.10570000000E+00 0. -1.
<mgrwt>
<rscale>  0 0.12499942E+03</rscale>
<asrwt>0</asrwt>
<pdfrwt beam="2">  1        3 0.12475829E-01 0.12499942E+03</pdfrwt>
<pdfrwt beam="1">  1       -3 0.74107111E-02 0.12499942E+03</pdfrwt>
<totfact> 0.13623282E+04</totfact>
</mgrwt>
</event>
<event>
 5    1  0.2989269E-047  0.1249999E+03  0.7818608E-02  0.1235069E+00
         -3   -1    0    0    0  501 -0.00000000000E+00  0.00000000000E+00  0.36563025238E+03  0.36563026421E+03  0.93000000000E-01 0.  1.
          3   -1    0    0  501    0  0.00000000000E+00 -0.00000000000E+00 -0.10683369467E+02  0.10683774247E+02  0.93000000000E-01 0. -1.
         25    2    1    2    0    0  0.00000000000E+00  0.00000000000E+00  0.35494688291E+03  0.37631403846E+03  0.12499986339E+03 0.  0.
        -13    1    3    3    0    0  0.57785374565E+02  0.27193804845E+01  0.24869525119E+03  0.25533484619E+03  0.10570000000E+00 0.  1.
         13    1    3    3    0    0 -0.57785374565E+02 -0.27193804845E+01  0.10625163173E+03  0.12097919227E+03  0.10570000000E+00 0. -1.
<mgrwt>
<rscale>  0 0.12499986E+03</rscale>
<asrwt>0</asrwt>
<pdfrwt beam="2">  1        3 0.16436272E-02 0.12499986E+03</pdfrwt>
<pdfrwt beam="1">  1       -3 0.56250844E-01 0.12499986E+03</pdfrwt>
<totfact> 0.90237872E+03</totfact>
</mgrwt>
</event>
<event>
 5    1  0.2989269E-047  0.1249999E+03  0.7818608E-02  0.1235069E+00
         -3   -1    0    0    0  501 -0.00000000000E+00  0.00000000000E+00  0.20394422381E+03  0.20394424501E+03  0.93000000000E-01 0.  1.
          3   -1    0    0  501    0  0.00000000000E+00 -0.00000000000E+00 -0.19153350178E+02  0.19153575960E+02  0.93000000000E-01 0. -1.
         25    2    1    2    0    0  0.00000000000E+00  0.00000000000E+00  0.18479087363E+03  0.22309782097E+03  0.12499988298E+03 0.  0.
        -13    1    3    3    0    0 -0.43792465965E+02 -0.17082187383E+02  0.18879432801E+02  0.50655950849E+02  0.10570000000E+00 0. -1.
         13    1    3    3    0    0  0.43792465965E+02  0.17082187383E+02  0.16591144083E+03  0.17244187012E+03  0.10570000000E+00 0.  1.
<mgrwt>
<rscale>  0 0.12499988E+03</rscale>
<asrwt>0</asrwt>
<pdfrwt beam="2">  1        3 0.29466883E-02 0.12499988E+03</pdfrwt>
<pdfrwt beam="1">  1       -3 0.31376053E-01 0.12499988E+03</pdfrwt>
<totfact> 0.11492885E+04</totfact>
</mgrwt>
</event>
<event>
 5    1  0.2989269E-047  0.1250002E+03  0.7818608E-02  0.1235069E+00
         -3   -1    0    0    0  501 -0.00000000000E+00  0.00000000000E+00  0.29896738945E+02  0.29896883593E+02  0.93000000000E-01 0.  1.
          3   -1    0    0  501    0  0.00000000000E+00 -0.00000000000E+00 -0.13065805209E+03  0.13065808519E+03  0.93000000000E-01 0. -1.
         25    2    1    2    0    0  0.00000000000E+00  0.00000000000E+00 -0.10076131315E+03  0.16055496878E+03  0.12500022310E+03 0.  0.
        -13    1    3    3    0    0 -0.73256132731E+01  0.42157647327E+02  0.81327786669E+01  0.43555540398E+02  0.10570000000E+00 0.  1.
         13    1    3    3    0    0  0.73256132731E+01 -0.42157647327E+02 -0.10889409182E+03  0.11699942839E+03  0.10570000000E+00 0. -1.
<mgrwt>
<rscale>  0 0.12500022E+03</rscale>
<asrwt>0</asrwt>
<pdfrwt beam="2">  1        3 0.20101252E-01 0.12500022E+03</pdfrwt>
<pdfrwt beam="1">  1       -3 0.45995121E-02 0.12500022E+03</pdfrwt>
<totfact> 0.12841061E+04</totfact>
</mgrwt>
</event>
<event>
 5    1  0.2989269E-047  0.1250005E+03  0.7818608E-02  0.1235068E+00
          3   -1    0    0  501    0  0.00000000000E+00  0.00000000000E+00  0.55399109349E+02  0.55399187410E+02  0.93000000000E-01 0.  1.
         -3   -1    0    0    0  501 -0.00000000000E+00 -0.00000000000E+00 -0.70511520986E+02  0.70511582316E+02  0.93000000000E-01 0. -1.
         25    2    1    2    0    0  0.00000000000E+00  0.00000000000E+00 -0.15112411637E+02  0.12591076973E+03  0.12500054779E+03 0.  0.
        -13    1    3    3    0    0  0.19143074977E+02 -0.28839474584E+02 -0.59974555949E+02  0.69246885473E+02  0.10570000000E+00 0. -1.
         13    1    3    3    0    0 -0.19143074977E+02  0.28839474584E+02  0.44862144313E+02  0.56663884253E+02  0.10570000000E+00 0.  1.
<mgrwt>
<rscale>  0 0.12500055E+03</rscale>
<asrwt>0</asrwt>
<pdfrwt beam="1">  1        3 0.85229506E-02 0.12500055E+03</pdfrwt>
<pdfrwt beam="2">  1       -3 0.10847937E-01 0.12500055E+03</pdfrwt>
<totfact> 0.13711885E+04</totfact>
</mgrwt>
</event>
<event>
 5    1  0.2989269E-047  0.1249975E+03  0.7818608E-02  0.1235073E+00
          3   -1    0    0  501    0  0.00000000000E+00  0.00000000000E+00  0.10002576483E+03  0.10002580807E+03  0.93000000000E-01 0. -1.
         -3   -1    0    0    0  501 -0.00000000000E+00 -0.00000000000E+00 -0.39050788554E+02  0.39050899294E+02  0.93000000000E-01 0.  1.
         25    2    1    2    0    0  0.00000000000E+00  0.00000000000E+00  0.60974976279E+02  0.13907670736E+03  0.12499753117E+03 0.  0.
        -13    1    3    3    0    0 -0.13598658534E+02 -0.41639309667E+02 -0.19113215716E+02  0.47792068494E+02  0.10570000000E+00 0.  1.
         13    1    3    3    0    0  0.13598658534E+02  0.41639309667E+02  0.80088191995E+02  0.91284638866E+02  0.10570000000E+00 0. -1.
<mgrwt>
<rscale>  0 0.12499753E+03</rscale>
<asrwt>0</asrwt>
<pdfrwt beam="1">  1        3 0.15388591E-01 0.12499753E+03</pdfrwt>
<pdfrwt beam="2">  1       -3 0.60078256E-02 0.12499753E+03</pdfrwt>
<totfact> 0.13369529E+04</totfact>
</mgrwt>
</event>
<event>
 5    1  0.2989269E-047  0.1249984E+03  0.7818608E-02  0.1235072E+00
          3   -1    0    0  501    0  0.00000000000E+00  0.00000000000E+00  0.30356117566E+02  0.30356260025E+02  0.93000000000E-01 0. -1.
         -3   -1    0    0    0  501 -0.00000000000E+00 -0.00000000000E+00 -0.12867708773E+03  0.12867712134E+03  0.93000000000E-01 0.  1.
         25    2    1    2    0    0  0.00000000000E+00  0.00000000000E+00 -0.98320970167E+02  0.15903338137E+03  0.12499841285E+03 0.  0.
        -13    1    3    3    0    0  0.51315437776E+02  0.43029372366E+01 -0.94220693637E+02  0.10737476289E+03  0.10570000000E+00 0.  1.
         13    1    3    3    0    0 -0.51315437776E+02 -0.43029372366E+01 -0.41002765304E+01  0.51658618479E+02  0.10570000000E+00 0. -1.
<mgrwt>
<rscale>  0 0.12499841E+03</rscale>
<asrwt>0</asrwt>
<pdfrwt beam="1">  1        3 0.46701855E-02 0.12499841E+03</pdfrwt>
<pdfrwt beam="2">  1       -3 0.19796488E-01 0.12499841E+03</pdfrwt>
<totfact> 0.12877788E+04</totfact>
</mgrwt>
</event>
<event>
 5    1  0.2989269E-047  0.1250146E+03  0.7818608E-02  0.1235046E+00
         -3   -1    0    0    0  501 -0.00000000000E+00  0.00000000000E+00  0.53777096734E+02  0.53777177150E+02  0.93000000000E-01 0.  1.
          3   -1    0    0  501    0  0.00000000000E+00 -0.00000000000E+00 -0.72654630570E+02  0.72654690092E+02  0.93000000000E-01 0. -1.
         25    2    1    2    0    0  0.00000000000E+00  0.00000000000E+00 -0.18877533836E+02  0.12643186724E+03  0.12501462223E+03 0.  0.
        -13    1    3    3    0    0  0.25563257162E+02 -0.51556929015E+02  0.15241902823E+02  0.59530864434E+02  0.10570000000E+00 0. -1.
         13    1    3    3    0    0 -0.25563257162E+02  0.51556929015E+02 -0.34119436659E+02  0.66901002807E+02  0.10570000000E+00 0.  1.
<mgrwt>
<rscale>  0 0.12501462E+03</rscale>
<asrwt>0</asrwt>
<pdfrwt beam="2">  1        3 0.11177646E-01 0.12501462E+03</pdfrwt>
<pdfrwt beam="1">  1       -3 0.82734102E-02 0.12501462E+03</pdfrwt>
<totfact> 0.13693494E+04</totfact>
</mgrwt>
</event>
<event>
 5    1  0.2989269E-047  0.1249996E+03  0.7818608E-02  0.1235070E+00
          3   -1    0    0  501    0  0.00000000000E+00  0.00000000000E+00  0.29722110274E+03  0.29722111729E+03  0.93000000000E-01 0. -1.
         -3   -1    0    0    0  501 -0.00000000000E+00 -0.00000000000E+00 -0.13142312978E+02  0.13142642026E+02  0.93000000000E-01 0.  1.
         25    2    1    2    0    0  0.00000000000E+00  0.00000000000E+00  0.28407878976E+03  0.31036375932E+03  0.12499961722E+03 0.  0.
        -13    1    3    3    0    0 -0.58228726273E+02  0.22476690787E+02  0.13402118085E+03  0.14784273496E+03  0.10570000000E+00 0.  1.
         13    1    3    3    0    0  0.58228726273E+02 -0.22476690787E+02  0.15005760892E+03  0.16252102436E+03  0.10570000000E+00 0. -1.
<mgrwt>
<rscale>  0 0.12499962E+03</rscale>
<asrwt>0</asrwt>
<pdfrwt beam="1">  1        3 0.45726350E-01 0.12499962E+03</pdfrwt>
<pdfrwt beam="2">  1       -3 0.20219207E-02 0.12499962E+03</pdfrwt>
<totfact> 0.99739459E+03</totfact>
</mgrwt>
</event>
<event>
 5    1  0.2989269E-047  0.1250021E+03  0.7818608E-02  0.1235066E+00
          3   -1    0    0  501    0  0.00000000000E+00  0.00000000000E+00  0.29524816092E+02  0.29524962561E+02  0.93000000000E-01 0. -1.
         -3   -1    0    0    0  501 -0.00000000000E+00 -0.00000000000E+00 -0.13230785680E+03  0.13230788949E+03  0.93000000000E-01 0.  1.
         25    2    1    2    0    0  0.00000000000E+00  0.00000000000E+00 -0.10278304071E+03  0.16183285205E+03  0.12500207416E+03 0.  0.
        -13    1    3    3    0    0  0.45254931758E+02  0.28683538096E+02 -0.93054322772E+02  0.10737724324E+03  0.10570000000E+00 0.  1.
         13    1    3    3    0    0 -0.45254931758E+02 -0.28683538096E+02 -0.97287179407E+01  0.54455608814E+02  0.10570000000E+00 0. -1.
<mgrwt>
<rscale>  0 0.12500207E+03</rscale>
<asrwt>0</asrwt>
<pdfrwt beam="1">  1        3 0.45422932E-02 0.12500207E+03</pdfrwt>
<pdfrwt beam="2">  1       -3 0.20355068E-01 0.12500207E+03</pdfrwt>
<totfact> 0.12810274E+04</totfact>
</mgrwt>
</event>
<event>
 5    1  0.2989269E-047  0.1249989E+03  0.7818608E-02  0.1235071E+00
         -3   -1    0    0    0  501 -0.00000000000E+00  0.00000000000E+00  0.16416566159E+03  0.16416568794E+03  0.93000000000E-01 0.  1.
          3   -1    0    0  501    0  0.00000000000E+00 -0.00000000000E+00 -0.23794018365E+02  0.23794200112E+02  0.93000000000E-01 0. -1.
         25    2    1    2    0    0  0.00000000000E+00  0.00000000000E+00  0.14037164323E+03  0.18795988805E+03  0.12499888516E+03 0.  0.
        -13    1    3    3    0    0 -0.53071322140E+01 -0.62269429911E+02  0.69099830002E+02  0.93168907006E+02  0.10570000000E+00 0.  1.
         13    1    3    3    0    0  0.53071322140E+01  0.62269429911E+02  0.71271813226E+02  0.94790981042E+02  0.10570000000E+00 0. -1.
<mgrwt>
<rscale>  0 0.12499889E+03</rscale>
<asrwt>0</asrwt>
<pdfrwt beam="2">  1        3 0.36606342E-02 0.12499889E+03</pdfrwt>
<pdfrwt beam="1">  1       -3 0.25256271E-01 0.12499889E+03</pdfrwt>
<totfact> 0.12218862E+04</totfact>
</mgrwt>
</event>
<event>
 5    1  0.2989269E-047  0.1249983E+03  0.7818608E-02  0.1235072E+00
         -3   -1    0    0    0  501 -0.00000000000E+00  0.00000000000E+00  0.24298142033E+02  0.24298320009E+02  0.93000000000E-01 0.  1.
          3   -1    0    0  501    0  0.00000000000E+00 -0.00000000000E+00 -0.16075816640E+03  0.16075819330E+03  0.93000000000E-01 0. -1.
         25    2    1    2    0    0  0.00000000000E+00  0.00000000000E+00 -0.13646002437E+03  0.18505651331E+03  0.12499829946E+03 0.  0.
        -13    1    3    3    0    0 -0.45575210455E+02  0.38797583340E+02 -0.94869474608E+02  0.11217210289E+03  0.10570000000E+00 0. -1.
         13    1    3    3    0    0  0.45575210455E+02 -0.38797583340E+02 -0.41590549758E+02  0.72884410423E+02  0.10570000000E+00 0.  1.
<mgrwt>
<rscale>  0 0.12499830E+03</rscale>
<asrwt>0</asrwt>
<pdfrwt beam="2">  1        3 0.24732041E-01 0.12499830E+03</pdfrwt>
<pdfrwt beam="1">  1       -3 0.37381916E-02 0.12499830E+03</pdfrwt>
<totfact> 0.12282852E+04</totfact>
</mgrwt>
</event>
<event>
 5    1  0.2989269E-047  0.1250207E+03  0.7818608E-02  0.1235037E+00
         -3   -1    0    0    0  501 -0.00000000000E+00  0.00000000000E+00  0.14461259894E+02  0.14461558931E+02  0.93000000000E-01 0.  1.
          3   -1    0    0  501    0  0.00000000000E+00 -0.00000000000E+00 -0.27020454910E+03  0.27020456511E+03  0.93000000000E-01 0. -1.
         25    2    1    2    0    0  0.00000000000E+00  0.00000000000E+00 -0.25574328921E+03  0.28466612404E+03  0.12502068709E+03 0.  0.
        -13    1    3    3    0    0 -0.60695487993E+00  0.52596351134E+02 -0.50966348007E+02  0.73241547967E+02  0.10570000000E+00 0.  1.
         13    1    3    3    0    0  0.60695487993E+00 -0.52596351134E+02 -0.20477694120E+03  0.21142457607E+03  0.10570000000E+00 0. -1.
<mgrwt>
<rscale>  0 0.12502069E+03</rscale>
<asrwt>0</asrwt>
<pdfrwt beam="2">  1        3 0.41569951E-01 0.12502069E+03</pdfrwt>
<pdfrwt beam="1">  1       -3 0.22248337E-02 0.12502069E+03</pdfrwt>
<totfact> 0.10380785E+04</totfact>
</mgrwt>
</event>
<event>
 5    1  0.2989269E-047  0.1249956E+03  0.7818608E-02  0.1235076E+00
         -3   -1    0    0    0  501 -0.00000000000E+00  0.00000000000E+00  0.17160936760E+02  0.17161188755E+02  0.93000000000E-01 0.  1.
          3   -1    0    0  501    0  0.00000000000E+00 -0.00000000000E+00 -0.22760647363E+03  0.22760649263E+03  0.93000000000E-01 0. -1.
         25    2    1    2    0    0  0.00000000000E+00  0.00000000000E+00 -0.21044553687E+03  0.24476768139E+03  0.12499557537E+03 0.  0.
        -13    1    3    3    0    0 -0.38295202710E+02 -0.45912473029E+02 -0.69570178179E+02  0.91730576116E+02  0.10570000000E+00 0.  1.
         13    1    3    3    0    0  0.38295202710E+02  0.45912473029E+02 -0.14087535869E+03  0.15303710527E+03  0.10570000000E+00 0. -1.
<mgrwt>
<rscale>  0 0.12499558E+03</rscale>
<asrwt>0</asrwt>
<pdfrwt beam="2">  1        3 0.35016399E-01 0.12499558E+03</pdfrwt>
<pdfrwt beam="1">  1       -3 0.26401651E-02 0.12499558E+03</pdfrwt>
<totfact> 0.11083397E+04</totfact>
</mgrwt>
</event>
<event>
 5    1  0.2989269E-047  0.1250014E+03  0.7818608E-02  0.1235067E+00
         -3   -1    0    0    0  501 -0.00000000000E+00  0.00000000000E+00  0.15358031441E+03  0.15358034256E+03  0.93000000000E-01 0.  1.
          3   -1    0    0  501    0  0.00000000000E+00 -0.00000000000E+00 -0.25435018601E+02  0.25435188622E+02  0.93000000000E-01 0. -1.
         25    2    1    2    0    0  0.00000000000E+00  0.00000000000E+00  0.12814529581E+03  0.17901553119E+03  0.12500137427E+03 0.  0.
        -13    1    3    3    0    0  0.48141855394E+02  0.18151809984E+02  0.11489128149E+03  0.12588544071E+03  0.10570000000E+00 0.  1.
         13    1    3    3    0    0 -0.48141855394E+02 -0.18151809984E+02  0.13254014313E+02  0.53130090480E+02  0.10570000000E+00 0. -1.
<mgrwt>
<rscale>  0 0.12500137E+03</rscale>
<asrwt>0</asrwt>
<pdfrwt beam="2">  1        3 0.39130951E-02 0.12500137E+03</pdfrwt>
<pdfrwt beam="1">  1       -3 0.23627756E-01 0.12500137E+03</pdfrwt>
<totfact> 0.12415431E+04</totfact>
</mgrwt>
</event>
<event>
 5    1  0.2989269E-047  0.1249989E+03  0.7818608E-02  0.1235071E+00
          3   -1    0    0  501    0  0.00000000000E+00  0.00000000000E+00  0.88121859341E+01  0.88126766614E+01  0.93000000000E-01 0. -1.
         -3   -1    0    0    0  501 -0.00000000000E+00 -0.00000000000E+00 -0.44325739203E+03  0.44325740179E+03  0.93000000000E-01 0.  1.
         25    2    1    2    0    0  0.00000000000E+00  0.00000000000E+00 -0.43444520610E+03  0.45207007845E+03  0.12499887491E+03 0.  0.
        -13    1    3    3    0    0 -0.59460381788E+02 -0.95310768509E+01 -0.27771709255E+03  0.28417102789E+03  0.10570000000E+00 0.  1.
         13    1    3    3    0    0  0.59460381788E+02  0.95310768509E+01 -0.15672811355E+03  0.16789905056E+03  0.10570000000E+00 0. -1.
<mgrwt>
<rscale>  0 0.12499887E+03</rscale>
<asrwt>0</asrwt>
<pdfrwt beam="1">  1        3 0.13557598E-02 0.12499887E+03</pdfrwt>
<pdfrwt beam="2">  1       -3 0.68193466E-01 0.12499887E+03</pdfrwt>
<totfact> 0.81006923E+03</totfact>
</mgrwt>
</event>
<event>
 5    1  0.2989269E-047  0.1249997E+03  0.7818608E-02  0.1235070E+00
         -3   -1    0    0    0  501 -0.00000000000E+00  0.00000000000E+00  0.60948504293E+02  0.60948575246E+02  0.93000000000E-01 0.  1.
          3   -1    0    0  501    0  0.00000000000E+00 -0.00000000000E+00 -0.64090556529E+02  0.64090624003E+02  0.93000000000E-01 0. -1.
         25    2    1    2    0    0  0.00000000000E+00  0.00000000000E+00 -0.31420522357E+01  0.12503919925E+03  0.12499971543E+03 0.  0.
        -13    1    3    3    0    0 -0.19088506573E+02  0.52912105644E+02  0.25680174999E+02  0.61834816789E+02  0.10570000000E+00 0.  1.
         13    1    3    3    0    0  0.19088506573E+02 -0.52912105644E+02 -0.28822227235E+02  0.63204382460E+02  0.10570000000E+00 0. -1.
<mgrwt>
<rscale>  0 0.12499972E+03</rscale>
<asrwt>0</asrwt>
<pdfrwt beam="2">  1        3 0.98600963E-02 0.12499972E+03</pdfrwt>
<pdfrwt beam="1">  1       -3 0.93767036E-02 0.12499972E+03</pdfrwt>
<totfact> 0.13735461E+04</totfact>
</mgrwt>
</event>
<event>
 5    1  0.2989269E-047  0.1250003E+03  0.7818608E-02  0.1235069E+00
         -3   -1    0    0    0  501 -0.00000000000E+00  0.00000000000E+00  0.17806993684E+03  0.17806996112E+03  0.93000000000E-01 0.  1.
          3   -1    0    0  501    0  0.00000000000E+00 -0.00000000000E+00 -0.21936594308E+02  0.21936791444E+02  0.93000000000E-01 0. -1.
         25    2    1    2    0    0  0.00000000000E+00  0.00000000000E+00  0.15613334253E+03  0.20000675257E+03  0.12500032169E+03 0.  0.
        -13    1    3    3    0    0  0.97558444166E+01  0.33412907050E+02  0.16112544628E+03  0.16484240798E+03  0.10570000000E+00 0.  1.
         13    1    3    3    0    0 -0.97558444166E+01 -0.33412907050E+02 -0.49921037497E+01  0.35164344586E+02  0.10570000000E+00 0. -1.
<mgrwt>
<rscale>  0 0.12500032E+03</rscale>
<asrwt>0</asrwt>
<pdfrwt beam="2">  1        3 0.33748777E-02 0.12500032E+03</pdfrwt>
<pdfrwt beam="1">  1       -3 0.27395392E-01 0.12500032E+03</pdfrwt>
<totfact> 0.11961306E+04</totfact>
</mgrwt>
</event>
<event>
 5    1  0.2989269E-047  0.1249967E+03  0.7818608E-02  0.1235074E+00
         -3   -1    0    0    0  501 -0.00000000000E+00  0.00000000000E+00  0.73817277341E+02  0.73817335925E+02  0.93000000000E-01 0.  1.
          3   -1    0    0  501    0  0.00000000000E+00 -0.00000000000E+00 -0.52914935958E+02  0.52915017683E+02  0.93000000000E-01 0. -1.
         25    2    1    2    0    0  0.00000000000E+00  0.00000000000E+00  0.20902341384E+02  0.12673235361E+03  0.12499672626E+03 0.  0.
        -13    1    3    3    0    0  0.24861204856E+02 -0.41150818412E+02  0.50937644761E+02  0.70043730549E+02  0.10570000000E+00 0.  1.
         13    1    3    3    0    0 -0.24861204856E+02  0.41150818412E+02 -0.30035303377E+02  0.56688623059E+02  0.10570000000E+00 0. -1.
<mgrwt>
<rscale>  0 0.12499673E+03</rscale>
<asrwt>0</asrwt>
<pdfrwt beam="2">  1        3 0.81407702E-02 0.12499673E+03</pdfrwt>
<pdfrwt beam="1">  1       -3 0.11356515E-01 0.12499673E+03</pdfrwt>
<totfact> 0.13691113E+04</totfact>
</mgrwt>
</event>
<event>
 5    1  0.2989269E-047  0.1250009E+03  0.7818608E-02  0.1235068E+00
         -3   -1    0    0    0  501 -0.00000000000E+00  0.00000000000E+00  0.83121731713E+02  0.83121783739E+02  0.93000000000E-01 0.  1.
          3   -1    0    0  501    0  0.00000000000E+00 -0.00000000000E+00 -0.46994860724E+02  0.46994952744E+02  0.93000000000E-01 0. -1.
         25    2    1    2    0    0  0.00000000000E+00  0.00000000000E+00  0.36126870989E+02  0.13011673648E+03  0.12500085722E+03 0.  0.
        -13    1    3    3    0    0  0.12708784743E+02  0.40587050448E+02  0.65735954937E+02  0.78294628282E+02  0.10570000000E+00 0.  1.
         13    1    3    3    0    0 -0.12708784743E+02 -0.40587050448E+02 -0.29609083948E+02  0.51822108202E+02  0.10570000000E+00 0. -1.
<mgrwt>
<rscale>  0 0.12500086E+03</rscale>
<asrwt>0</asrwt>
<pdfrwt beam="2">  1        3 0.72299897E-02 0.12500086E+03</pdfrwt>
<pdfrwt beam="1">  1       -3 0.12787970E-01 0.12500086E+03</pdfrwt>
<totfact> 0.13600616E+04</totfact>
</mgrwt>
</event>
<event>
 5    1  0.2989269E-047  0.1250003E+03  0.7818608E-02  0.1235069E+00
         -3   -1    0    0    0  501 -0.00000000000E+00  0.00000000000E+00  0.10488257941E+02  0.10488670251E+02  0.93000000000E-01 0.  1.
          3   -1    0    0  501    0  0.00000000000E+00 -0.00000000000E+00 -0.37243451670E+03  0.37243452831E+03  0.93000000000E-01 0. -1.
         25    2    1    2    0    0  0.00000000000E+00  0.00000000000E+00 -0.36194625876E+03  0.38292319856E+03  0.12500032707E+03 0.  0.
        -13    1    3    3    0    0  0.22037993164E+02 -0.52931419128E+02 -0.10476635569E+03  0.11942951365E+03  0.10570000000E+00 0.  1.
         13    1    3    3    0    0 -0.22037993164E+02  0.52931419128E+02 -0.25717990307E+03  0.26349368491E+03  0.10570000000E+00 0. -1.
<mgrwt>
<rscale>  0 0.12500033E+03</rscale>
<asrwt>0</asrwt>
<pdfrwt beam="2">  1        3 0.57297640E-01 0.12500033E+03</pdfrwt>
<pdfrwt beam="1">  1       -3 0.16136110E-02 0.12500033E+03</pdfrwt>
<totfact> 0.89425227E+03</totfact>
</mgrwt>
</event>
<event>
 5    1  0.2989269E-047  0.1250007E+03  0.7818608E-02  0.1235068E+00
         -3   -1    0    0    0  501 -0.00000000000E+00  0.00000000000E+00  0.28175273682E+02  0.28175427168E+02  0.93000000000E-01 0.  1.
          3   -1    0    0  501    0  0.00000000000E+00 -0.00000000000E+00 -0.13864216124E+03  0.13864219243E+03  0.93000000000E-01 0. -1.
         25    2    1    2    0    0  0.00000000000E+00  0.00000000000E+00 -0.11046688756E+03  0.16681761960E+03  0.12500073985E+03 0.  0.
        -13    1    3    3    0    0 -0.47875552320E+02 -0.17305211092E+02 -0.68440364562E+01  0.51365268892E+02  0.10570000000E+00 0.  1.
         13    1    3    3    0    0  0.47875552320E+02  0.17305211092E+02 -0.10362285110E+03  0.11545235071E+03  0.10570000000E+00 0. -1.
<mgrwt>
<rscale>  0 0.12500074E+03</rscale>
<asrwt>0</asrwt>
<pdfrwt beam="2">  1        3 0.21329577E-01 0.12500074E+03</pdfrwt>
<pdfrwt beam="1">  1       -3 0.43346718E-02 0.12500074E+03</pdfrwt>
<totfact> 0.12693940E+04</totfact>
</mgrwt>
</event>
<event>
 5    1  0.2989269E-047  0.1249834E+03  0.7818608E-02  0.1235095E+00
         -3   -1    0    0    0  501 -0.00000000000E+00  0.00000000000E+00  0.93529982152E+01  0.93534605689E+01  0.93000000000E-01 0.  1.
          3   -1    0    0  501    0  0.00000000000E+00 -0.00000000000E+00 -0.41752528624E+03  0.41752529659E+03  0.93000000000E-01 0. -1.
         25    2    1    2    0    0  0.00000000000E+00  0.00000000000E+00 -0.40817228802E+03  0.42687875716E+03  0.12498342533E+03 0.  0.
        -13    1    3    3    0    0 -0.32625472073E+02  0.51485548993E+02 -0.25116777997E+03  0.25845782644E+03  0.10570000000E+00 0.  1.
         13    1    3    3    0    0  0.32625472073E+02 -0.51485548993E+02 -0.15700450805E+03  0.16842093072E+03  0.10570000000E+00 0. -1.
<mgrwt>
<rscale>  0 0.12498343E+03</rscale>
<asrwt>0</asrwt>
<pdfrwt beam="2">  1        3 0.64234681E-01 0.12498343E+03</pdfrwt>
<pdfrwt beam="1">  1       -3 0.14389595E-02 0.12498343E+03</pdfrwt>
<totfact> 0.84006102E+03</totfact>
</mgrwt>
</event>
<event>
 5    1  0.2989269E-047  0.1250093E+03  0.7818608E-02  0.1235055E+00
         -3   -1    0    0    0  501 -0.00000000000E+00  0.00000000000E+00  0.31859126842E+02  0.31859262580E+02  0.93000000000E-01 0.  1.
          3   -1    0    0  501    0  0.00000000000E+00 -0.00000000000E+00 -0.12262786706E+03  0.12262790232E+03  0.93000000000E-01 0. -1.
         25    2    1    2    0    0  0.00000000000E+00  0.00000000000E+00 -0.90768740218E+02  0.15448716490E+03  0.12500927933E+03 0.  0.
        -13    1    3    3    0    0 -0.26049947686E+02 -0.44786862373E+02 -0.21778783260E+01  0.51857662329E+02  0.10570000000E+00 0.  1.
         13    1    3    3    0    0  0.26049947686E+02  0.44786862373E+02 -0.88590861892E+02  0.10262950258E+03  0.10570000000E+00 0. -1.
<mgrwt>
<rscale>  0 0.12500928E+03</rscale>
<asrwt>0</asrwt>
<pdfrwt beam="2">  1        3 0.18865839E-01 0.12500928E+03</pdfrwt>
<pdfrwt beam="1">  1       -3 0.49014174E-02 0.12500928E+03</pdfrwt>
<totfact> 0.12983807E+04</totfact>
</mgrwt>
</event>
<event>
 5    1  0.2989269E-047  0.1249989E+03  0.7818608E-02  0.1235071E+00
         -3   -1    0    0    0  501 -0.00000000000E+00  0.00000000000E+00  0.16385540512E+02  0.16385804432E+02  0.93000000000E-01 0.  1.
          3   -1    0    0  501    0  0.00000000000E+00 -0.00000000000E+00 -0.23838987428E+03  0.23838989242E+03  0.93000000000E-01 0. -1.
         25    2    1    2    0    0  0.00000000000E+00  0.00000000000E+00 -0.22200433377E+03  0.25477569685E+03  0.12499892598E+03 0.  0.
        -13    1    3    3    0    0 -0.36199727996E+02  0.49287361655E+02 -0.84701397437E+02  0.10447010207E+03  0.10570000000E+00 0.  1.
         13    1    3    3    0    0  0.36199727996E+02 -0.49287361655E+02 -0.13730293633E+03  0.15030559478E+03  0.10570000000E+00 0. -1.
<mgrwt>
<rscale>  0 0.12499893E+03</rscale>
<asrwt>0</asrwt>
<pdfrwt beam="2">  1        3 0.36675385E-01 0.12499893E+03</pdfrwt>
<pdfrwt beam="1">  1       -3 0.25208743E-02 0.12499893E+03</pdfrwt>
<totfact> 0.10900687E+04</totfact>
</mgrwt>
</event>
<event>
 5    1  0.2989269E-047  0.1249941E+03  0.7818608E-02  0.1235079E+00
          3   -1    0    0  501    0  0.00000000000E+00  0.00000000000E+00  0.12526169973E+03  0.12526173426E+03  0.93000000000E-01 0. -1.
         -3   -1    0    0    0  501 -0.00000000000E+00 -0.00000000000E+00 -0.31181656005E+02  0.31181794692E+02  0.93000000000E-01 0.  1.
         25    2    1    2    0    0  0.00000000000E+00  0.00000000000E+00  0.94080043729E+02  0.15644352895E+03  0.12499409235E+03 0.  0.
        -13    1    3    3    0    0  0.57241804052E+02 -0.23833285676E+02  0.37247046194E+02  0.72332587814E+02  0.10570000000E+00 0. -1.
         13    1    3    3    0    0 -0.57241804052E+02  0.23833285676E+02  0.56832997536E+02  0.84110941135E+02  0.10570000000E+00 0.  1.
<mgrwt>
<rscale>  0 0.12499409E+03</rscale>
<asrwt>0</asrwt>
<pdfrwt beam="1">  1        3 0.19271044E-01 0.12499409E+03</pdfrwt>
<pdfrwt beam="2">  1       -3 0.47971911E-02 0.12499409E+03</pdfrwt>
<totfact> 0.12941032E+04</totfact>
</mgrwt>
</event>
<event>
 5    1  0.2989269E-047  0.1249999E+03  0.7818608E-02  0.1235070E+00
         -3   -1    0    0    0  501 -0.00000000000E+00  0.00000000000E+00  0.28407207680E+02  0.28407359912E+02  0.93000000000E-01 0.  1.
          3   -1    0    0  501    0  0.00000000000E+00 -0.00000000000E+00 -0.13750825100E+03  0.13750828244E+03  0.93000000000E-01 0. -1.
         25    2    1    2    0    0  0.00000000000E+00  0.00000000000E+00 -0.10910104332E+03  0.16591564236E+03  0.12499985090E+03 0.  0.
        -13    1    3    3    0    0 -0.56785274986E+02  0.21960711157E+02 -0.35807971828E+02  0.70633294619E+02  0.10570000000E+00 0.  1.
         13    1    3    3    0    0  0.56785274986E+02 -0.21960711157E+02 -0.73293071488E+02  0.95282347737E+02  0.10570000000E+00 0. -1.
<mgrwt>
<rscale>  0 0.12499985E+03</rscale>
<asrwt>0</asrwt>
<pdfrwt beam="2">  1        3 0.21155129E-01 0.12499985E+03</pdfrwt>
<pdfrwt beam="1">  1       -3 0.43703538E-02 0.12499985E+03</pdfrwt>
<totfact> 0.12715173E+04</totfact>
</mgrwt>
</event>
<event>
 5    1  0.2989269E-047  0.1249991E+03  0.7818608E-02  0.1235071E+00
          3   -1    0    0  501    0  0.00000000000E+00  0.00000000000E+00  0.29165846210E+02  0.29165994482E+02  0.93000000000E-01 0. -1.
         -3   -1    0    0    0  501 -0.00000000000E+00 -0.00000000000E+00 -0.13392986099E+03  0.13392989328E+03  0.93000000000E-01 0.  1.
         25    2    1    2    0    0  0.00000000000E+00  0.00000000000E+00 -0.10476401478E+03  0.16309588776E+03  0.12499907924E+03 0.  0.
        -13    1    3    3    0    0 -0.25637332021E+02 -0.47771109204E+02 -0.92952582951E+02  0.10760829669E+03  0.10570000000E+00 0.  1.
         13    1    3    3    0    0  0.25637332021E+02  0.47771109204E+02 -0.11811431826E+02  0.55487591063E+02  0.10570000000E+00 0. -1.
<mgrwt>
<rscale>  0 0.12499908E+03</rscale>
<asrwt>0</asrwt>
<pdfrwt beam="1">  1        3 0.44870672E-02 0.12499908E+03</pdfrwt>
<pdfrwt beam="2">  1       -3 0.20604608E-01 0.12499908E+03</pdfrwt>
<totfact> 0.12781357E+04</totfact>
</mgrwt>
</event>
<event>
 5    1  0.2989269E-047  0.1249971E+03  0.7818608E-02  0.1235074E+00
          3   -1    0    0  501    0  0.00000000000E+00  0.00000000000E+00  0.82496609637E+01  0.82501851504E+01  0.93000000000E-01 0. -1.
         -3   -1    0    0    0  501 -0.00000000000E+00 -0.00000000000E+00 -0.47346669614E+03  0.47346670527E+03  0.93000000000E-01 0.  1.
         25    2    1    2    0    0  0.00000000000E+00  0.00000000000E+00 -0.46521703517E+03  0.48171689042E+03  0.12499709077E+03 0.  0.
        -13    1    3    3    0    0 -0.56071067938E+02  0.23622432505E+02 -0.28766199687E+03  0.29402622263E+03  0.10570000000E+00 0.  1.
         13    1    3    3    0    0  0.56071067938E+02 -0.23622432505E+02 -0.17755503830E+03  0.18769066779E+03  0.10570000000E+00 0. -1.
<mgrwt>
<rscale>  0 0.12499709E+03</rscale>
<asrwt>0</asrwt>
<pdfrwt beam="1">  1        3 0.12692200E-02 0.12499709E+03</pdfrwt>
<pdfrwt beam="2">  1       -3 0.72841050E-01 0.12499709E+03</pdfrwt>
<totfact> 0.77790036E+03</totfact>
</mgrwt>
</event>
<event>
 5    1  0.2989269E-047  0.1249989E+03  0.7818608E-02  0.1235071E+00
          3   -1    0    0  501    0  0.00000000000E+00  0.00000000000E+00  0.12927737738E+02  0.12928072247E+02  0.93000000000E-01 0. -1.
         -3   -1    0    0    0  501 -0.00000000000E+00 -0.00000000000E+00 -0.30215080427E+03  0.30215081859E+03  0.93000000000E-01 0.  1.
         25    2    1    2    0    0  0.00000000000E+00  0.00000000000E+00 -0.28922306654E+03  0.31507889083E+03  0.12499890092E+03 0.  0.
        -13    1    3    3    0    0 -0.15067555096E+02 -0.46986199933E+02 -0.24130203026E+03  0.24629538198E+03  0.10570000000E+00 0.  1.
         13    1    3    3    0    0  0.15067555096E+02  0.46986199933E+02 -0.47921036273E+02  0.68783508857E+02  0.10570000000E+00 0. -1.
<mgrwt>
<rscale>  0 0.12499890E+03</rscale>
<asrwt>0</asrwt>
<pdfrwt beam="1">  1        3 0.19889098E-02 0.12499890E+03</pdfrwt>
<pdfrwt beam="2">  1       -3 0.46484761E-01 0.12499890E+03</pdfrwt>
<totfact> 0.98976056E+03</totfact>
</mgrwt>
</event>
<event>
 5    1  0.3135698E-047  0.1249987E+03  0.7818608E-02  0.1235071E+00
          3   -1    0    0  501    0  0.00000000000E+00  0.00000000000E+00  0.34090697882E+02  0.34090824735E+02  0.93000000000E-01 0. -1.
         -3   -1    0    0    0  501 -0.00000000000E+00 -0.00000000000E+00 -0.11458128074E+03  0.11458131848E+03  0.93000000000E-01 0.  1.
         25    2    1    2    0    0  0.00000000000E+00  0.00000000000E+00 -0.80490582856E+02  0.14867214321E+03  0.12499868895E+03 0.  0.
        -13    1    3    3    0    0  0.23992675502E+02  0.56254338583E+02 -0.55567556773E+02  0.82631492939E+02  0.10570000000E+00 0.  1.
         13    1    3    3    0    0 -0.23992675502E+02 -0.56254338583E+02 -0.24923026083E+02  0.66040650276E+02  0.10570000000E+00 0. -1.
<mgrwt>
<rscale>  0 0.12499869E+03</rscale>
<asrwt>0</asrwt>
<pdfrwt beam="1">  1        3 0.52447355E-02 0.12499869E+03</pdfrwt>
<pdfrwt beam="2">  1       -3 0.17627902E-01 0.12499869E+03</pdfrwt>
<totfact> 0.13128819E+04</totfact>
</mgrwt>
</event>
<event>
 5    1  0.2989269E-047  0.1249990E+03  0.7818608E-02  0.1235071E+00
         -3   -1    0    0    0  501 -0.00000000000E+00  0.00000000000E+00  0.35128650569E+02  0.35128773674E+02  0.93000000000E-01 0. -1.
          3   -1    0    0  501    0  0.00000000000E+00 -0.00000000000E+00 -0.11119624709E+03  0.11119628598E+03  0.93000000000E-01 0.  1.
         25    2    1    2    0    0  0.00000000000E+00  0.00000000000E+00 -0.76067596521E+02  0.14632505965E+03  0.12499897537E+03 0.  0.
        -13    1    3    3    0    0  0.43639549929E+02 -0.20791259438E+02  0.83419848964E+01  0.49053915965E+02  0.10570000000E+00 0. -1.
         13    1    3    3    0    0 -0.43639549929E+02  0.20791259438E+02 -0.84409581417E+02  0.97271143689E+02  0.10570000000E+00 0.  1.
<mgrwt>
<rscale>  0 0.12499898E+03</rscale>
<asrwt>0</asrwt>
<pdfrwt beam="2">  1        3 0.17107127E-01 0.12499898E+03</pdfrwt>
<pdfrwt beam="1">  1       -3 0.54044203E-02 0.12499898E+03</pdfrwt>
<totfact> 0.13186633E+04</totfact>
</mgrwt>
</event>
<event>
 5    1  0.2989269E-047  0.1249994E+03  0.7818608E-02  0.1235070E+00
          3   -1    0    0  501    0  0.00000000000E+00  0.00000000000E+00  0.30154632334E+02  0.30154775744E+02  0.93000000000E-01 0. -1.
         -3   -1    0    0    0  501 -0.00000000000E+00 -0.00000000000E+00 -0.12953895260E+03  0.12953898598E+03  0.93000000000E-01 0.  1.
         25    2    1    2    0    0  0.00000000000E+00  0.00000000000E+00 -0.99384320262E+02  0.15969376172E+03  0.12499941768E+03 0.  0.
        -13    1    3    3    0    0  0.35142041888E+02 -0.39614290528E+02 -0.92101389027E+02  0.10623997438E+03  0.10570000000E+00 0.  1.
         13    1    3    3    0    0 -0.35142041888E+02  0.39614290528E+02 -0.72829312347E+01  0.53453787349E+02  0.10570000000E+00 0. -1.
<mgrwt>
<rscale>  0 0.12499942E+03</rscale>
<asrwt>0</asrwt>
<pdfrwt beam="1">  1        3 0.46391879E-02 0.12499942E+03</pdfrwt>
<pdfrwt beam="2">  1       -3 0.19929083E-01 0.12499942E+03</pdfrwt>
<totfact> 0.12861764E+04</totfact>
</mgrwt>
</event>
<event>
 5    1  0.2989269E-047  0.1250014E+03  0.7818608E-02  0.1235067E+00
          3   -1    0    0  501    0  0.00000000000E+00  0.00000000000E+00  0.12690368420E+03  0.12690371828E+03  0.93000000000E-01 0. -1.
         -3   -1    0    0    0  501 -0.00000000000E+00 -0.00000000000E+00 -0.30781783018E+02  0.30781923507E+02  0.93000000000E-01 0.  1.
         25    2    1    2    0    0  0.00000000000E+00  0.00000000000E+00  0.96121901184E+02  0.15768564179E+03  0.12500136695E+03 0.  0.
        -13    1    3    3    0    0  0.53651913206E+02  0.25589884174E+02  0.23699384883E+02  0.63992515023E+02  0.10570000000E+00 0.  1.
         13    1    3    3    0    0 -0.53651913206E+02 -0.25589884174E+02  0.72422516301E+02  0.93693126763E+02  0.10570000000E+00 0. -1.
<mgrwt>
<rscale>  0 0.12500137E+03</rscale>
<asrwt>0</asrwt>
<pdfrwt beam="1">  1        3 0.19523657E-01 0.12500137E+03</pdfrwt>
<pdfrwt beam="2">  1       -3 0.47356723E-02 0.12500137E+03</pdfrwt>
<totfact> 0.12909107E+04</totfact>
</mgrwt>
</event>
<event>
 5    1  0.2989269E-047  0.1250045E+03  0.7818608E-02  0.1235062E+00
          3   -1    0    0  501    0  0.00000000000E+00  0.00000000000E+00  0.14703264458E+03  0.14703267400E+03  0.93000000000E-01 0. -1.
         -3   -1    0    0    0  501 -0.00000000000E+00 -0.00000000000E+00 -0.26569013779E+02  0.26569176543E+02  0.93000000000E-01 0.  1.
         25    2    1    2    0    0  0.00000000000E+00  0.00000000000E+00  0.12046363081E+03  0.17360185054E+03  0.12500446458E+03 0.  0.
        -13    1    3    3    0    0  0.81345596105E+01  0.60492056769E+02  0.78918727258E+02  0.99767914064E+02  0.10570000000E+00 0. -1.
         13    1    3    3    0    0 -0.81345596105E+01 -0.60492056769E+02  0.41544903548E+02  0.73833936475E+02  0.10570000000E+00 0.  1.
<mgrwt>
<rscale>  0 0.12500446E+03</rscale>
<asrwt>0</asrwt>
<pdfrwt beam="1">  1        3 0.22620422E-01 0.12500446E+03</pdfrwt>
<pdfrwt beam="2">  1       -3 0.40875554E-02 0.12500446E+03</pdfrwt>
<totfact> 0.12536927E+04</totfact>
</mgrwt>
</event>
<event>
 5    1  0.2989269E-047  0.1250006E+03  0.7818608E-02  0.1235068E+00
         -3   -1    0    0    0  501 -0.00000000000E+00  0.00000000000E+00  0.26391075672E+03  0.26391077310E+03  0.93000000000E-01 0.  1.
          3   -1    0    0  501    0  0.00000000000E+00 -0.00000000000E+00 -0.14801378560E+02  0.14801670725E+02  0.93000000000E-01 0. -1.
         25    2    1    2    0    0  0.00000000000E+00  0.00000000000E+00  0.24910937816E+03  0.27871244383E+03  0.12500057623E+03 0.  0.
        -13    1    3    3    0    0 -0.57809600931E+02 -0.12358444089E+02  0.16979011937E+03  0.17978703209E+03  0.10570000000E+00 0.  1.
         13    1    3    3    0    0  0.57809600931E+02  0.12358444089E+02  0.79319258784E+02  0.98925411734E+02  0.10570000000E+00 0. -1.
<mgrwt>
<rscale>  0 0.12500058E+03</rscale>
<asrwt>0</asrwt>
<pdfrwt beam="2">  1        3 0.22771593E-02 0.12500058E+03</pdfrwt>
<pdfrwt beam="1">  1       -3 0.40601672E-01 0.12500058E+03</pdfrwt>
<totfact> 0.10482041E+04</totfact>
</mgrwt>
</event>
<event>
 5    1  0.2989269E-047  0.1249988E+03  0.7818608E-02  0.1235071E+00
         -3   -1    0    0    0  501 -0.00000000000E+00  0.00000000000E+00  0.36719401770E+03  0.36719402947E+03  0.93000000000E-01 0.  1.
          3   -1    0    0  501    0  0.00000000000E+00 -0.00000000000E+00 -0.10637682632E+02  0.10638089150E+02  0.93000000000E-01 0. -1.
         25    2    1    2    0    0  0.00000000000E+00  0.00000000000E+00  0.35655633507E+03  0.37783211863E+03  0.12499875915E+03 0.  0.
        -13    1    3    3    0    0  0.16595099916E+02  0.58177384574E+02  0.13085415910E+03  0.14416250394E+03  0.10570000000E+00 0.  1.
         13    1    3    3    0    0 -0.16595099916E+02 -0.58177384574E+02  0.22570217597E+03  0.23366961468E+03  0.10570000000E+00 0. -1.
<mgrwt>
<rscale>  0 0.12499876E+03</rscale>
<asrwt>0</asrwt>
<pdfrwt beam="2">  1        3 0.16365990E-02 0.12499876E+03</pdfrwt>
<pdfrwt beam="1">  1       -3 0.56491412E-01 0.12499876E+03</pdfrwt>
<totfact> 0.90039245E+03</totfact>
</mgrwt>
</event>
<event>
 5    1  0.2989269E-047  0.1250036E+03  0.7818608E-02  0.1235064E+00
         -3   -1    0    0    0  501 -0.00000000000E+00  0.00000000000E+00  0.10463280154E+02  0.10463693449E+02  0.93000000000E-01 0.  1.
          3   -1    0    0  501    0  0.00000000000E+00 -0.00000000000E+00 -0.37334331082E+03  0.37334332240E+03  0.93000000000E-01 0. -1.
         25    2    1    2    0    0  0.00000000000E+00  0.00000000000E+00 -0.36288003066E+03  0.38380701585E+03  0.12500363499E+03 0.  0.
        -13    1    3    3    0    0 -0.10913895680E+02 -0.56243307393E+02 -0.10473961691E+03  0.11938518027E+03  0.10570000000E+00 0.  1.
         13    1    3    3    0    0  0.10913895680E+02  0.56243307393E+02 -0.25814041375E+03  0.26442183558E+03  0.10570000000E+00 0. -1.
<mgrwt>
<rscale>  0 0.12500363E+03</rscale>
<asrwt>0</asrwt>
<pdfrwt beam="2">  1        3 0.57437455E-01 0.12500363E+03</pdfrwt>
<pdfrwt beam="1">  1       -3 0.16097684E-02 0.12500363E+03</pdfrwt>
<totfact> 0.89303641E+03</totfact>
</mgrwt>
</event>
<event>
 5    1  0.2989269E-047  0.1249994E+03  0.7818608E-02  0.1235070E+00
         -3   -1    0    0    0  501 -0.00000000000E+00  0.00000000000E+00  0.98874426717E+02  0.98874470454E+02  0.93000000000E-01 0.  1.
          3   -1    0    0  501    0  0.00000000000E+00 -0.00000000000E+00 -0.39506722577E+02  0.39506832039E+02  0.93000000000E-01 0. -1.
         25    2    1    2    0    0  0.00000000000E+00  0.00000000000E+00  0.59367704140E+02  0.13838130249E+03  0.12499944234E+03 0.  0.
        -13    1    3    3    0    0  0.61576595487E+02 -0.10453438613E+02  0.27146669783E+02  0.68102161078E+02  0.10570000000E+00 0.  1.
         13    1    3    3    0    0 -0.61576595487E+02  0.10453438613E+02  0.32221034357E+02  0.70279141416E+02  0.10570000000E+00 0. -1.
<mgrwt>
<rscale>  0 0.12499944E+03</rscale>
<asrwt>0</asrwt>
<pdfrwt beam="2">  1        3 0.60779692E-02 0.12499944E+03</pdfrwt>
<pdfrwt beam="1">  1       -3 0.15211462E-01 0.12499944E+03</pdfrwt>
<totfact> 0.13386921E+04</totfact>
</mgrwt>
</event>
<event>
 5    1  0.2989269E-047  0.1249997E+03  0.7818608E-02  0.1235070E+00
         -3   -1    0    0    0  501 -0.00000000000E+00  0.00000000000E+00  0.10632305193E+03  0.10632309261E+03  0.93000000000E-01 0.  1.
          3   -1    0    0  501    0  0.00000000000E+00 -0.00000000000E+00 -0.36739150139E+02  0.36739267847E+02  0.93000000000E-01 0. -1.
         25    2    1    2    0    0  0.00000000000E+00  0.00000000000E+00  0.69583901795E+02  0.14306236045E+03  0.12499967836E+03 0.  0.
        -13    1    3    3    0    0  0.58140586569E+02  0.21149660201E+02  0.44937608876E+02  0.76465912648E+02  0.10570000000E+00 0.  1.
         13    1    3    3    0    0 -0.58140586569E+02 -0.21149660201E+02  0.24646292920E+02  0.66596447806E+02  0.10570000000E+00 0. -1.
<mgrwt>
<rscale>  0 0.12499968E+03</rscale>
<asrwt>0</asrwt>
<pdfrwt beam="2">  1        3 0.56521890E-02 0.12499968E+03</pdfrwt>
<pdfrwt beam="1">  1       -3 0.16357405E-01 0.12499968E+03</pdfrwt>
<totfact> 0.13268113E+04</totfact>
</mgrwt>
</event>
<event>
 5    1  0.2989269E-047  0.1250006E+03  0.7818608E-02  0.1235068E+00
         -3   -1    0    0    0  501 -0.00000000000E+00  0.00000000000E+00  0.16253886804E+03  0.16253889465E+03  0.93000000000E-01 0.  1.
          3   -1    0    0  501    0  0.00000000000E+00 -0.00000000000E+00 -0.24032815872E+02  0.24032995813E+02  0.93000000000E-01 0. -1.
         25    2    1    2    0    0  0.00000000000E+00  0.00000000000E+00  0.13850605217E+03  0.18657189046E+03  0.12500057529E+03 0.  0.
        -13    1    3    3    0    0 -0.16090571705E+02 -0.58167756484E+02  0.93498895387E+02  0.11128543931E+03  0.10570000000E+00 0.  1.
         13    1    3    3    0    0  0.16090571705E+02  0.58167756484E+02  0.45007156784E+02  0.75286451148E+02  0.10570000000E+00 0. -1.
<mgrwt>
<rscale>  0 0.12500058E+03</rscale>
<asrwt>0</asrwt>
<pdfrwt beam="2">  1        3 0.36973723E-02 0.12500058E+03</pdfrwt>
<pdfrwt beam="1">  1       -3 0.25005995E-01 0.12500058E+03</pdfrwt>
<totfact> 0.12248644E+04</totfact>
</mgrwt>
</event>
<event>
 5    1  0.2989269E-047  0.1249982E+03  0.7818608E-02  0.1235072E+00
         -3   -1    0    0    0  501 -0.00000000000E+00  0.00000000000E+00  0.25455259402E+02  0.25455429288E+02  0.93000000000E-01 0.  1.
          3   -1    0    0  501    0  0.00000000000E+00 -0.00000000000E+00 -0.15345039315E+03  0.15345042133E+03  0.93000000000E-01 0. -1.
         25    2    1    2    0    0  0.00000000000E+00  0.00000000000E+00 -0.12799513375E+03  0.17890585062E+03  0.12499819648E+03 0.  0.
        -13    1    3    3    0    0 -0.39054941076E+02 -0.41878751798E+02 -0.99836682110E+02  0.11509340790E+03  0.10570000000E+00 0.  1.
         13    1    3    3    0    0  0.39054941076E+02  0.41878751798E+02 -0.28158451637E+02  0.63812442719E+02  0.10570000000E+00 0. -1.
<mgrwt>
<rscale>  0 0.12499820E+03</rscale>
<asrwt>0</asrwt>
<pdfrwt beam="2">  1        3 0.23607768E-01 0.12499820E+03</pdfrwt>
<pdfrwt beam="1">  1       -3 0.39162091E-02 0.12499820E+03</pdfrwt>
<totfact> 0.12419063E+04</totfact>
</mgrwt>
</event>
<event>
 5    1  0.2989269E-047  0.1249992E+03  0.7818608E-02  0.1235070E+00
          3   -1    0    0  501    0  0.00000000000E+00  0.00000000000E+00  0.92730937292E+01  0.92735600667E+01  0.93000000000E-01 0. -1.
         -3   -1    0    0    0  501 -0.00000000000E+00 -0.00000000000E+00 -0.42122935383E+03  0.42122936410E+03  0.93000000000E-01 0.  1.
         25    2    1    2    0    0  0.00000000000E+00  0.00000000000E+00 -0.41195626010E+03  0.43050292417E+03  0.12499922990E+03 0.  0.
        -13    1    3    3    0    0 -0.57618368563E+02  0.20602251682E+02 -0.16216133742E+03  0.17332235775E+03  0.10570000000E+00 0.  1.
         13    1    3    3    0    0  0.57618368563E+02 -0.20602251682E+02 -0.24979492268E+03  0.25718056641E+03  0.10570000000E+00 0. -1.
<mgrwt>
<rscale>  0 0.12499923E+03</rscale>
<asrwt>0</asrwt>
<pdfrwt beam="1">  1        3 0.14266668E-02 0.12499923E+03</pdfrwt>
<pdfrwt beam="2">  1       -3 0.64804538E-01 0.12499923E+03</pdfrwt>
<totfact> 0.83479689E+03</totfact>
</mgrwt>
</event>
<event>
 5    1  0.2989269E-047  0.1249988E+03  0.7818608E-02  0.1235071E+00
         -3   -1    0    0    0  501 -0.00000000000E+00  0.00000000000E+00  0.99196510477E+01  0.99200869909E+01  0.93000000000E-01 0.  1.
          3   -1    0    0  501    0  0.00000000000E+00 -0.00000000000E+00 -0.39377269643E+03  0.39377270741E+03  0.93000000000E-01 0. -1.
         25    2    1    2    0    0  0.00000000000E+00  0.00000000000E+00 -0.38385304538E+03  0.40369279440E+03  0.12499884721E+03 0.  0.
        -13    1    3    3    0    0  0.14968212429E+02 -0.60680360494E+02 -0.19155483610E+03  0.20149297739E+03  0.10570000000E+00 0.  1.
         13    1    3    3    0    0 -0.14968212429E+02  0.60680360494E+02 -0.19229820928E+03  0.20219981701E+03  0.10570000000E+00 0. -1.
<mgrwt>
<rscale>  0 0.12499885E+03</rscale>
<asrwt>0</asrwt>
<pdfrwt beam="2">  1        3 0.60580437E-01 0.12499885E+03</pdfrwt>
<pdfrwt beam="1">  1       -3 0.15261348E-02 0.12499885E+03</pdfrwt>
<totfact> 0.86785417E+03</totfact>
</mgrwt>
</event>
<event>
 5    1  0.2989269E-047  0.1250020E+03  0.7818608E-02  0.1235066E+00
          3   -1    0    0  501    0  0.00000000000E+00  0.00000000000E+00  0.48386867582E+03  0.48386868476E+03  0.93000000000E-01 0. -1.
         -3   -1    0    0    0  501 -0.00000000000E+00 -0.00000000000E+00 -0.80729367245E+01  0.80734723854E+01  0.93000000000E-01 0.  1.
         25    2    1    2    0    0  0.00000000000E+00  0.00000000000E+00  0.47579573909E+03  0.49194215714E+03  0.12500200251E+03 0.  0.
        -13    1    3    3    0    0 -0.36204878777E+02  0.47070067105E+02  0.16118342121E+03  0.17177453510E+03  0.10570000000E+00 0.  1.
         13    1    3    3    0    0  0.36204878777E+02 -0.47070067105E+02  0.31461231789E+03  0.32016762204E+03  0.10570000000E+00 0. -1.
<mgrwt>
<rscale>  0 0.12500200E+03</rscale>
<asrwt>0</asrwt>
<pdfrwt beam="1">  1        3 0.74441389E-01 0.12500200E+03</pdfrwt>
<pdfrwt beam="2">  1       -3 0.12420320E-02 0.12500200E+03</pdfrwt>
<totfact> 0.76803913E+03</totfact>
</mgrwt>
</event>
<event>
 5    1  0.2989269E-047  0.1250000E+03  0.7818608E-02  0.1235069E+00
          3   -1    0    0  501    0  0.00000000000E+00  0.00000000000E+00  0.37335570341E+02  0.37335686168E+02  0.93000000000E-01 0. -1.
         -3   -1    0    0    0  501 -0.00000000000E+00 -0.00000000000E+00 -0.10462518040E+03  0.10462522173E+03  0.93000000000E-01 0.  1.
         25    2    1    2    0    0  0.00000000000E+00  0.00000000000E+00 -0.67289610059E+02  0.14196090790E+03  0.12500003100E+03 0.  0.
        -13    1    3    3    0    0 -0.38409897992E+02 -0.34866540606E+02 -0.73235264466E+02  0.89746370687E+02  0.10570000000E+00 0.  1.
         13    1    3    3    0    0  0.38409897992E+02  0.34866540606E+02  0.59456544074E+01  0.52214537214E+02  0.10570000000E+00 0. -1.
<mgrwt>
<rscale>  0 0.12500003E+03</rscale>
<asrwt>0</asrwt>
<pdfrwt beam="1">  1        3 0.57439460E-02 0.12500003E+03</pdfrwt>
<pdfrwt beam="2">  1       -3 0.16096194E-01 0.12500003E+03</pdfrwt>
<totfact> 0.13295755E+04</totfact>
</mgrwt>
</event>
<event>
 5    1  0.2989269E-047  0.1250014E+03  0.7818608E-02  0.1235067E+00
          3   -1    0    0  501    0  0.00000000000E+00  0.00000000000E+00  0.26142687569E+02  0.26142852988E+02  0.93000000000E-01 0.  1.
         -3   -1    0    0    0  501 -0.00000000000E+00 -0.00000000000E+00 -0.14942303694E+03  0.14942306588E+03  0.93000000000E-01 0. -1.
         25    2    1    2    0    0  0.00000000000E+00  0.00000000000E+00 -0.12328034937E+03  0.17556591887E+03  0.12500138930E+03 0.  0.
        -13    1    3    3    0    0 -0.58421610498E+02  0.40001091877E+01 -0.30957452400E+02  0.66237908166E+02  0.10570000000E+00 0.  1.
         13    1    3    3    0    0  0.58421610498E+02 -0.40001091877E+01 -0.92322896974E+02  0.10932801071E+03  0.10570000000E+00 0. -1.
<mgrwt>
<rscale>  0 0.12500139E+03</rscale>
<asrwt>0</asrwt>
<pdfrwt beam="1">  1        3 0.40219670E-02 0.12500139E+03</pdfrwt>
<pdfrwt beam="2">  1       -3 0.22988174E-01 0.12500139E+03</pdfrwt>
<totfact> 0.12493025E+04</totfact>
</mgrwt>
</event>
<event>
 5    1  0.2989269E-047  0.1250002E+03  0.7818608E-02  0.1235069E+00
          3   -1    0    0  501    0  0.00000000000E+00  0.00000000000E+00  0.61549343469E+02  0.61549413730E+02  0.93000000000E-01 0. -1.
         -3   -1    0    0    0  501 -0.00000000000E+00 -0.00000000000E+00 -0.63465383624E+02  0.63465451764E+02  0.93000000000E-01 0.  1.
         25    2    1    2    0    0  0.00000000000E+00  0.00000000000E+00 -0.19160401550E+01  0.12501486549E+03  0.12500018154E+03 0.  0.
        -13    1    3    3    0    0  0.26035118653E+02  0.52225855583E+02  0.21425019591E+02  0.62164379122E+02  0.10570000000E+00 0.  1.
         13    1    3    3    0    0 -0.26035118653E+02 -0.52225855583E+02 -0.23341059746E+02  0.62850486372E+02  0.10570000000E+00 0. -1.
<mgrwt>
<rscale>  0 0.12500018E+03</rscale>
<asrwt>0</asrwt>
<pdfrwt beam="1">  1        3 0.94691404E-02 0.12500018E+03</pdfrwt>
<pdfrwt beam="2">  1       -3 0.97639159E-02 0.12500018E+03</pdfrwt>
<totfact> 0.13735976E+04</totfact>
</mgrwt>
</event>
<event>
 5    1  0.2989269E-047  0.1249995E+03  0.7818608E-02  0.1235070E+00
          3   -1    0    0  501    0  0.00000000000E+00  0.00000000000E+00  0.11137891247E+02  0.11138279510E+02  0.93000000000E-01 0. -1.
         -3   -1    0    0    0  501 -0.00000000000E+00 -0.00000000000E+00 -0.35070784301E+03  0.35070785534E+03  0.93000000000E-01 0.  1.
         25    2    1    2    0    0  0.00000000000E+00  0.00000000000E+00 -0.33956995177E+03  0.36184613485E+03  0.12499949266E+03 0.  0.
        -13    1    3    3    0    0 -0.16271117291E+02  0.51023382815E+02 -0.76517659242E+02  0.93397527805E+02  0.10570000000E+00 0. -1.
         13    1    3    3    0    0  0.16271117291E+02 -0.51023382815E+02 -0.26305229252E+03  0.26844860705E+03  0.10570000000E+00 0.  1.
<mgrwt>
<rscale>  0 0.12499949E+03</rscale>
<asrwt>0</asrwt>
<pdfrwt beam="1">  1        3 0.17135528E-02 0.12499949E+03</pdfrwt>
<pdfrwt beam="2">  1       -3 0.53955075E-01 0.12499949E+03</pdfrwt>
<totfact> 0.92188824E+03</totfact>
</mgrwt>
</event>
<event>
 5    1  0.2989269E-047  0.1250011E+03  0.7818608E-02  0.1235068E+00
          3   -1    0    0  501    0  0.00000000000E+00  0.00000000000E+00  0.32948689381E+03  0.32948690693E+03  0.93000000000E-01 0. -1.
         -3   -1    0    0    0  501 -0.00000000000E+00 -0.00000000000E+00 -0.11855563632E+02  0.11855928392E+02  0.93000000000E-01 0.  1.
         25    2    1    2    0    0  0.00000000000E+00  0.00000000000E+00  0.31763133017E+03  0.34134283532E+03  0.12500107727E+03 0.  0.
        -13    1    3    3    0    0  0.52276224830E+02 -0.27166361724E+02  0.10182985057E+03  0.11764414364E+03  0.10570000000E+00 0.  1.
         13    1    3    3    0    0 -0.52276224830E+02  0.27166361724E+02  0.21580147960E+03  0.22369869169E+03  0.10570000000E+00 0. -1.
<mgrwt>
<rscale>  0 0.12500108E+03</rscale>
<asrwt>0</asrwt>
<pdfrwt beam="1">  1        3 0.50690316E-01 0.12500108E+03</pdfrwt>
<pdfrwt beam="2">  1       -3 0.18239621E-02 0.12500108E+03</pdfrwt>
<totfact> 0.95111647E+03</totfact>
</mgrwt>
</event>
<event>
 5    1  0.2989269E-047  0.1250006E+03  0.7818608E-02  0.1235068E+00
         -3   -1    0    0    0  501 -0.00000000000E+00  0.00000000000E+00  0.43727365839E+02  0.43727464736E+02  0.93000000000E-01 0.  1.
          3   -1    0    0  501    0  0.00000000000E+00 -0.00000000000E+00 -0.89332529656E+02  0.89332578065E+02  0.93000000000E-01 0. -1.
         25    2    1    2    0    0  0.00000000000E+00  0.00000000000E+00 -0.45605163817E+02  0.13306004280E+03  0.12500057609E+03 0.  0.
        -13    1    3    3    0    0 -0.62053483544E+02 -0.68805436226E+01 -0.25868960949E+02  0.67580995950E+02  0.10570000000E+00 0.  1.
         13    1    3    3    0    0  0.62053483544E+02  0.68805436226E+01 -0.19736202867E+02  0.65479046851E+02  0.10570000000E+00 0. -1.
<mgrwt>
<rscale>  0 0.12500058E+03</rscale>
<asrwt>0</asrwt>
<pdfrwt beam="2">  1        3 0.13743477E-01 0.12500058E+03</pdfrwt>
<pdfrwt beam="1">  1       -3 0.67272984E-02 0.12500058E+03</pdfrwt>
<totfact> 0.13523511E+04</totfact>
</mgrwt>
</event>
<event>
 5    1  0.2989269E-047  0.1249980E+03  0.7818608E-02  0.1235072E+00
          3   -1    0    0  501    0  0.00000000000E+00  0.00000000000E+00  0.82851478722E+01  0.82856698139E+01  0.93000000000E-01 0. -1.
         -3   -1    0    0    0  501 -0.00000000000E+00 -0.00000000000E+00 -0.47144583013E+03  0.47144583930E+03  0.93000000000E-01 0.  1.
         25    2    1    2    0    0  0.00000000000E+00  0.00000000000E+00 -0.46316068226E+03  0.47973150912E+03  0.12499801298E+03 0.  0.
        -13    1    3    3    0    0  0.61808326051E+02 -0.76170267334E+01 -0.25182560530E+03  0.25941170930E+03  0.10570000000E+00 0.  1.
         13    1    3    3    0    0 -0.61808326051E+02  0.76170267334E+01 -0.21133507696E+03  0.22031979982E+03  0.10570000000E+00 0. -1.
<mgrwt>
<rscale>  0 0.12499801E+03</rscale>
<asrwt>0</asrwt>
<pdfrwt beam="1">  1        3 0.12746794E-02 0.12499801E+03</pdfrwt>
<pdfrwt beam="2">  1       -3 0.72530147E-01 0.12499801E+03</pdfrwt>
<totfact> 0.77997860E+03</totfact>
</mgrwt>
</event>
<event>
 5    1  0.2989269E-047  0.1249976E+03  0.7818608E-02  0.1235073E+00
         -3   -1    0    0    0  501 -0.00000000000E+00  0.00000000000E+00  0.89772453352E+01  0.89777270402E+01  0.93000000000E-01 0.  1.
          3   -1    0    0  501    0  0.00000000000E+00 -0.00000000000E+00 -0.43509910109E+03  0.43509911103E+03  0.93000000000E-01 0. -1.
         25    2    1    2    0    0  0.00000000000E+00  0.00000000000E+00 -0.42612185575E+03  0.44407683807E+03  0.12499760861E+03 0.  0.
        -13    1    3    3    0    0  0.48641058246E+02  0.28936362231E+02 -0.11887638477E+03  0.13166195971E+03  0.10570000000E+00 0.  1.
         13    1    3    3    0    0 -0.48641058246E+02 -0.28936362231E+02 -0.30724547098E+03  0.31241487836E+03  0.10570000000E+00 0. -1.
<mgrwt>
<rscale>  0 0.12499761E+03</rscale>
<asrwt>0</asrwt>
<pdfrwt beam="2">  1        3 0.66938345E-01 0.12499761E+03</pdfrwt>
<pdfrwt beam="1">  1       -3 0.13811528E-02 0.12499761E+03</pdfrwt>
<totfact> 0.81987343E+03</totfact>
</mgrwt>
</event>
<event>
 5    1  0.5105255E-047  0.1250059E+03  0.7818608E-02  0.1235060E+00
          3   -1    0    0  501    0  0.00000000000E+00  0.00000000000E+00  0.21746176705E+02  0.21746375566E+02  0.93000000000E-01 0. -1.
         -3   -1    0    0    0  501 -0.00000000000E+00 -0.00000000000E+00 -0.17964509948E+03  0.17964512355E+03  0.93000000000E-01 0.  1.
         25    2    1    2    0    0  0.00000000000E+00  0.00000000000E+00 -0.15789892278E+03  0.20139149912E+03  0.12500586428E+03 0.  0.
        -13    1    3    3    0    0 -0.48312472392E-01  0.57935457908E+02 -0.11673502805E+03  0.13032113245E+03  0.10570000000E+00 0.  1.
         13    1    3    3    0    0  0.48312472392E-01 -0.57935457908E+02 -0.41163894732E+02  0.71070366673E+02  0.10570000000E+00 0. -1.
<mgrwt>
<rscale>  0 0.12500586E+03</rscale>
<asrwt>0</asrwt>
<pdfrwt beam="1">  1        3 0.33455829E-02 0.12500586E+03</pdfrwt>
<pdfrwt beam="2">  1       -3 0.27637724E-01 0.12500586E+03</pdfrwt>
<totfact> 0.11930809E+04</totfact>
</mgrwt>
</event>
<event>
 5    1  0.2989269E-047  0.1250108E+03  0.7818608E-02  0.1235052E+00
          3   -1    0    0  501    0  0.00000000000E+00  0.00000000000E+00  0.39963807614E+02  0.39963915824E+02  0.93000000000E-01 0. -1.
         -3   -1    0    0    0  501 -0.00000000000E+00 -0.00000000000E+00 -0.97761269366E+02  0.97761313601E+02  0.93000000000E-01 0.  1.
         25    2    1    2    0    0  0.00000000000E+00  0.00000000000E+00 -0.57797461752E+02  0.13772522943E+03  0.12501076848E+03 0.  0.
        -13    1    3    3    0    0  0.13903745931E+02  0.48757012293E+02  0.11375423489E+02  0.51961253167E+02  0.10570000000E+00 0.  1.
         13    1    3    3    0    0 -0.13903745931E+02 -0.48757012293E+02 -0.69172885241E+02  0.85763976258E+02  0.10570000000E+00 0. -1.
<mgrwt>
<rscale>  0 0.12501077E+03</rscale>
<asrwt>0</asrwt>
<pdfrwt beam="1">  1        3 0.61482898E-02 0.12501077E+03</pdfrwt>
<pdfrwt beam="2">  1       -3 0.15040207E-01 0.12501077E+03</pdfrwt>
<totfact> 0.13400303E+04</totfact>
</mgrwt>
</event>
<event>
 5    1  0.2989269E-047  0.1249922E+03  0.7818608E-02  0.1235081E+00
          3   -1    0    0  501    0  0.00000000000E+00  0.00000000000E+00  0.13116849738E+02  0.13117179424E+02  0.93000000000E-01 0. -1.
         -3   -1    0    0    0  501 -0.00000000000E+00 -0.00000000000E+00 -0.29776290004E+03  0.29776291456E+03  0.93000000000E-01 0.  1.
         25    2    1    2    0    0  0.00000000000E+00  0.00000000000E+00 -0.28464605030E+03  0.31088009399E+03  0.12499223530E+03 0.  0.
        -13    1    3    3    0    0 -0.98403353681E+01 -0.59023687140E+02 -0.97475804520E+02  0.11437732067E+03  0.10570000000E+00 0. -1.
         13    1    3    3    0    0  0.98403353681E+01  0.59023687140E+02 -0.18717024578E+03  0.19650277332E+03  0.10570000000E+00 0.  1.
<mgrwt>
<rscale>  0 0.12499224E+03</rscale>
<asrwt>0</asrwt>
<pdfrwt beam="1">  1        3 0.20180036E-02 0.12499224E+03</pdfrwt>
<pdfrwt beam="2">  1       -3 0.45809698E-01 0.12499224E+03</pdfrwt>
<totfact> 0.99639004E+03</totfact>
</mgrwt>
</event>
<event>
 5    1  0.2989269E-047  0.1249946E+03  0.7818608E-02  0.1235078E+00
         -3   -1    0    0    0  501 -0.00000000000E+00  0.00000000000E+00  0.19861432534E+02  0.19861650266E+02  0.93000000000E-01 0.  1.
          3   -1    0    0  501    0  0.00000000000E+00 -0.00000000000E+00 -0.19665688542E+03  0.19665690741E+03  0.93000000000E-01 0. -1.
         25    2    1    2    0    0  0.00000000000E+00  0.00000000000E+00 -0.17679545288E+03  0.21651855767E+03  0.12499461451E+03 0.  0.
        -13    1    3    3    0    0  0.20418198939E+02 -0.51154619465E+02 -0.37239799672E+02  0.66486929488E+02  0.10570000000E+00 0.  1.
         13    1    3    3    0    0 -0.20418198939E+02  0.51154619465E+02 -0.13955565321E+03  0.15003162819E+03  0.10570000000E+00 0. -1.
<mgrwt>
<rscale>  0 0.12499461E+03</rscale>
<asrwt>0</asrwt>
<pdfrwt beam="2">  1        3 0.30254923E-01 0.12499461E+03</pdfrwt>
<pdfrwt beam="1">  1       -3 0.30556236E-02 0.12499461E+03</pdfrwt>
<totfact> 0.11625630E+04</totfact>
</mgrwt>
</event>
<event>
 4    1  0.2989269E-047  0.1247817E+03  0.7818608E-02  0.1235411E+00
          3   -1    0    0  501    0  0.00000000000E+00  0.00000000000E+00  0.94938178527E+01  0.94942733487E+01  0.93000000000E-01 0. -1.
         -3   -1    0    0    0  501 -0.00000000000E+00 -0.00000000000E+00 -0.41000562556E+03  0.41000563611E+03  0.93000000000E-01 0.  1.
        -13    1    1    2    0    0 -0.51824798512E+02 -0.29942821961E+02 -0.14104276958E+03  0.15321702369E+03  0.10570000000E+00 0. -1.
         13    1    1    2    0    0  0.51824798512E+02  0.29942821961E+02 -0.25946903813E+03  0.26628288576E+03  0.10570000000E+00 0.  1.
<mgrwt>
<rscale>  0 0.12478167E+03</rscale>
<asrwt>0</asrwt>
<pdfrwt beam="1">  1        3 0.14606235E-02 0.12478167E+03</pdfrwt>
<pdfrwt beam="2">  1       -3 0.63077811E-01 0.12478167E+03</pdfrwt>
<totfact> 0.85197242E+03</totfact>
</mgrwt>
</event>
<event>
 5    1  0.2989269E-047  0.1250001E+03  0.7818608E-02  0.1235069E+00
         -3   -1    0    0    0  501 -0.00000000000E+00  0.00000000000E+00  0.56850077857E+02  0.56850153926E+02  0.93000000000E-01 0.  1.
          3   -1    0    0  501    0  0.00000000000E+00 -0.00000000000E+00 -0.68711423272E+02  0.68711486209E+02  0.93000000000E-01 0. -1.
         25    2    1    2    0    0  0.00000000000E+00  0.00000000000E+00 -0.11861345415E+02  0.12556164013E+03  0.12500013583E+03 0.  0.
        -13    1    3    3    0    0  0.44755631231E+02 -0.22380294357E+02  0.31684881068E+02  0.59227417326E+02  0.10570000000E+00 0.  1.
         13    1    3    3    0    0 -0.44755631231E+02  0.22380294357E+02 -0.43546226482E+02  0.66334222809E+02  0.10570000000E+00 0. -1.
<mgrwt>
<rscale>  0 0.12500014E+03</rscale>
<asrwt>0</asrwt>
<pdfrwt beam="2">  1        3 0.10570999E-01 0.12500014E+03</pdfrwt>
<pdfrwt beam="1">  1       -3 0.87461766E-02 0.12500014E+03</pdfrwt>
<totfact> 0.13721345E+04</totfact>
</mgrwt>
</event>
<event>
 5    1  0.2989269E-047  0.1250005E+03  0.7818608E-02  0.1235068E+00
         -3   -1    0    0    0  501 -0.00000000000E+00  0.00000000000E+00  0.10429031077E+02  0.10429445729E+02  0.93000000000E-01 0. -1.
          3   -1    0    0  501    0  0.00000000000E+00 -0.00000000000E+00 -0.37455067584E+03  0.37455068738E+03  0.93000000000E-01 0.  1.
         25    2    1    2    0    0  0.00000000000E+00  0.00000000000E+00 -0.36412164476E+03  0.38498013311E+03  0.12500052283E+03 0.  0.
        -13    1    3    3    0    0 -0.49920798105E+02 -0.21903009231E+02 -0.87914569882E+02  0.10344472276E+03  0.10570000000E+00 0. -1.
         13    1    3    3    0    0  0.49920798105E+02  0.21903009231E+02 -0.27620707488E+03  0.28153541035E+03  0.10570000000E+00 0.  1.
<mgrwt>
<rscale>  0 0.12500052E+03</rscale>
<asrwt>0</asrwt>
<pdfrwt beam="2">  1        3 0.57623203E-01 0.12500052E+03</pdfrwt>
<pdfrwt beam="1">  1       -3 0.16044994E-02 0.12500052E+03</pdfrwt>
<totfact> 0.89157497E+03</totfact>
</mgrwt>
</event>
<event>
 5    1  0.2989269E-047  0.1250023E+03  0.7818608E-02  0.1235066E+00
         -3   -1    0    0    0  501 -0.00000000000E+00  0.00000000000E+00  0.10317301427E+02  0.10317720568E+02  0.93000000000E-01 0.  1.
          3   -1    0    0  501    0  0.00000000000E+00 -0.00000000000E+00 -0.37861722065E+03  0.37861723207E+03  0.93000000000E-01 0. -1.
         25    2    1    2    0    0  0.00000000000E+00  0.00000000000E+00 -0.36829991922E+03  0.38893495264E+03  0.12500226752E+03 0.  0.
        -13    1    3    3    0    0 -0.55537587560E+02  0.76274310034E+01 -0.98160939489E+02  0.11304062345E+03  0.10570000000E+00 0.  1.
         13    1    3    3    0    0  0.55537587560E+02 -0.76274310034E+01 -0.27013897973E+03  0.27589432919E+03  0.10570000000E+00 0. -1.
<mgrwt>
<rscale>  0 0.12500227E+03</rscale>
<asrwt>0</asrwt>
<pdfrwt beam="2">  1        3 0.58248826E-01 0.12500227E+03</pdfrwt>
<pdfrwt beam="1">  1       -3 0.15873106E-02 0.12500227E+03</pdfrwt>
<totfact> 0.88643584E+03</totfact>
</mgrwt>
</event>
<event>
 5    1  0.2989269E-047  0.1250015E+03  0.7818608E-02  0.1235067E+00
         -3   -1    0    0    0  501 -0.00000000000E+00  0.00000000000E+00  0.37291088214E+03  0.37291089374E+03  0.93000000000E-01 0.  1.
          3   -1    0    0  501    0  0.00000000000E+00 -0.00000000000E+00 -0.10475064295E+02  0.10475477124E+02  0.93000000000E-01 0. -1.
         25    2    1    2    0    0  0.00000000000E+00  0.00000000000E+00  0.36243581785E+03  0.38338637086E+03  0.12500154921E+03 0.  0.
        -13    1    3    3    0    0  0.49939158950E+02 -0.32961240738E+02  0.23659267017E+03  0.24404193438E+03  0.10570000000E+00 0.  1.
         13    1    3    3    0    0 -0.49939158950E+02  0.32961240738E+02  0.12584314768E+03  0.13934443648E+03  0.10570000000E+00 0. -1.
<mgrwt>
<rscale>  0 0.12500155E+03</rscale>
<asrwt>0</asrwt>
<pdfrwt beam="2">  1        3 0.16115810E-02 0.12500155E+03</pdfrwt>
<pdfrwt beam="1">  1       -3 0.57370937E-01 0.12500155E+03</pdfrwt>
<totfact> 0.89304787E+03</totfact>
</mgrwt>
</event>
<event>
 5    1  0.2989269E-047  0.1249991E+03  0.7818608E-02  0.1235071E+00
         -3   -1    0    0    0  501 -0.00000000000E+00  0.00000000000E+00  0.13376172695E+03  0.13376175928E+03  0.93000000000E-01 0. -1.
          3   -1    0    0  501    0  0.00000000000E+00 -0.00000000000E+00 -0.29202502432E+02  0.29202650518E+02  0.93000000000E-01 0.  1.
         25    2    1    2    0    0  0.00000000000E+00  0.00000000000E+00  0.10455922452E+03  0.16296440980E+03  0.12499906972E+03 0.  0.
        -13    1    3    3    0    0 -0.60720579335E+02 -0.13192032238E+02  0.61041014254E+02  0.87103588118E+02  0.10570000000E+00 0. -1.
         13    1    3    3    0    0  0.60720579335E+02  0.13192032238E+02  0.43518210268E+02  0.75860821685E+02  0.10570000000E+00 0.  1.
<mgrwt>
<rscale>  0 0.12499907E+03</rscale>
<asrwt>0</asrwt>
<pdfrwt beam="2">  1        3 0.44927065E-02 0.12499907E+03</pdfrwt>
<pdfrwt beam="1">  1       -3 0.20578741E-01 0.12499907E+03</pdfrwt>
<totfact> 0.12784454E+04</totfact>
</mgrwt>
</event>
<event>
 5    1  0.2989269E-047  0.1250002E+03  0.7818608E-02  0.1235069E+00
          3   -1    0    0  501    0  0.00000000000E+00  0.00000000000E+00  0.79592627890E+02  0.79592682223E+02  0.93000000000E-01 0. -1.
         -3   -1    0    0    0  501 -0.00000000000E+00 -0.00000000000E+00 -0.49078085991E+02  0.49078174106E+02  0.93000000000E-01 0.  1.
         25    2    1    2    0    0  0.00000000000E+00  0.00000000000E+00  0.30514541899E+02  0.12867085633E+03  0.12500020800E+03 0.  0.
        -13    1    3    3    0    0  0.23391029275E+02  0.21468157901E+02 -0.40158816813E+02  0.51193396005E+02  0.10570000000E+00 0.  1.
         13    1    3    3    0    0 -0.23391029275E+02 -0.21468157901E+02  0.70673358712E+02  0.77477460324E+02  0.10570000000E+00 0. -1.
<mgrwt>
<rscale>  0 0.12500021E+03</rscale>
<asrwt>0</asrwt>
<pdfrwt beam="1">  1        3 0.12245031E-01 0.12500021E+03</pdfrwt>
<pdfrwt beam="2">  1       -3 0.75504857E-02 0.12500021E+03</pdfrwt>
<totfact> 0.13638600E+04</totfact>
</mgrwt>
</event>
<event>
 5    1  0.2989269E-047  0.1249993E+03  0.7818608E-02  0.1235070E+00
          3   -1    0    0  501    0  0.00000000000E+00  0.00000000000E+00  0.58682405626E+02  0.58682479320E+02  0.93000000000E-01 0. -1.
         -3   -1    0    0    0  501 -0.00000000000E+00 -0.00000000000E+00 -0.66565067317E+02  0.66565132283E+02  0.93000000000E-01 0.  1.
         25    2    1    2    0    0  0.00000000000E+00  0.00000000000E+00 -0.78826616906E+01  0.12524761160E+03  0.12499931143E+03 0.  0.
        -13    1    3    3    0    0 -0.23362271268E+02 -0.24928359123E+02 -0.56380526752E+02  0.65924151695E+02  0.10570000000E+00 0.  1.
         13    1    3    3    0    0  0.23362271268E+02  0.24928359123E+02  0.48497865062E+02  0.59323459908E+02  0.10570000000E+00 0. -1.
<mgrwt>
<rscale>  0 0.12499931E+03</rscale>
<asrwt>0</asrwt>
<pdfrwt beam="1">  1        3 0.90280730E-02 0.12499931E+03</pdfrwt>
<pdfrwt beam="2">  1       -3 0.10240790E-01 0.12499931E+03</pdfrwt>
<totfact> 0.13730092E+04</totfact>
</mgrwt>
</event>
<event>
 5    1  0.2989269E-047  0.1250067E+03  0.7818608E-02  0.1235059E+00
         -3   -1    0    0    0  501 -0.00000000000E+00  0.00000000000E+00  0.91796039556E+02  0.91796086666E+02  0.93000000000E-01 0. -1.
          3   -1    0    0  501    0  0.00000000000E+00 -0.00000000000E+00 -0.42558001125E+02  0.42558102739E+02  0.93000000000E-01 0.  1.
         25    2    1    2    0    0  0.00000000000E+00  0.00000000000E+00  0.49238038431E+02  0.13435418940E+03  0.12500665495E+03 0.  0.
        -13    1    3    3    0    0 -0.10477356536E+02 -0.45253036588E+02  0.69567835003E+02  0.83649908308E+02  0.10570000000E+00 0. -1.
         13    1    3    3    0    0  0.10477356536E+02  0.45253036588E+02 -0.20329796573E+02  0.50704281097E+02  0.10570000000E+00 0.  1.
<mgrwt>
<rscale>  0 0.12500665E+03</rscale>
<asrwt>0</asrwt>
<pdfrwt beam="2">  1        3 0.65473963E-02 0.12500665E+03</pdfrwt>
<pdfrwt beam="1">  1       -3 0.14122479E-01 0.12500665E+03</pdfrwt>
<totfact> 0.13488255E+04</totfact>
</mgrwt>
</event>
<event>
 5    1  0.2989269E-047  0.1250014E+03  0.7818608E-02  0.1235067E+00
          3   -1    0    0  501    0  0.00000000000E+00  0.00000000000E+00  0.30136858213E+03  0.30136859648E+03  0.93000000000E-01 0. -1.
         -3   -1    0    0    0  501 -0.00000000000E+00 -0.00000000000E+00 -0.12961803196E+02  0.12962136826E+02  0.93000000000E-01 0.  1.
         25    2    1    2    0    0  0.00000000000E+00  0.00000000000E+00  0.28840677894E+03  0.31433073331E+03  0.12500135905E+03 0.  0.
        -13    1    3    3    0    0  0.14859806713E+02 -0.54088213373E+02  0.74881276953E+02  0.93560491085E+02  0.10570000000E+00 0.  1.
         13    1    3    3    0    0 -0.14859806713E+02  0.54088213373E+02  0.21352550198E+03  0.22077024222E+03  0.10570000000E+00 0. -1.
<mgrwt>
<rscale>  0 0.12500136E+03</rscale>
<asrwt>0</asrwt>
<pdfrwt beam="1">  1        3 0.46364421E-01 0.12500136E+03</pdfrwt>
<pdfrwt beam="2">  1       -3 0.19941505E-02 0.12500136E+03</pdfrwt>
<totfact> 0.99123492E+03</totfact>
</mgrwt>
</event>
<event>
 5    1  0.2989269E-047  0.1249679E+03  0.7818608E-02  0.1235119E+00
         -3   -1    0    0    0  501 -0.00000000000E+00  0.00000000000E+00  0.19410135217E+02  0.19410358011E+02  0.93000000000E-01 0.  1.
          3   -1    0    0  501    0  0.00000000000E+00 -0.00000000000E+00 -0.20114316686E+03  0.20114318836E+03  0.93000000000E-01 0. -1.
         25    2    1    2    0    0  0.00000000000E+00  0.00000000000E+00 -0.18173303165E+03  0.22055354637E+03  0.12496788398E+03 0.  0.
        -13    1    3    3    0    0 -0.47963881290E+01 -0.46887723330E+02 -0.18468320915E+02  0.50621675082E+02  0.10570000000E+00 0.  1.
         13    1    3    3    0    0  0.47963881290E+01  0.46887723330E+02 -0.16326471073E+03  0.16993187129E+03  0.10570000000E+00 0. -1.
<mgrwt>
<rscale>  0 0.12496788E+03</rscale>
<asrwt>0</asrwt>
<pdfrwt beam="2">  1        3 0.30945120E-01 0.12496788E+03</pdfrwt>
<pdfrwt beam="1">  1       -3 0.29861936E-02 0.12496788E+03</pdfrwt>
<totfact> 0.11552447E+04</totfact>
</mgrwt>
</event>
<event>
 5    1  0.2989269E-047  0.1249996E+03  0.7818608E-02  0.1235070E+00
         -3   -1    0    0    0  501 -0.00000000000E+00  0.00000000000E+00  0.52353823749E+02  0.52353906350E+02  0.93000000000E-01 0.  1.
          3   -1    0    0  501    0  0.00000000000E+00 -0.00000000000E+00 -0.74611874905E+02  0.74611932865E+02  0.93000000000E-01 0. -1.
         25    2    1    2    0    0  0.00000000000E+00  0.00000000000E+00 -0.22258051156E+02  0.12696583922E+03  0.12499961395E+03 0.  0.
        -13    1    3    3    0    0  0.27386311980E+02 -0.49420478825E+02  0.16008662227E+02  0.58725482118E+02  0.10570000000E+00 0.  1.
         13    1    3    3    0    0 -0.27386311980E+02  0.49420478825E+02 -0.38266713384E+02  0.68240357098E+02  0.10570000000E+00 0. -1.
<mgrwt>
<rscale>  0 0.12499961E+03</rscale>
<asrwt>0</asrwt>
<pdfrwt beam="2">  1        3 0.11478761E-01 0.12499961E+03</pdfrwt>
<pdfrwt beam="1">  1       -3 0.80544452E-02 0.12499961E+03</pdfrwt>
<totfact> 0.13683897E+04</totfact>
</mgrwt>
</event>
<event>
 5    1  0.2989269E-047  0.1249986E+03  0.7818608E-02  0.1235071E+00
         -3   -1    0    0    0  501 -0.00000000000E+00  0.00000000000E+00  0.46041381534E+02  0.46041475460E+02  0.93000000000E-01 0.  1.
          3   -1    0    0  501    0  0.00000000000E+00 -0.00000000000E+00 -0.84840063233E+02  0.84840114206E+02  0.93000000000E-01 0. -1.
         25    2    1    2    0    0  0.00000000000E+00  0.00000000000E+00 -0.38798681699E+02  0.13088158967E+03  0.12499861124E+03 0.  0.
        -13    1    3    3    0    0 -0.43150080395E+01  0.54206649102E+02 -0.51657963196E+02  0.75003576151E+02  0.10570000000E+00 0. -1.
         13    1    3    3    0    0  0.43150080395E+01 -0.54206649102E+02  0.12859281497E+02  0.55878013515E+02  0.10570000000E+00 0.  1.
<mgrwt>
<rscale>  0 0.12499861E+03</rscale>
<asrwt>0</asrwt>
<pdfrwt beam="2">  1        3 0.13052329E-01 0.12499861E+03</pdfrwt>
<pdfrwt beam="1">  1       -3 0.70833006E-02 0.12499861E+03</pdfrwt>
<totfact> 0.13581079E+04</totfact>
</mgrwt>
</event>
<event>
 5    1  0.2989269E-047  0.1249981E+03  0.7818608E-02  0.1235072E+00
         -3   -1    0    0    0  501 -0.00000000000E+00  0.00000000000E+00  0.44555994300E+02  0.44556091358E+02  0.93000000000E-01 0.  1.
          3   -1    0    0  501    0  0.00000000000E+00 -0.00000000000E+00 -0.87667678879E+02  0.87667728207E+02  0.93000000000E-01 0. -1.
         25    2    1    2    0    0  0.00000000000E+00  0.00000000000E+00 -0.43111684579E+02  0.13222381956E+03  0.12499808444E+03 0.  0.
        -13    1    3    3    0    0  0.49557665862E+02  0.37974697088E+02 -0.24562552891E+02  0.67092250235E+02  0.10570000000E+00 0.  1.
         13    1    3    3    0    0 -0.49557665862E+02 -0.37974697088E+02 -0.18549131688E+02  0.65131569330E+02  0.10570000000E+00 0. -1.
<mgrwt>
<rscale>  0 0.12499808E+03</rscale>
<asrwt>0</asrwt>
<pdfrwt beam="2">  1        3 0.13487346E-01 0.12499808E+03</pdfrwt>
<pdfrwt beam="1">  1       -3 0.68547796E-02 0.12499808E+03</pdfrwt>
<totfact> 0.13546077E+04</totfact>
</mgrwt>
</event>
<event>
 5    1  0.2989269E-047  0.1249931E+03  0.7818608E-02  0.1235080E+00
          3   -1    0    0  501    0  0.00000000000E+00  0.00000000000E+00  0.11763977582E+03  0.11763981258E+03  0.93000000000E-01 0. -1.
         -3   -1    0    0    0  501 -0.00000000000E+00 -0.00000000000E+00 -0.33201394661E+02  0.33201524911E+02  0.93000000000E-01 0.  1.
         25    2    1    2    0    0  0.00000000000E+00  0.00000000000E+00  0.84438381157E+02  0.15084133749E+03  0.12499307534E+03 0.  0.
        -13    1    3    3    0    0  0.58978342048E+02 -0.17782613925E+01  0.17363877194E+02  0.61507092664E+02  0.10570000000E+00 0.  1.
         13    1    3    3    0    0 -0.58978342048E+02  0.17782613925E+01  0.67074503963E+02  0.89334244826E+02  0.10570000000E+00 0. -1.
<mgrwt>
<rscale>  0 0.12499308E+03</rscale>
<asrwt>0</asrwt>
<pdfrwt beam="1">  1        3 0.18098439E-01 0.12499308E+03</pdfrwt>
<pdfrwt beam="2">  1       -3 0.51079198E-02 0.12499308E+03</pdfrwt>
<totfact> 0.13077127E+04</totfact>
</mgrwt>
</event>
<event>
 5    1  0.2989269E-047  0.1249911E+03  0.7818608E-02  0.1235083E+00
         -3   -1    0    0    0  501 -0.00000000000E+00  0.00000000000E+00  0.21277803650E+02  0.21278006889E+02  0.93000000000E-01 0.  1.
          3   -1    0    0  501    0  0.00000000000E+00 -0.00000000000E+00 -0.18355612378E+03  0.18355614734E+03  0.93000000000E-01 0. -1.
         25    2    1    2    0    0  0.00000000000E+00  0.00000000000E+00 -0.16227832013E+03  0.20483415423E+03  0.12499110990E+03 0.  0.
        -13    1    3    3    0    0  0.34918422206E+02  0.12622146523E+02  0.12427295087E+01  0.37150643889E+02  0.10570000000E+00 0.  1.
         13    1    3    3    0    0 -0.34918422206E+02 -0.12622146523E+02 -0.16352104964E+03  0.16768351034E+03  0.10570000000E+00 0. -1.
<mgrwt>
<rscale>  0 0.12499111E+03</rscale>
<asrwt>0</asrwt>
<pdfrwt beam="2">  1        3 0.28239420E-01 0.12499111E+03</pdfrwt>
<pdfrwt beam="1">  1       -3 0.32735258E-02 0.12499111E+03</pdfrwt>
<totfact> 0.11863960E+04</totfact>
</mgrwt>
</event>
<event>
 5    1  0.2989269E-047  0.1250009E+03  0.7818608E-02  0.1235068E+00
         -3   -1    0    0    0  501 -0.00000000000E+00  0.00000000000E+00  0.57113971171E+02  0.57114046888E+02  0.93000000000E-01 0.  1.
          3   -1    0    0  501    0  0.00000000000E+00 -0.00000000000E+00 -0.68394789376E+02  0.68394852604E+02  0.93000000000E-01 0. -1.
         25    2    1    2    0    0  0.00000000000E+00  0.00000000000E+00 -0.11280818205E+02  0.12550889949E+03  0.12500090797E+03 0.  0.
        -13    1    3    3    0    0  0.48278899076E+02 -0.29824724731E+02  0.20656277046E+02  0.60390887186E+02  0.10570000000E+00 0.  1.
         13    1    3    3    0    0 -0.48278899076E+02  0.29824724731E+02 -0.31937095250E+02  0.65118012307E+02  0.10570000000E+00 0. -1.
<mgrwt>
<rscale>  0 0.12500091E+03</rscale>
<asrwt>0</asrwt>
<pdfrwt beam="2">  1        3 0.10522286E-01 0.12500091E+03</pdfrwt>
<pdfrwt beam="1">  1       -3 0.87867755E-02 0.12500091E+03</pdfrwt>
<totfact> 0.13722535E+04</totfact>
</mgrwt>
</event>
<event>
 5    1  0.2989269E-047  0.1250003E+03  0.7818608E-02  0.1235069E+00
          3   -1    0    0  501    0  0.00000000000E+00  0.00000000000E+00  0.11466153336E+03  0.11466157108E+03  0.93000000000E-01 0. -1.
         -3   -1    0    0    0  501 -0.00000000000E+00 -0.00000000000E+00 -0.34067694766E+02  0.34067821704E+02  0.93000000000E-01 0.  1.
         25    2    1    2    0    0  0.00000000000E+00  0.00000000000E+00  0.80593838597E+02  0.14872939278E+03  0.12500026183E+03 0.  0.
        -13    1    3    3    0    0 -0.20058195441E+02 -0.38766441904E+02 -0.12928472150E+02  0.45522794146E+02  0.10570000000E+00 0.  1.
         13    1    3    3    0    0  0.20058195441E+02  0.38766441904E+02  0.93522310746E+02  0.10320659864E+03  0.10570000000E+00 0. -1.
<mgrwt>
<rscale>  0 0.12500026E+03</rscale>
<asrwt>0</asrwt>
<pdfrwt beam="1">  1        3 0.17640249E-01 0.12500026E+03</pdfrwt>
<pdfrwt beam="2">  1       -3 0.52411965E-02 0.12500026E+03</pdfrwt>
<totfact> 0.13126806E+04</totfact>
</mgrwt>
</event>
<event>
 5    1  0.3616944E-047  0.1250004E+03  0.7818608E-02  0.1235069E+00
          3   -1    0    0  501    0  0.00000000000E+00  0.00000000000E+00  0.22092893969E+03  0.22092895927E+03  0.93000000000E-01 0. -1.
         -3   -1    0    0    0  501 -0.00000000000E+00 -0.00000000000E+00 -0.17680991427E+02  0.17681236010E+02  0.93000000000E-01 0.  1.
         25    2    1    2    0    0  0.00000000000E+00  0.00000000000E+00  0.20324794827E+03  0.23861019528E+03  0.12500038726E+03 0.  0.
        -13    1    3    3    0    0  0.60882929107E+02 -0.22957469588E+00  0.74663562225E+02  0.96340243189E+02  0.10570000000E+00 0.  1.
         13    1    3    3    0    0 -0.60882929107E+02  0.22957469588E+00  0.12858438604E+03  0.14226995209E+03  0.10570000000E+00 0. -1.
<mgrwt>
<rscale>  0 0.12500039E+03</rscale>
<asrwt>0</asrwt>
<pdfrwt beam="1">  1        3 0.33989090E-01 0.12500039E+03</pdfrwt>
<pdfrwt beam="2">  1       -3 0.27201727E-02 0.12500039E+03</pdfrwt>
<totfact> 0.11196659E+04</totfact>
</mgrwt>
</event>
<event>
 5    1  0.2989269E-047  0.1249976E+03  0.7818608E-02  0.1235073E+00
          3   -1    0    0  501    0  0.00000000000E+00  0.00000000000E+00  0.28830008825E+03  0.28830010325E+03  0.93000000000E-01 0. -1.
         -3   -1    0    0    0  501 -0.00000000000E+00 -0.00000000000E+00 -0.13548552100E+02  0.13548871282E+02  0.93000000000E-01 0.  1.
         25    2    1    2    0    0  0.00000000000E+00  0.00000000000E+00  0.27475153615E+03  0.30184897453E+03  0.12499758722E+03 0.  0.
        -13    1    3    3    0    0  0.39770822438E+02  0.46543162082E+02  0.10701175318E+03  0.12328629585E+03  0.10570000000E+00 0.  1.
         13    1    3    3    0    0 -0.39770822438E+02 -0.46543162082E+02  0.16773978298E+03  0.17856267868E+03  0.10570000000E+00 0. -1.
<mgrwt>
<rscale>  0 0.12499759E+03</rscale>
<asrwt>0</asrwt>
<pdfrwt beam="1">  1        3 0.44353882E-01 0.12499759E+03</pdfrwt>
<pdfrwt beam="2">  1       -3 0.20844185E-02 0.12499759E+03</pdfrwt>
<totfact> 0.10107835E+04</totfact>
</mgrwt>
</event>
<event>
 5    1  0.3071587E-047  0.1249994E+03  0.7818608E-02  0.1235070E+00
          3   -1    0    0  501    0  0.00000000000E+00  0.00000000000E+00  0.26153933110E+02  0.26154098458E+02  0.93000000000E-01 0. -1.
         -3   -1    0    0    0  501 -0.00000000000E+00 -0.00000000000E+00 -0.14935407092E+03  0.14935409988E+03  0.93000000000E-01 0.  1.
         25    2    1    2    0    0  0.00000000000E+00  0.00000000000E+00 -0.12320013781E+03  0.17550819833E+03  0.12499941490E+03 0.  0.
        -13    1    3    3    0    0 -0.54550739213E+02 -0.19198425779E+02 -0.94881008942E+02  0.11111606424E+03  0.10570000000E+00 0.  1.
         13    1    3    3    0    0  0.54550739213E+02  0.19198425779E+02 -0.28319128868E+02  0.64392134096E+02  0.10570000000E+00 0. -1.
<mgrwt>
<rscale>  0 0.12499941E+03</rscale>
<asrwt>0</asrwt>
<pdfrwt beam="1">  1        3 0.40236971E-02 0.12499941E+03</pdfrwt>
<pdfrwt beam="2">  1       -3 0.22977564E-01 0.12499941E+03</pdfrwt>
<totfact> 0.12494885E+04</totfact>
</mgrwt>
</event>
<event>
 5    1  0.2989269E-047  0.1250014E+03  0.7818608E-02  0.1235067E+00
          3   -1    0    0  501    0  0.00000000000E+00  0.00000000000E+00  0.15330604542E+02  0.15330886622E+02  0.93000000000E-01 0. -1.
         -3   -1    0    0    0  501 -0.00000000000E+00 -0.00000000000E+00 -0.25480374387E+03  0.25480376084E+03  0.93000000000E-01 0.  1.
         25    2    1    2    0    0  0.00000000000E+00  0.00000000000E+00 -0.23947313933E+03  0.27013464746E+03  0.12500137320E+03 0.  0.
        -13    1    3    3    0    0 -0.80545832504E+01 -0.52797313128E+02 -0.18989236853E+03  0.19726012112E+03  0.10570000000E+00 0.  1.
         13    1    3    3    0    0  0.80545832504E+01  0.52797313128E+02 -0.49580770796E+02  0.72874526345E+02  0.10570000000E+00 0. -1.
<mgrwt>
<rscale>  0 0.12500137E+03</rscale>
<asrwt>0</asrwt>
<pdfrwt beam="1">  1        3 0.23585777E-02 0.12500137E+03</pdfrwt>
<pdfrwt beam="2">  1       -3 0.39200596E-01 0.12500137E+03</pdfrwt>
<totfact> 0.10627997E+04</totfact>
</mgrwt>
</event>
<event>
 5    1  0.2989269E-047  0.1249994E+03  0.7818608E-02  0.1235070E+00
         -3   -1    0    0    0  501 -0.00000000000E+00  0.00000000000E+00  0.21332930694E+03  0.21332932721E+03  0.93000000000E-01 0.  1.
          3   -1    0    0  501    0  0.00000000000E+00 -0.00000000000E+00 -0.18310564800E+02  0.18310800974E+02  0.93000000000E-01 0. -1.
         25    2    1    2    0    0  0.00000000000E+00  0.00000000000E+00  0.19501874213E+03  0.23164012818E+03  0.12499935680E+03 0.  0.
        -13    1    3    3    0    0 -0.34194370738E+02  0.52219642709E+02  0.91633879673E+02  0.11087346459E+03  0.10570000000E+00 0.  1.
         13    1    3    3    0    0  0.34194370738E+02 -0.52219642709E+02  0.10338486246E+03  0.12076666359E+03  0.10570000000E+00 0. -1.
<mgrwt>
<rscale>  0 0.12499936E+03</rscale>
<asrwt>0</asrwt>
<pdfrwt beam="2">  1        3 0.28170297E-02 0.12499936E+03</pdfrwt>
<pdfrwt beam="1">  1       -3 0.32819913E-01 0.12499936E+03</pdfrwt>
<totfact> 0.11327426E+04</totfact>
</mgrwt>
</event>
<event>
 5    1  0.2989269E-047  0.1249994E+03  0.7818608E-02  0.1235070E+00
          3   -1    0    0  501    0  0.00000000000E+00  0.00000000000E+00  0.11040230670E+03  0.11040234587E+03  0.93000000000E-01 0. -1.
         -3   -1    0    0    0  501 -0.00000000000E+00 -0.00000000000E+00 -0.35381529543E+02  0.35381651768E+02  0.93000000000E-01 0.  1.
         25    2    1    2    0    0  0.00000000000E+00  0.00000000000E+00  0.75020777161E+02  0.14578399764E+03  0.12499942785E+03 0.  0.
        -13    1    3    3    0    0  0.22158539606E+02 -0.56133716371E+02  0.18553158756E+02  0.63136565185E+02  0.10570000000E+00 0.  1.
         13    1    3    3    0    0 -0.22158539606E+02  0.56133716371E+02  0.56467618405E+02  0.82647432458E+02  0.10570000000E+00 0. -1.
<mgrwt>
<rscale>  0 0.12499943E+03</rscale>
<asrwt>0</asrwt>
<pdfrwt beam="1">  1        3 0.16984983E-01 0.12499943E+03</pdfrwt>
<pdfrwt beam="2">  1       -3 0.54433246E-02 0.12499943E+03</pdfrwt>
<totfact> 0.13199948E+04</totfact>
</mgrwt>
</event>
<event>
 5    1  0.2989269E-047  0.1250104E+03  0.7818608E-02  0.1235053E+00
          3   -1    0    0  501    0  0.00000000000E+00  0.00000000000E+00  0.18909895860E+03  0.18909898147E+03  0.93000000000E-01 0.  1.
         -3   -1    0    0    0  501 -0.00000000000E+00 -0.00000000000E+00 -0.20660476257E+02  0.20660685569E+02  0.93000000000E-01 0. -1.
         25    2    1    2    0    0  0.00000000000E+00  0.00000000000E+00  0.16843848234E+03  0.20975966704E+03  0.12501038190E+03 0.  0.
        -13    1    3    3    0    0 -0.54208559259E+02  0.75096021356E+01  0.33548689682E+02  0.64191025643E+02  0.10570000000E+00 0. -1.
         13    1    3    3    0    0  0.54208559259E+02 -0.75096021356E+01  0.13488979266E+03  0.14556864140E+03  0.10570000000E+00 0.  1.
<mgrwt>
<rscale>  0 0.12501038E+03</rscale>
<asrwt>0</asrwt>
<pdfrwt beam="1">  1        3 0.29092166E-01 0.12501038E+03</pdfrwt>
<pdfrwt beam="2">  1       -3 0.31785526E-02 0.12501038E+03</pdfrwt>
<totfact> 0.11757792E+04</totfact>
</mgrwt>
</event>
<event>
 5    1  0.6271595E-047  0.1250022E+03  0.7818608E-02  0.1235066E+00
         -3   -1    0    0    0  501 -0.00000000000E+00  0.00000000000E+00  0.38345143389E+02  0.38345256167E+02  0.93000000000E-01 0.  1.
          3   -1    0    0  501    0  0.00000000000E+00 -0.00000000000E+00 -0.10187403082E+03  0.10187407327E+03  0.93000000000E-01 0. -1.
         25    2    1    2    0    0  0.00000000000E+00  0.00000000000E+00 -0.63528887429E+02  0.14021932944E+03  0.12500216322E+03 0.  0.
        -13    1    3    3    0    0  0.61203479365E+02  0.60106907787E+01 -0.19254217031E+02  0.64441681666E+02  0.10570000000E+00 0.  1.
         13    1    3    3    0    0 -0.61203479365E+02 -0.60106907787E+01 -0.44274670398E+02  0.75777647769E+02  0.10570000000E+00 0. -1.
<mgrwt>
<rscale>  0 0.12500216E+03</rscale>
<asrwt>0</asrwt>
<pdfrwt beam="2">  1        3 0.15672940E-01 0.12500216E+03</pdfrwt>
<pdfrwt beam="1">  1       -3 0.58992648E-02 0.12500216E+03</pdfrwt>
<totfact> 0.13339037E+04</totfact>
</mgrwt>
</event>
<event>
 5    1  0.3128687E-047  0.1250028E+03  0.7818608E-02  0.1235065E+00
          3   -1    0    0  501    0  0.00000000000E+00  0.00000000000E+00  0.22027041849E+02  0.22027238175E+02  0.93000000000E-01 0. -1.
         -3   -1    0    0    0  501 -0.00000000000E+00 -0.00000000000E+00 -0.17734584737E+03  0.17734587175E+03  0.93000000000E-01 0.  1.
         25    2    1    2    0    0  0.00000000000E+00  0.00000000000E+00 -0.15531880552E+03  0.19937310993E+03  0.12500282243E+03 0.  0.
        -13    1    3    3    0    0  0.49642113725E+02 -0.33582487998E+02 -0.10593511923E+03  0.12171435254E+03  0.10570000000E+00 0.  1.
         13    1    3    3    0    0 -0.49642113725E+02  0.33582487998E+02 -0.49383686287E+02  0.77658757388E+02  0.10570000000E+00 0. -1.
<mgrwt>
<rscale>  0 0.12500282E+03</rscale>
<asrwt>0</asrwt>
<pdfrwt beam="1">  1        3 0.33887928E-02 0.12500282E+03</pdfrwt>
<pdfrwt beam="2">  1       -3 0.27283993E-01 0.12500282E+03</pdfrwt>
<totfact> 0.11973952E+04</totfact>
</mgrwt>
</event>
<event>
 5    1  0.3230903E-047  0.1249995E+03  0.7818608E-02  0.1235070E+00
          3   -1    0    0  501    0  0.00000000000E+00  0.00000000000E+00  0.10323202705E+02  0.10323621608E+02  0.93000000000E-01 0. -1.
         -3   -1    0    0    0  501 -0.00000000000E+00 -0.00000000000E+00 -0.37838377464E+03  0.37838378607E+03  0.93000000000E-01 0.  1.
         25    2    1    2    0    0  0.00000000000E+00  0.00000000000E+00 -0.36806057193E+03  0.38870740767E+03  0.12499945668E+03 0.  0.
        -13    1    3    3    0    0  0.46209487607E+02  0.39037173551E+02 -0.23290136417E+03  0.24062891404E+03  0.10570000000E+00 0.  1.
         13    1    3    3    0    0 -0.46209487607E+02 -0.39037173551E+02 -0.13515920776E+03  0.14807849364E+03  0.10570000000E+00 0. -1.
<mgrwt>
<rscale>  0 0.12499946E+03</rscale>
<asrwt>0</asrwt>
<pdfrwt beam="1">  1        3 0.15882184E-02 0.12499946E+03</pdfrwt>
<pdfrwt beam="2">  1       -3 0.58212911E-01 0.12499946E+03</pdfrwt>
<totfact> 0.88619145E+03</totfact>
</mgrwt>
</event>
<event>
 5    1  0.2989269E-047  0.1249612E+03  0.7818608E-02  0.1235130E+00
          3   -1    0    0  501    0  0.00000000000E+00  0.00000000000E+00  0.14041762674E+03  0.14041765754E+03  0.93000000000E-01 0. -1.
         -3   -1    0    0    0  501 -0.00000000000E+00 -0.00000000000E+00 -0.27801432184E+02  0.27801587733E+02  0.93000000000E-01 0.  1.
         25    2    1    2    0    0  0.00000000000E+00  0.00000000000E+00  0.11261619455E+03  0.16821924527E+03  0.12496122280E+03 0.  0.
        -13    1    3    3    0    0 -0.51844421834E+02 -0.15978646942E+02  0.98031911286E+02  0.11204208154E+03  0.10570000000E+00 0. -1.
         13    1    3    3    0    0  0.51844421834E+02  0.15978646942E+02  0.14584283268E+02  0.56177163726E+02  0.10570000000E+00 0.  1.
<mgrwt>
<rscale>  0 0.12496122E+03</rscale>
<asrwt>0</asrwt>
<pdfrwt beam="1">  1        3 0.21602725E-01 0.12496122E+03</pdfrwt>
<pdfrwt beam="2">  1       -3 0.42771579E-02 0.12496122E+03</pdfrwt>
<totfact> 0.12672718E+04</totfact>
</mgrwt>
</event>
<event>
 5    1  0.2989269E-047  0.1250009E+03  0.7818608E-02  0.1235068E+00
          3   -1    0    0  501    0  0.00000000000E+00  0.00000000000E+00  0.94301431092E+02  0.94301476950E+02  0.93000000000E-01 0. -1.
         -3   -1    0    0    0  501 -0.00000000000E+00 -0.00000000000E+00 -0.41423505742E+02  0.41423610139E+02  0.93000000000E-01 0.  1.
         25    2    1    2    0    0  0.00000000000E+00  0.00000000000E+00  0.52877925350E+02  0.13572508709E+03  0.12500089710E+03 0.  0.
        -13    1    3    3    0    0 -0.25248850966E+02  0.26351622384E+02 -0.28652401890E+02  0.46399178699E+02  0.10570000000E+00 0.  1.
         13    1    3    3    0    0  0.25248850966E+02 -0.26351622384E+02  0.81530327240E+02  0.89325908390E+02  0.10570000000E+00 0. -1.
<mgrwt>
<rscale>  0 0.12500090E+03</rscale>
<asrwt>0</asrwt>
<pdfrwt beam="1">  1        3 0.14507924E-01 0.12500090E+03</pdfrwt>
<pdfrwt beam="2">  1       -3 0.63728586E-02 0.12500090E+03</pdfrwt>
<totfact> 0.13454410E+04</totfact>
</mgrwt>
</event>
<event>
 5    1  0.2989269E-047  0.1250001E+03  0.7818608E-02  0.1235069E+00
          3   -1    0    0  501    0  0.00000000000E+00  0.00000000000E+00  0.92664822769E+01  0.92669489471E+01  0.93000000000E-01 0. -1.
         -3   -1    0    0    0  501 -0.00000000000E+00 -0.00000000000E+00 -0.42153556679E+03  0.42153557705E+03  0.93000000000E-01 0.  1.
         25    2    1    2    0    0  0.00000000000E+00  0.00000000000E+00 -0.41226908451E+03  0.43080252600E+03  0.12500007344E+03 0.  0.
        -13    1    3    3    0    0 -0.57814551011E+02 -0.12405460474E+02 -0.27590435318E+03  0.28216952534E+03  0.10570000000E+00 0.  1.
         13    1    3    3    0    0  0.57814551011E+02  0.12405460474E+02 -0.13636473134E+03  0.14863300065E+03  0.10570000000E+00 0. -1.
<mgrwt>
<rscale>  0 0.12500007E+03</rscale>
<asrwt>0</asrwt>
<pdfrwt beam="1">  1        3 0.14256497E-02 0.12500007E+03</pdfrwt>
<pdfrwt beam="2">  1       -3 0.64851648E-01 0.12500007E+03</pdfrwt>
<totfact> 0.83442976E+03</totfact>
</mgrwt>
</event>
<event>
 5    1  0.2989269E-047  0.1249945E+03  0.7818608E-02  0.1235078E+00
         -3   -1    0    0    0  501 -0.00000000000E+00  0.00000000000E+00  0.13226970688E+03  0.13226973957E+03  0.93000000000E-01 0.  1.
          3   -1    0    0  501    0  0.00000000000E+00 -0.00000000000E+00 -0.29529775955E+02  0.29529922400E+02  0.93000000000E-01 0. -1.
         25    2    1    2    0    0  0.00000000000E+00  0.00000000000E+00  0.10273993092E+03  0.16179966197E+03  0.12499454871E+03 0.  0.
        -13    1    3    3    0    0  0.27444886970E+02  0.44642835380E+02  0.95451647676E+02  0.10889092151E+03  0.10570000000E+00 0.  1.
         13    1    3    3    0    0 -0.27444886970E+02 -0.44642835380E+02  0.72882832455E+01  0.52908740457E+02  0.10570000000E+00 0. -1.
<mgrwt>
<rscale>  0 0.12499455E+03</rscale>
<asrwt>0</asrwt>
<pdfrwt beam="2">  1        3 0.45430562E-02 0.12499455E+03</pdfrwt>
<pdfrwt beam="1">  1       -3 0.20349199E-01 0.12499455E+03</pdfrwt>
<totfact> 0.12813227E+04</totfact>
</mgrwt>
</event>
<event>
 5    1  0.2989269E-047  0.1250020E+03  0.7818608E-02  0.1235066E+00
          3   -1    0    0  501    0  0.00000000000E+00  0.00000000000E+00  0.13283314226E+03  0.13283317482E+03  0.93000000000E-01 0. -1.
         -3   -1    0    0    0  501 -0.00000000000E+00 -0.00000000000E+00 -0.29408043468E+02  0.29408190519E+02  0.93000000000E-01 0.  1.
         25    2    1    2    0    0  0.00000000000E+00  0.00000000000E+00  0.10342509880E+03  0.16224136534E+03  0.12500203825E+03 0.  0.
        -13    1    3    3    0    0 -0.26402902155E+02 -0.22031879415E+02 -0.16026022016E+02  0.37938918104E+02  0.10570000000E+00 0.  1.
         13    1    3    3    0    0  0.26402902155E+02  0.22031879415E+02  0.11945112081E+03  0.12430244724E+03  0.10570000000E+00 0. -1.
<mgrwt>
<rscale>  0 0.12500204E+03</rscale>
<asrwt>0</asrwt>
<pdfrwt beam="1">  1        3 0.20435882E-01 0.12500204E+03</pdfrwt>
<pdfrwt beam="2">  1       -3 0.45243282E-02 0.12500204E+03</pdfrwt>
<totfact> 0.12800658E+04</totfact>
</mgrwt>
</event>
<event>
 5    1  0.2989269E-047  0.1249996E+03  0.7818608E-02  0.1235070E+00
          3   -1    0    0  501    0  0.00000000000E+00  0.00000000000E+00  0.25655102522E+02  0.25655271084E+02  0.93000000000E-01 0.  1.
         -3   -1    0    0    0  501 -0.00000000000E+00 -0.00000000000E+00 -0.15225850157E+03  0.15225852997E+03  0.93000000000E-01 0. -1.
         25    2    1    2    0    0  0.00000000000E+00  0.00000000000E+00 -0.12660339905E+03  0.17791380106E+03  0.12499959982E+03 0.  0.
        -13    1    3    3    0    0  0.45304984652E+02 -0.33818991667E+02 -0.10122571202E+03  0.11594361465E+03  0.10570000000E+00 0. -1.
         13    1    3    3    0    0 -0.45304984652E+02  0.33818991667E+02 -0.25377687026E+02  0.61970186404E+02  0.10570000000E+00 0.  1.
<mgrwt>
<rscale>  0 0.12499960E+03</rscale>
<asrwt>0</asrwt>
<pdfrwt beam="1">  1        3 0.39469541E-02 0.12499960E+03</pdfrwt>
<pdfrwt beam="2">  1       -3 0.23424400E-01 0.12499960E+03</pdfrwt>
<totfact> 0.12440616E+04</totfact>
</mgrwt>
</event>
<event>
 5    1  0.2989269E-047  0.1249976E+03  0.7818608E-02  0.1235073E+00
          3   -1    0    0  501    0  0.00000000000E+00  0.00000000000E+00  0.70770101940E+01  0.70776212308E+01  0.93000000000E-01 0. -1.
         -3   -1    0    0    0  501 -0.00000000000E+00 -0.00000000000E+00 -0.55191761915E+03  0.55191762698E+03  0.93000000000E-01 0.  1.
         25    2    1    2    0    0  0.00000000000E+00  0.00000000000E+00 -0.54484060895E+03  0.55899524821E+03  0.12499759342E+03 0.  0.
        -13    1    3    3    0    0  0.56941691056E+02 -0.25471630840E+02 -0.28969900411E+03  0.29633879988E+03  0.10570000000E+00 0.  1.
         13    1    3    3    0    0 -0.56941691056E+02  0.25471630840E+02 -0.25514160484E+03  0.26265644834E+03  0.10570000000E+00 0. -1.
<mgrwt>
<rscale>  0 0.12499759E+03</rscale>
<asrwt>0</asrwt>
<pdfrwt beam="1">  1        3 0.10888188E-02 0.12499759E+03</pdfrwt>
<pdfrwt beam="2">  1       -3 0.84910417E-01 0.12499759E+03</pdfrwt>
<totfact> 0.70267153E+03</totfact>
</mgrwt>
</event>
<event>
 5    1  0.2989269E-047  0.1250067E+03  0.7818608E-02  0.1235059E+00
          3   -1    0    0  501    0  0.00000000000E+00  0.00000000000E+00  0.12081298457E+03  0.12081302037E+03  0.93000000000E-01 0. -1.
         -3   -1    0    0    0  501 -0.00000000000E+00 -0.00000000000E+00 -0.32336388885E+02  0.32336522620E+02  0.93000000000E-01 0.  1.
         25    2    1    2    0    0  0.00000000000E+00  0.00000000000E+00  0.88476595689E+02  0.15314954299E+03  0.12500669795E+03 0.  0.
        -13    1    3    3    0    0  0.53974332411E+02 -0.31506294487E+02  0.43154691239E+02  0.75948757067E+02  0.10570000000E+00 0.  1.
         13    1    3    3    0    0 -0.53974332411E+02  0.31506294487E+02  0.45321904450E+02  0.77200785922E+02  0.10570000000E+00 0. -1.
<mgrwt>
<rscale>  0 0.12500670E+03</rscale>
<asrwt>0</asrwt>
<pdfrwt beam="1">  1        3 0.18586626E-01 0.12500670E+03</pdfrwt>
<pdfrwt beam="2">  1       -3 0.49748422E-02 0.12500670E+03</pdfrwt>
<totfact> 0.13016955E+04</totfact>
</mgrwt>
</event>
<event>
 5    1  0.2989269E-047  0.1249991E+03  0.7818608E-02  0.1235071E+00
          3   -1    0    0  501    0  0.00000000000E+00  0.00000000000E+00  0.79627950735E+01  0.79633381431E+01  0.93000000000E-01 0. -1.
         -3   -1    0    0    0  501 -0.00000000000E+00 -0.00000000000E+00 -0.49053851393E+03  0.49053852275E+03  0.93000000000E-01 0.  1.
         25    2    1    2    0    0  0.00000000000E+00  0.00000000000E+00 -0.48257571886E+03  0.49850186089E+03  0.12499912352E+03 0.  0.
        -13    1    3    3    0    0  0.52396841258E+02  0.33081863482E+02 -0.20880418370E+03  0.21780504349E+03  0.10570000000E+00 0.  1.
         13    1    3    3    0    0 -0.52396841258E+02 -0.33081863482E+02 -0.27377153516E+03  0.28069681740E+03  0.10570000000E+00 0. -1.
<mgrwt>
<rscale>  0 0.12499912E+03</rscale>
<asrwt>0</asrwt>
<pdfrwt beam="1">  1        3 0.12250882E-02 0.12499912E+03</pdfrwt>
<pdfrwt beam="2">  1       -3 0.75467483E-01 0.12499912E+03</pdfrwt>
<totfact> 0.76050267E+03</totfact>
</mgrwt>
</event>
<event>
 5    1  0.2989269E-047  0.1250007E+03  0.7818608E-02  0.1235068E+00
          3   -1    0    0  501    0  0.00000000000E+00  0.00000000000E+00  0.26875934812E+03  0.26875936421E+03  0.93000000000E-01 0. -1.
         -3   -1    0    0    0  501 -0.00000000000E+00 -0.00000000000E+00 -0.14534366642E+02  0.14534664175E+02  0.93000000000E-01 0.  1.
         25    2    1    2    0    0  0.00000000000E+00  0.00000000000E+00  0.25422498148E+03  0.28329402839E+03  0.12500066125E+03 0.  0.
        -13    1    3    3    0    0 -0.37112192946E+02 -0.48270901387E+02  0.95151036751E+02  0.11296515283E+03  0.10570000000E+00 0.  1.
         13    1    3    3    0    0  0.37112192946E+02  0.48270901387E+02  0.15907394473E+03  0.17032887556E+03  0.10570000000E+00 0. -1.
<mgrwt>
<rscale>  0 0.12500066E+03</rscale>
<asrwt>0</asrwt>
<pdfrwt beam="1">  1        3 0.41347617E-01 0.12500066E+03</pdfrwt>
<pdfrwt beam="2">  1       -3 0.22360805E-02 0.12500066E+03</pdfrwt>
<totfact> 0.10408183E+04</totfact>
</mgrwt>
</event>
<event>
 5    1  0.2989269E-047  0.1249994E+03  0.7818608E-02  0.1235070E+00
          3   -1    0    0  501    0  0.00000000000E+00  0.00000000000E+00  0.14130000665E+03  0.14130003726E+03  0.93000000000E-01 0. -1.
         -3   -1    0    0    0  501 -0.00000000000E+00 -0.00000000000E+00 -0.27644684602E+02  0.27644841033E+02  0.93000000000E-01 0.  1.
         25    2    1    2    0    0  0.00000000000E+00  0.00000000000E+00  0.11365532205E+03  0.16894487829E+03  0.12499935868E+03 0.  0.
        -13    1    3    3    0    0 -0.21476063802E+02  0.37863933433E+02  0.11744204132E+03  0.12524992221E+03  0.10570000000E+00 0. -1.
         13    1    3    3    0    0  0.21476063802E+02 -0.37863933433E+02 -0.37867192710E+01  0.43694956080E+02  0.10570000000E+00 0.  1.
<mgrwt>
<rscale>  0 0.12499936E+03</rscale>
<asrwt>0</asrwt>
<pdfrwt beam="1">  1        3 0.21738477E-01 0.12499936E+03</pdfrwt>
<pdfrwt beam="2">  1       -3 0.42530427E-02 0.12499936E+03</pdfrwt>
<totfact> 0.12645102E+04</totfact>
</mgrwt>
</event>
<event>
 5    1  0.2989269E-047  0.1250001E+03  0.7818608E-02  0.1235069E+00
         -3   -1    0    0    0  501 -0.00000000000E+00  0.00000000000E+00  0.16938996159E+03  0.16938998712E+03  0.93000000000E-01 0.  1.
          3   -1    0    0  501    0  0.00000000000E+00 -0.00000000000E+00 -0.23060611858E+02  0.23060799385E+02  0.93000000000E-01 0. -1.
         25    2    1    2    0    0  0.00000000000E+00  0.00000000000E+00  0.14632934973E+03  0.19245078651E+03  0.12500010653E+03 0.  0.
        -13    1    3    3    0    0  0.36613042248E+02  0.30914913359E+02  0.11388348697E+02  0.49253958106E+02  0.10570000000E+00 0. -1.
         13    1    3    3    0    0 -0.36613042248E+02 -0.30914913359E+02  0.13494100104E+03  0.14319682840E+03  0.10570000000E+00 0.  1.
<mgrwt>
<rscale>  0 0.12500011E+03</rscale>
<asrwt>0</asrwt>
<pdfrwt beam="2">  1        3 0.35478028E-02 0.12500011E+03</pdfrwt>
<pdfrwt beam="1">  1       -3 0.26060011E-01 0.12500011E+03</pdfrwt>
<totfact> 0.12121562E+04</totfact>
</mgrwt>
</event>
<event>
 5    1  0.2989269E-047  0.1250015E+03  0.7818608E-02  0.1235067E+00
          3   -1    0    0  501    0  0.00000000000E+00  0.00000000000E+00  0.44467283689E+02  0.44467380941E+02  0.93000000000E-01 0. -1.
         -3   -1    0    0    0  501 -0.00000000000E+00 -0.00000000000E+00 -0.87847304518E+02  0.87847353745E+02  0.93000000000E-01 0.  1.
         25    2    1    2    0    0  0.00000000000E+00  0.00000000000E+00 -0.43380020829E+02  0.13231473469E+03  0.12500145122E+03 0.  0.
        -13    1    3    3    0    0  0.53574054374E+02 -0.29933111561E+02 -0.34221530162E+02  0.70265886239E+02  0.10570000000E+00 0.  1.
         13    1    3    3    0    0 -0.53574054374E+02  0.29933111561E+02 -0.91584906665E+01  0.62048848447E+02  0.10570000000E+00 0. -1.
<mgrwt>
<rscale>  0 0.12500145E+03</rscale>
<asrwt>0</asrwt>
<pdfrwt beam="1">  1        3 0.68411319E-02 0.12500145E+03</pdfrwt>
<pdfrwt beam="2">  1       -3 0.13514981E-01 0.12500145E+03</pdfrwt>
<totfact> 0.13542859E+04</totfact>
</mgrwt>
</event>
<event>
 5    1  0.2989269E-047  0.1250006E+03  0.7818608E-02  0.1235068E+00
          3   -1    0    0  501    0  0.00000000000E+00  0.00000000000E+00  0.80162703501E+02  0.80162757448E+02  0.93000000000E-01 0. -1.
         -3   -1    0    0    0  501 -0.00000000000E+00 -0.00000000000E+00 -0.48729365162E+02  0.48729453907E+02  0.93000000000E-01 0.  1.
         25    2    1    2    0    0  0.00000000000E+00  0.00000000000E+00  0.31433338340E+02  0.12889221135E+03  0.12500058955E+03 0.  0.
        -13    1    3    3    0    0  0.54642451530E+02  0.27685035208E+02  0.28513396930E+02  0.67566882869E+02  0.10570000000E+00 0.  1.
         13    1    3    3    0    0 -0.54642451530E+02 -0.27685035208E+02  0.29199414101E+01  0.61325328486E+02  0.10570000000E+00 0. -1.
<mgrwt>
<rscale>  0 0.12500059E+03</rscale>
<asrwt>0</asrwt>
<pdfrwt beam="1">  1        3 0.12332735E-01 0.12500059E+03</pdfrwt>
<pdfrwt beam="2">  1       -3 0.74968364E-02 0.12500059E+03</pdfrwt>
<totfact> 0.13632656E+04</totfact>
</mgrwt>
</event>
<event>
 5    1  0.2989269E-047  0.1250010E+03  0.7818608E-02  0.1235068E+00
         -3   -1    0    0    0  501 -0.00000000000E+00  0.00000000000E+00  0.41964103209E+02  0.41964206262E+02  0.93000000000E-01 0.  1.
          3   -1    0    0  501    0  0.00000000000E+00 -0.00000000000E+00 -0.93086795660E+02  0.93086842116E+02  0.93000000000E-01 0. -1.
         25    2    1    2    0    0  0.00000000000E+00  0.00000000000E+00 -0.51122692451E+02  0.13505104838E+03  0.12500102393E+03 0.  0.
        -13    1    3    3    0    0 -0.49114255773E+02 -0.36568316069E+02 -0.12030405716E+02  0.62403475019E+02  0.10570000000E+00 0.  1.
         13    1    3    3    0    0  0.49114255773E+02  0.36568316069E+02 -0.39092286735E+02  0.72647573359E+02  0.10570000000E+00 0. -1.
<mgrwt>
<rscale>  0 0.12500102E+03</rscale>
<asrwt>0</asrwt>
<pdfrwt beam="2">  1        3 0.14321057E-01 0.12500102E+03</pdfrwt>
<pdfrwt beam="1">  1       -3 0.64560274E-02 0.12500102E+03</pdfrwt>
<totfact> 0.13471755E+04</totfact>
</mgrwt>
</event>
<event>
 5    1  0.2989269E-047  0.1250008E+03  0.7818608E-02  0.1235068E+00
          3   -1    0    0  501    0  0.00000000000E+00  0.00000000000E+00  0.52761247934E+02  0.52761329898E+02  0.93000000000E-01 0.  1.
         -3   -1    0    0    0  501 -0.00000000000E+00 -0.00000000000E+00 -0.74037171129E+02  0.74037229539E+02  0.93000000000E-01 0. -1.
         25    2    1    2    0    0  0.00000000000E+00  0.00000000000E+00 -0.21275923195E+02  0.12679855944E+03  0.12500083907E+03 0.  0.
        -13    1    3    3    0    0 -0.13694467117E+02 -0.59520756046E+02 -0.24096495258E+02  0.65657528785E+02  0.10570000000E+00 0. -1.
         13    1    3    3    0    0  0.13694467117E+02  0.59520756046E+02  0.28205720633E+01  0.61141030652E+02  0.10570000000E+00 0.  1.
<mgrwt>
<rscale>  0 0.12500084E+03</rscale>
<asrwt>0</asrwt>
<pdfrwt beam="1">  1        3 0.81171258E-02 0.12500084E+03</pdfrwt>
<pdfrwt beam="2">  1       -3 0.11390345E-01 0.12500084E+03</pdfrwt>
<totfact> 0.13688081E+04</totfact>
</mgrwt>
</event>
<event>
 5    1  0.2989269E-047  0.1249996E+03  0.7818608E-02  0.1235070E+00
          3   -1    0    0  501    0  0.00000000000E+00  0.00000000000E+00  0.20725982692E+03  0.20725984778E+03  0.93000000000E-01 0. -1.
         -3   -1    0    0    0  501 -0.00000000000E+00 -0.00000000000E+00 -0.18846853401E+02  0.18847082855E+02  0.93000000000E-01 0.  1.
         25    2    1    2    0    0  0.00000000000E+00  0.00000000000E+00  0.18841297352E+03  0.22610693064E+03  0.12499958197E+03 0.  0.
        -13    1    3    3    0    0  0.38174747370E+01  0.40416810031E+02  0.82499470741E+01  0.41426615184E+02  0.10570000000E+00 0.  1.
         13    1    3    3    0    0 -0.38174747370E+01 -0.40416810031E+02  0.18016302644E+03  0.18468031545E+03  0.10570000000E+00 0. -1.
<mgrwt>
<rscale>  0 0.12499958E+03</rscale>
<asrwt>0</asrwt>
<pdfrwt beam="1">  1        3 0.31886148E-01 0.12499958E+03</pdfrwt>
<pdfrwt beam="2">  1       -3 0.28995350E-02 0.12499958E+03</pdfrwt>
<totfact> 0.11435535E+04</totfact>
</mgrwt>
</event>
<event>
 5    1  0.2989269E-047  0.1249948E+03  0.7818608E-02  0.1235077E+00
          3   -1    0    0  501    0  0.00000000000E+00  0.00000000000E+00  0.27015741936E+02  0.27015902009E+02  0.93000000000E-01 0. -1.
         -3   -1    0    0    0  501 -0.00000000000E+00 -0.00000000000E+00 -0.14457897072E+03  0.14457900063E+03  0.93000000000E-01 0.  1.
         25    2    1    2    0    0  0.00000000000E+00  0.00000000000E+00 -0.11756322878E+03  0.17159490264E+03  0.12499479129E+03 0.  0.
        -13    1    3    3    0    0  0.23471246587E+01 -0.25719410585E+02 -0.13691062484E+03  0.13932525773E+03  0.10570000000E+00 0.  1.
         13    1    3    3    0    0 -0.23471246587E+01  0.25719410585E+02  0.19347396065E+02  0.32269644900E+02  0.10570000000E+00 0. -1.
<mgrwt>
<rscale>  0 0.12499479E+03</rscale>
<asrwt>0</asrwt>
<pdfrwt beam="1">  1        3 0.41562827E-02 0.12499479E+03</pdfrwt>
<pdfrwt beam="2">  1       -3 0.22242933E-01 0.12499479E+03</pdfrwt>
<totfact> 0.12585302E+04</totfact>
</mgrwt>
</event>
<event>
 5    1  0.4241311E-047  0.1250021E+03  0.7818608E-02  0.1235066E+00
         -3   -1    0    0    0  501 -0.00000000000E+00  0.00000000000E+00  0.55596308434E+03  0.55596309212E+03  0.93000000000E-01 0.  1.
          3   -1    0    0  501    0  0.00000000000E+00 -0.00000000000E+00 -0.70260147142E+01  0.70266301855E+01  0.93000000000E-01 0. -1.
         25    2    1    2    0    0  0.00000000000E+00  0.00000000000E+00  0.54893706963E+03  0.56298972230E+03  0.12500208402E+03 0.  0.
        -13    1    3    3    0    0  0.58976726569E+02 -0.11467917511E+02  0.19690278235E+03  0.20586520900E+03  0.10570000000E+00 0.  1.
         13    1    3    3    0    0 -0.58976726569E+02  0.11467917511E+02  0.35203428728E+03  0.35712451330E+03  0.10570000000E+00 0. -1.
<mgrwt>
<rscale>  0 0.12500208E+03</rscale>
<asrwt>0</asrwt>
<pdfrwt beam="2">  1        3 0.10809729E-02 0.12500208E+03</pdfrwt>
<pdfrwt beam="1">  1       -3 0.85532860E-01 0.12500208E+03</pdfrwt>
<totfact> 0.69902642E+03</totfact>
</mgrwt>
</event>
<event>
 5    1  0.2989269E-047  0.1249969E+03  0.7818608E-02  0.1235074E+00
          3   -1    0    0  501    0  0.00000000000E+00  0.00000000000E+00  0.56519966294E+02  0.56520042807E+02  0.93000000000E-01 0. -1.
         -3   -1    0    0    0  501 -0.00000000000E+00 -0.00000000000E+00 -0.69109143680E+02  0.69109206255E+02  0.93000000000E-01 0.  1.
         25    2    1    2    0    0  0.00000000000E+00  0.00000000000E+00 -0.12589177386E+02  0.12562924906E+03  0.12499688329E+03 0.  0.
        -13    1    3    3    0    0 -0.88001906828E+01 -0.56306566133E+02  0.19490049780E+02  0.60230772522E+02  0.10570000000E+00 0.  1.
         13    1    3    3    0    0  0.88001906828E+01  0.56306566133E+02 -0.32079227166E+02  0.65398476540E+02  0.10570000000E+00 0. -1.
<mgrwt>
<rscale>  0 0.12499688E+03</rscale>
<asrwt>0</asrwt>
<pdfrwt beam="1">  1        3 0.86953901E-02 0.12499688E+03</pdfrwt>
<pdfrwt beam="2">  1       -3 0.10632187E-01 0.12499688E+03</pdfrwt>
<totfact> 0.13720591E+04</totfact>
</mgrwt>
</event>
<event>
 5    1  0.2989269E-047  0.1249975E+03  0.7818608E-02  0.1235073E+00
          3   -1    0    0  501    0  0.00000000000E+00  0.00000000000E+00  0.10799453476E+03  0.10799457480E+03  0.93000000000E-01 0. -1.
         -3   -1    0    0    0  501 -0.00000000000E+00 -0.00000000000E+00 -0.36169232330E+02  0.36169351893E+02  0.93000000000E-01 0.  1.
         25    2    1    2    0    0  0.00000000000E+00  0.00000000000E+00  0.71825302430E+02  0.14416392670E+03  0.12499745474E+03 0.  0.
        -13    1    3    3    0    0 -0.36741984550E+02  0.44844102210E+02  0.89849902520E+01  0.58666073279E+02  0.10570000000E+00 0.  1.
         13    1    3    3    0    0  0.36741984550E+02 -0.44844102210E+02  0.62840312178E+02  0.85497853416E+02  0.10570000000E+00 0. -1.
<mgrwt>
<rscale>  0 0.12499745E+03</rscale>
<asrwt>0</asrwt>
<pdfrwt beam="1">  1        3 0.16614556E-01 0.12499745E+03</pdfrwt>
<pdfrwt beam="2">  1       -3 0.55645097E-02 0.12499745E+03</pdfrwt>
<totfact> 0.13240968E+04</totfact>
</mgrwt>
</event>
<event>
 5    1  0.2989269E-047  0.1250001E+03  0.7818608E-02  0.1235069E+00
         -3   -1    0    0    0  501 -0.00000000000E+00  0.00000000000E+00  0.12738869161E+02  0.12739208630E+02  0.93000000000E-01 0.  1.
          3   -1    0    0  501    0  0.00000000000E+00 -0.00000000000E+00 -0.30663652101E+03  0.30663653511E+03  0.93000000000E-01 0. -1.
         25    2    1    2    0    0  0.00000000000E+00  0.00000000000E+00 -0.29389765185E+03  0.31937574374E+03  0.12500014372E+03 0.  0.
        -13    1    3    3    0    0  0.46787560204E+02  0.25506595079E+01 -0.41273389964E+02  0.62442658058E+02  0.10570000000E+00 0.  1.
         13    1    3    3    0    0 -0.46787560204E+02 -0.25506595079E+01 -0.25262426189E+03  0.25693308568E+03  0.10570000000E+00 0. -1.
<mgrwt>
<rscale>  0 0.12500014E+03</rscale>
<asrwt>0</asrwt>
<pdfrwt beam="2">  1        3 0.47174871E-01 0.12500014E+03</pdfrwt>
<pdfrwt beam="1">  1       -3 0.19598534E-02 0.12500014E+03</pdfrwt>
<totfact> 0.98356244E+03</totfact>
</mgrwt>
</event>
<event>
 5    1  0.2989269E-047  0.1250017E+03  0.7818608E-02  0.1235067E+00
         -3   -1    0    0    0  501 -0.00000000000E+00  0.00000000000E+00  0.39970520717E+02  0.39970628909E+02  0.93000000000E-01 0.  1.
          3   -1    0    0  501    0  0.00000000000E+00 -0.00000000000E+00 -0.97730633448E+02  0.97730677697E+02  0.93000000000E-01 0. -1.
         25    2    1    2    0    0  0.00000000000E+00  0.00000000000E+00 -0.57760112732E+02  0.13770130661E+03  0.12500167686E+03 0.  0.
        -13    1    3    3    0    0  0.15624586358E+02  0.34972358433E+02 -0.83285390719E+02  0.91671484295E+02  0.10570000000E+00 0. -1.
         13    1    3    3    0    0 -0.15624586358E+02 -0.34972358433E+02  0.25525277987E+02  0.46029822311E+02  0.10570000000E+00 0.  1.
<mgrwt>
<rscale>  0 0.12500168E+03</rscale>
<asrwt>0</asrwt>
<pdfrwt beam="2">  1        3 0.15035494E-01 0.12500168E+03</pdfrwt>
<pdfrwt beam="1">  1       -3 0.61493226E-02 0.12500168E+03</pdfrwt>
<totfact> 0.13403466E+04</totfact>
</mgrwt>
</event>
<event>
 5    1  0.2989269E-047  0.1250014E+03  0.7818608E-02  0.1235067E+00
         -3   -1    0    0    0  501 -0.00000000000E+00  0.00000000000E+00  0.81913680112E+02  0.81913732905E+02  0.93000000000E-01 0.  1.
          3   -1    0    0  501    0  0.00000000000E+00 -0.00000000000E+00 -0.47688379709E+02  0.47688470391E+02  0.93000000000E-01 0. -1.
         25    2    1    2    0    0  0.00000000000E+00  0.00000000000E+00  0.34225300403E+02  0.12960220330E+03  0.12500143964E+03 0.  0.
        -13    1    3    3    0    0 -0.61071715357E+02  0.24408403639E+01  0.35698608792E+01  0.61224727010E+02  0.10570000000E+00 0. -1.
         13    1    3    3    0    0  0.61071715357E+02 -0.24408403639E+01  0.30655439524E+02  0.68377476286E+02  0.10570000000E+00 0.  1.
<mgrwt>
<rscale>  0 0.12500144E+03</rscale>
<asrwt>0</asrwt>
<pdfrwt beam="2">  1        3 0.73366849E-02 0.12500144E+03</pdfrwt>
<pdfrwt beam="1">  1       -3 0.12602116E-01 0.12500144E+03</pdfrwt>
<totfact> 0.13613908E+04</totfact>
</mgrwt>
</event>
<event>
 5    1  0.2989269E-047  0.1250139E+03  0.7818608E-02  0.1235048E+00
          3   -1    0    0  501    0  0.00000000000E+00  0.00000000000E+00  0.61937246899E+02  0.61937316719E+02  0.93000000000E-01 0. -1.
         -3   -1    0    0    0  501 -0.00000000000E+00 -0.00000000000E+00 -0.63081706362E+02  0.63081774916E+02  0.93000000000E-01 0.  1.
         25    2    1    2    0    0  0.00000000000E+00  0.00000000000E+00 -0.11444594633E+01  0.12501909164E+03  0.12501385318E+03 0.  0.
        -13    1    3    3    0    0 -0.32714956623E+02 -0.53194920814E+02 -0.32438041348E+01  0.62534002151E+02  0.10570000000E+00 0.  1.
         13    1    3    3    0    0  0.32714956623E+02  0.53194920814E+02  0.20993446715E+01  0.62485089484E+02  0.10570000000E+00 0. -1.
<mgrwt>
<rscale>  0 0.12501385E+03</rscale>
<asrwt>0</asrwt>
<pdfrwt beam="1">  1        3 0.95288178E-02 0.12501385E+03</pdfrwt>
<pdfrwt beam="2">  1       -3 0.97048886E-02 0.12501385E+03</pdfrwt>
<totfact> 0.13731620E+04</totfact>
</mgrwt>
</event>
<event>
 5    1  0.2989269E-047  0.1249984E+03  0.7818608E-02  0.1235072E+00
          3   -1    0    0  501    0  0.00000000000E+00  0.00000000000E+00  0.17720760114E+03  0.17720762554E+03  0.93000000000E-01 0. -1.
         -3   -1    0    0    0  501 -0.00000000000E+00 -0.00000000000E+00 -0.22042666693E+02  0.22042862880E+02  0.93000000000E-01 0.  1.
         25    2    1    2    0    0  0.00000000000E+00  0.00000000000E+00  0.15516493445E+03  0.19925048842E+03  0.12499840101E+03 0.  0.
        -13    1    3    3    0    0  0.43058709273E+02 -0.24284665506E+02  0.13853887069E+03  0.14709462019E+03  0.10570000000E+00 0. -1.
         13    1    3    3    0    0 -0.43058709273E+02  0.24284665506E+02  0.16626063755E+02  0.52155868236E+02  0.10570000000E+00 0.  1.
<mgrwt>
<rscale>  0 0.12499840E+03</rscale>
<asrwt>0</asrwt>
<pdfrwt beam="1">  1        3 0.27262725E-01 0.12499840E+03</pdfrwt>
<pdfrwt beam="2">  1       -3 0.33911964E-02 0.12499840E+03</pdfrwt>
<totfact> 0.11978424E+04</totfact>
</mgrwt>
</event>
<event>
 5    1  0.2989269E-047  0.1250003E+03  0.7818608E-02  0.1235069E+00
          3   -1    0    0  501    0  0.00000000000E+00  0.00000000000E+00  0.50401111959E+02  0.50401197761E+02  0.93000000000E-01 0.  1.
         -3   -1    0    0    0  501 -0.00000000000E+00 -0.00000000000E+00 -0.77503457713E+02  0.77503513510E+02  0.93000000000E-01 0. -1.
         25    2    1    2    0    0  0.00000000000E+00  0.00000000000E+00 -0.27102345753E+02  0.12790471127E+03  0.12500031208E+03 0.  0.
        -13    1    3    3    0    0  0.24443919753E+02 -0.51688369769E+02 -0.39377788848E+02  0.69424881774E+02  0.10570000000E+00 0. -1.
         13    1    3    3    0    0 -0.24443919753E+02  0.51688369769E+02  0.12275443095E+02  0.58479829497E+02  0.10570000000E+00 0.  1.
<mgrwt>
<rscale>  0 0.12500031E+03</rscale>
<asrwt>0</asrwt>
<pdfrwt beam="1">  1        3 0.77540281E-02 0.12500031E+03</pdfrwt>
<pdfrwt beam="2">  1       -3 0.11923620E-01 0.12500031E+03</pdfrwt>
<totfact> 0.13658920E+04</totfact>
</mgrwt>
</event>
<event>
 5    1  0.2989269E-047  0.1250006E+03  0.7818608E-02  0.1235068E+00
         -3   -1    0    0    0  501 -0.00000000000E+00  0.00000000000E+00  0.57568712843E+02  0.57568787961E+02  0.93000000000E-01 0.  1.
          3   -1    0    0  501    0  0.00000000000E+00 -0.00000000000E+00 -0.67854236401E+02  0.67854300133E+02  0.93000000000E-01 0. -1.
         25    2    1    2    0    0  0.00000000000E+00  0.00000000000E+00 -0.10285523558E+02  0.12542308809E+03  0.12500063613E+03 0.  0.
        -13    1    3    3    0    0  0.25583529321E+02  0.42765082419E+02  0.32706192175E+02  0.59607679253E+02  0.10570000000E+00 0.  1.
         13    1    3    3    0    0 -0.25583529321E+02 -0.42765082419E+02 -0.42991715733E+02  0.65815408842E+02  0.10570000000E+00 0. -1.
<mgrwt>
<rscale>  0 0.12500064E+03</rscale>
<asrwt>0</asrwt>
<pdfrwt beam="2">  1        3 0.10439124E-01 0.12500064E+03</pdfrwt>
<pdfrwt beam="1">  1       -3 0.88567357E-02 0.12500064E+03</pdfrwt>
<totfact> 0.13724948E+04</totfact>
</mgrwt>
</event>
<event>
 5    1  0.2989269E-047  0.1250002E+03  0.7818608E-02  0.1235069E+00
          3   -1    0    0  501    0  0.00000000000E+00  0.00000000000E+00  0.46742478724E+02  0.46742571242E+02  0.93000000000E-01 0. -1.
         -3   -1    0    0    0  501 -0.00000000000E+00 -0.00000000000E+00 -0.83569710083E+02  0.83569761830E+02  0.93000000000E-01 0.  1.
         25    2    1    2    0    0  0.00000000000E+00  0.00000000000E+00 -0.36827231359E+02  0.13031233307E+03  0.12500023672E+03 0.  0.
        -13    1    3    3    0    0  0.60790985682E+02 -0.12406174141E+02 -0.10556998894E+02  0.62935828390E+02  0.10570000000E+00 0.  1.
         13    1    3    3    0    0 -0.60790985682E+02  0.12406174141E+02 -0.26270232464E+02  0.67376504682E+02  0.10570000000E+00 0. -1.
<mgrwt>
<rscale>  0 0.12500024E+03</rscale>
<asrwt>0</asrwt>
<pdfrwt beam="1">  1        3 0.71911617E-02 0.12500024E+03</pdfrwt>
<pdfrwt beam="2">  1       -3 0.12856889E-01 0.12500024E+03</pdfrwt>
<totfact> 0.13595692E+04</totfact>
</mgrwt>
</event>
<event>
 5    1  0.2989269E-047  0.1249926E+03  0.7818608E-02  0.1235081E+00
          3   -1    0    0  501    0  0.00000000000E+00  0.00000000000E+00  0.24889011375E+02  0.24889185126E+02  0.93000000000E-01 0. -1.
         -3   -1    0    0    0  501 -0.00000000000E+00 -0.00000000000E+00 -0.15692745817E+03  0.15692748573E+03  0.93000000000E-01 0.  1.
         25    2    1    2    0    0  0.00000000000E+00  0.00000000000E+00 -0.13203844680E+03  0.18181667085E+03  0.12499260125E+03 0.  0.
        -13    1    3    3    0    0 -0.57382425908E+02  0.56684221210E+01 -0.10107834719E+03  0.11636888439E+03  0.10570000000E+00 0.  1.
         13    1    3    3    0    0  0.57382425908E+02 -0.56684221210E+01 -0.30960099611E+02  0.65447786462E+02  0.10570000000E+00 0. -1.
<mgrwt>
<rscale>  0 0.12499260E+03</rscale>
<asrwt>0</asrwt>
<pdfrwt beam="1">  1        3 0.38290943E-02 0.12499260E+03</pdfrwt>
<pdfrwt beam="2">  1       -3 0.24142701E-01 0.12499260E+03</pdfrwt>
<totfact> 0.12355486E+04</totfact>
</mgrwt>
</event>
<event>
 5    1  0.2989269E-047  0.1250066E+03  0.7818608E-02  0.1235059E+00
          3   -1    0    0  501    0  0.00000000000E+00  0.00000000000E+00  0.17407595863E+03  0.17407598347E+03  0.93000000000E-01 0. -1.
         -3   -1    0    0    0  501 -0.00000000000E+00 -0.00000000000E+00 -0.22442147556E+02  0.22442340251E+02  0.93000000000E-01 0.  1.
         25    2    1    2    0    0  0.00000000000E+00  0.00000000000E+00  0.15163381107E+03  0.19651832372E+03  0.12500655542E+03 0.  0.
        -13    1    3    3    0    0 -0.52096695981E+02  0.29105132777E+02  0.46597055120E+02  0.75713084764E+02  0.10570000000E+00 0.  1.
         13    1    3    3    0    0  0.52096695981E+02 -0.29105132777E+02  0.10503675595E+03  0.12080523895E+03  0.10570000000E+00 0. -1.
<mgrwt>
<rscale>  0 0.12500656E+03</rscale>
<asrwt>0</asrwt>
<pdfrwt beam="1">  1        3 0.26780933E-01 0.12500656E+03</pdfrwt>
<pdfrwt beam="2">  1       -3 0.34526549E-02 0.12500656E+03</pdfrwt>
<totfact> 0.12033798E+04</totfact>
</mgrwt>
</event>
<event>
 5    1  0.2989269E-047  0.1249994E+03  0.7818608E-02  0.1235070E+00
         -3   -1    0    0    0  501 -0.00000000000E+00  0.00000000000E+00  0.22346978706E+03  0.22346980642E+03  0.93000000000E-01 0. -1.
          3   -1    0    0  501    0  0.00000000000E+00 -0.00000000000E+00 -0.17479680467E+02  0.17479927867E+02  0.93000000000E-01 0.  1.
         25    2    1    2    0    0  0.00000000000E+00  0.00000000000E+00  0.20599010660E+03  0.24094973428E+03  0.12499940174E+03 0.  0.
        -13    1    3    3    0    0 -0.41836504215E+02  0.46347328525E+02  0.97599994760E+02  0.11586258281E+03  0.10570000000E+00 0. -1.
         13    1    3    3    0    0  0.41836504215E+02 -0.46347328525E+02  0.10839011184E+03  0.12508715147E+03  0.10570000000E+00 0.  1.
<mgrwt>
<rscale>  0 0.12499940E+03</rscale>
<asrwt>0</asrwt>
<pdfrwt beam="2">  1        3 0.26892024E-02 0.12499940E+03</pdfrwt>
<pdfrwt beam="1">  1       -3 0.34379985E-01 0.12499940E+03</pdfrwt>
<totfact> 0.11151454E+04</totfact>
</mgrwt>
</event>
<event>
 5    1  0.2989269E-047  0.1249999E+03  0.7818608E-02  0.1235069E+00
         -3   -1    0    0    0  501 -0.00000000000E+00  0.00000000000E+00  0.12199733758E+03  0.12199737303E+03  0.93000000000E-01 0.  1.
          3   -1    0    0  501    0  0.00000000000E+00 -0.00000000000E+00 -0.32018969162E+02  0.32019104222E+02  0.93000000000E-01 0. -1.
         25    2    1    2    0    0  0.00000000000E+00  0.00000000000E+00  0.89978368422E+02  0.15401647725E+03  0.12499987393E+03 0.  0.
        -13    1    3    3    0    0  0.41586039085E+02  0.43868031035E+02  0.64565299167E+02  0.88444851872E+02  0.10570000000E+00 0.  1.
         13    1    3    3    0    0 -0.41586039085E+02 -0.43868031035E+02  0.25413069255E+02  0.65571625381E+02  0.10570000000E+00 0. -1.
<mgrwt>
<rscale>  0 0.12499987E+03</rscale>
<asrwt>0</asrwt>
<pdfrwt beam="2">  1        3 0.49260084E-02 0.12499987E+03</pdfrwt>
<pdfrwt beam="1">  1       -3 0.18768834E-01 0.12499987E+03</pdfrwt>
<totfact> 0.12998047E+04</totfact>
</mgrwt>
</event>
<event>
 5    1  0.2989269E-047  0.1250023E+03  0.7818608E-02  0.1235066E+00
         -3   -1    0    0    0  501 -0.00000000000E+00  0.00000000000E+00  0.55521281260E+02  0.55521359149E+02  0.93000000000E-01 0.  1.
          3   -1    0    0  501    0  0.00000000000E+00 -0.00000000000E+00 -0.70358312142E+02  0.70358373606E+02  0.93000000000E-01 0. -1.
         25    2    1    2    0    0  0.00000000000E+00  0.00000000000E+00 -0.14837030882E+02  0.12587973275E+03  0.12500227851E+03 0.  0.
        -13    1    3    3    0    0  0.49832469342E+02  0.21948625198E+02  0.23478511810E+02  0.59298135199E+02  0.10570000000E+00 0.  1.
         13    1    3    3    0    0 -0.49832469342E+02 -0.21948625198E+02 -0.38315542692E+02  0.66581597556E+02  0.10570000000E+00 0. -1.
<mgrwt>
<rscale>  0 0.12500228E+03</rscale>
<asrwt>0</asrwt>
<pdfrwt beam="2">  1        3 0.10824367E-01 0.12500228E+03</pdfrwt>
<pdfrwt beam="1">  1       -3 0.85417462E-02 0.12500228E+03</pdfrwt>
<totfact> 0.13712104E+04</totfact>
</mgrwt>
</event>
<event>
 5    1  0.2989269E-047  0.1249987E+03  0.7818608E-02  0.1235071E+00
         -3   -1    0    0    0  501 -0.00000000000E+00  0.00000000000E+00  0.10592311090E+02  0.10592719350E+02  0.93000000000E-01 0.  1.
          3   -1    0    0  501    0  0.00000000000E+00 -0.00000000000E+00 -0.36876665860E+03  0.36876667033E+03  0.93000000000E-01 0. -1.
         25    2    1    2    0    0  0.00000000000E+00  0.00000000000E+00 -0.35817434751E+03  0.37935938968E+03  0.12499873328E+03 0.  0.
        -13    1    3    3    0    0 -0.21734332528E+02  0.58122050542E+02 -0.15645611680E+03  0.16831245238E+03  0.10570000000E+00 0.  1.
         13    1    3    3    0    0  0.21734332528E+02 -0.58122050542E+02 -0.20171823071E+03  0.21104693730E+03  0.10570000000E+00 0. -1.
<mgrwt>
<rscale>  0 0.12499873E+03</rscale>
<asrwt>0</asrwt>
<pdfrwt beam="2">  1        3 0.56733355E-01 0.12499873E+03</pdfrwt>
<pdfrwt beam="1">  1       -3 0.16296189E-02 0.12499873E+03</pdfrwt>
<totfact> 0.89894500E+03</totfact>
</mgrwt>
</event>
<event>
 5    1  0.2989269E-047  0.1250015E+03  0.7818608E-02  0.1235067E+00
         -3   -1    0    0    0  501 -0.00000000000E+00  0.00000000000E+00  0.54066352146E+03  0.54066352946E+03  0.93000000000E-01 0.  1.
          3   -1    0    0  501    0  0.00000000000E+00 -0.00000000000E+00 -0.72247799631E+01  0.72253785032E+01  0.93000000000E-01 0. -1.
         25    2    1    2    0    0  0.00000000000E+00  0.00000000000E+00  0.53343874150E+03  0.54788890796E+03  0.12500145814E+03 0.  0.
        -13    1    3    3    0    0  0.51961512723E+02 -0.30460162069E+02  0.33986654938E+03  0.34516242964E+03  0.10570000000E+00 0.  1.
         13    1    3    3    0    0 -0.51961512723E+02  0.30460162069E+02  0.19357219212E+03  0.20272647832E+03  0.10570000000E+00 0. -1.
<mgrwt>
<rscale>  0 0.12500146E+03</rscale>
<asrwt>0</asrwt>
<pdfrwt beam="2">  1        3 0.11115512E-02 0.12500146E+03</pdfrwt>
<pdfrwt beam="1">  1       -3 0.83179058E-01 0.12500146E+03</pdfrwt>
<totfact> 0.71269885E+03</totfact>
</mgrwt>
</event>
<event>
 5    1  0.2989269E-047  0.1250006E+03  0.7818608E-02  0.1235068E+00
         -3   -1    0    0    0  501 -0.00000000000E+00  0.00000000000E+00  0.40783425278E+02  0.40783531313E+02  0.93000000000E-01 0.  1.
          3   -1    0    0  501    0  0.00000000000E+00 -0.00000000000E+00 -0.95781026720E+02  0.95781071870E+02  0.93000000000E-01 0. -1.
         25    2    1    2    0    0  0.00000000000E+00  0.00000000000E+00 -0.54997601443E+02  0.13656460318E+03  0.12500061871E+03 0.  0.
        -13    1    3    3    0    0 -0.45260084521E+01  0.45488274553E+02  0.19065897174E+02  0.49529662647E+02  0.10570000000E+00 0.  1.
         13    1    3    3    0    0  0.45260084521E+01 -0.45488274553E+02 -0.74063498617E+02  0.87034940537E+02  0.10570000000E+00 0. -1.
<mgrwt>
<rscale>  0 0.12500062E+03</rscale>
<asrwt>0</asrwt>
<pdfrwt beam="2">  1        3 0.14735554E-01 0.12500062E+03</pdfrwt>
<pdfrwt beam="1">  1       -3 0.62743848E-02 0.12500062E+03</pdfrwt>
<totfact> 0.13432907E+04</totfact>
</mgrwt>
</event>
<event>
 5    1  0.2989269E-047  0.1249963E+03  0.7818608E-02  0.1235075E+00
         -3   -1    0    0    0  501 -0.00000000000E+00  0.00000000000E+00  0.47614528879E+02  0.47614619702E+02  0.93000000000E-01 0.  1.
          3   -1    0    0  501    0  0.00000000000E+00 -0.00000000000E+00 -0.82034021502E+02  0.82034074218E+02  0.93000000000E-01 0. -1.
         25    2    1    2    0    0  0.00000000000E+00  0.00000000000E+00 -0.34419492623E+02  0.12964869392E+03  0.12499632940E+03 0.  0.
        -13    1    3    3    0    0 -0.44249599454E+02 -0.42927241017E+02 -0.27849942539E+02  0.67649135583E+02  0.10570000000E+00 0.  1.
         13    1    3    3    0    0  0.44249599454E+02  0.42927241017E+02 -0.65695500839E+01  0.61999558337E+02  0.10570000000E+00 0. -1.
<mgrwt>
<rscale>  0 0.12499633E+03</rscale>
<asrwt>0</asrwt>
<pdfrwt beam="2">  1        3 0.12620630E-01 0.12499633E+03</pdfrwt>
<pdfrwt beam="1">  1       -3 0.73253232E-02 0.12499633E+03</pdfrwt>
<totfact> 0.13614098E+04</totfact>
</mgrwt>
</event>
<event>
 5    1  0.2989269E-047  0.1250011E+03  0.7818608E-02  0.1235068E+00
         -3   -1    0    0    0  501 -0.00000000000E+00  0.00000000000E+00  0.31596389741E+03  0.31596391110E+03  0.93000000000E-01 0.  1.
          3   -1    0    0  501    0  0.00000000000E+00 -0.00000000000E+00 -0.12362991281E+02  0.12363341070E+02  0.93000000000E-01 0. -1.
         25    2    1    2    0    0  0.00000000000E+00  0.00000000000E+00  0.30360090613E+03  0.32832725217E+03  0.12500109725E+03 0.  0.
        -13    1    3    3    0    0 -0.26736220186E+02 -0.54963011444E+02  0.18610234613E+03  0.19588224142E+03  0.10570000000E+00 0.  1.
         13    1    3    3    0    0  0.26736220186E+02  0.54963011444E+02  0.11749856000E+03  0.13244501075E+03  0.10570000000E+00 0. -1.
<mgrwt>
<rscale>  0 0.12500110E+03</rscale>
<asrwt>0</asrwt>
<pdfrwt beam="2">  1        3 0.19020266E-02 0.12500110E+03</pdfrwt>
<pdfrwt beam="1">  1       -3 0.48609859E-01 0.12500110E+03</pdfrwt>
<totfact> 0.96969737E+03</totfact>
</mgrwt>
</event>
<event>
 5    1  0.2989269E-047  0.1250033E+03  0.7818608E-02  0.1235064E+00
         -3   -1    0    0    0  501 -0.00000000000E+00  0.00000000000E+00  0.15889461267E+03  0.15889463988E+03  0.93000000000E-01 0.  1.
          3   -1    0    0  501    0  0.00000000000E+00 -0.00000000000E+00 -0.24585085464E+02  0.24585261363E+02  0.93000000000E-01 0. -1.
         25    2    1    2    0    0  0.00000000000E+00  0.00000000000E+00  0.13430952720E+03  0.18347990125E+03  0.12500330021E+03 0.  0.
        -13    1    3    3    0    0  0.18309333816E+02 -0.57686368611E+02  0.44250666783E+02  0.74973872193E+02  0.10570000000E+00 0.  1.
         13    1    3    3    0    0 -0.18309333816E+02  0.57686368611E+02  0.90058860422E+02  0.10850602906E+03  0.10570000000E+00 0. -1.
<mgrwt>
<rscale>  0 0.12500330E+03</rscale>
<asrwt>0</asrwt>
<pdfrwt beam="2">  1        3 0.37823364E-02 0.12500330E+03</pdfrwt>
<pdfrwt beam="1">  1       -3 0.24445341E-01 0.12500330E+03</pdfrwt>
<totfact> 0.12315744E+04</totfact>
</mgrwt>
</event>
<event>
 4    1  0.2989269E-047  0.1246157E+03  0.7818608E-02  0.1235671E+00
         -3   -1    0    0    0  501 -0.00000000000E+00  0.00000000000E+00  0.36907068122E+02  0.36907185295E+02  0.93000000000E-01 0.  1.
          3   -1    0    0  501    0  0.00000000000E+00 -0.00000000000E+00 -0.10519000470E+03  0.10519004581E+03  0.93000000000E-01 0. -1.
        -13    1    1    2    0    0 -0.53808516650E+02  0.25418822947E+02 -0.55191420998E+02  0.81163890668E+02  0.10570000000E+00 0.  1.
         13    1    1    2    0    0  0.53808516650E+02 -0.25418822947E+02 -0.13091515578E+02  0.60933340436E+02  0.10570000000E+00 0. -1.
<mgrwt>
<rscale>  0 0.12461566E+03</rscale>
<asrwt>0</asrwt>
<pdfrwt beam="2">  1        3 0.16183090E-01 0.12461566E+03</pdfrwt>
<pdfrwt beam="1">  1       -3 0.56780227E-02 0.12461566E+03</pdfrwt>
<totfact> 0.13407890E+04</totfact>
</mgrwt>
</event>
<event>
 5    1  0.2989269E-047  0.1250028E+03  0.7818608E-02  0.1235065E+00
          3   -1    0    0  501    0  0.00000000000E+00  0.00000000000E+00  0.18341710461E+03  0.18341712819E+03  0.93000000000E-01 0. -1.
         -3   -1    0    0    0  501 -0.00000000000E+00 -0.00000000000E+00 -0.21297904774E+02  0.21298107821E+02  0.93000000000E-01 0.  1.
         25    2    1    2    0    0  0.00000000000E+00  0.00000000000E+00  0.16211919984E+03  0.20471523601E+03  0.12500277156E+03 0.  0.
        -13    1    3    3    0    0 -0.53261900335E+02 -0.20989742292E+02  0.12213296128E+03  0.13488465707E+03  0.10570000000E+00 0.  1.
         13    1    3    3    0    0  0.53261900335E+02  0.20989742292E+02  0.39986238559E+02  0.69830578942E+02  0.10570000000E+00 0. -1.
<mgrwt>
<rscale>  0 0.12500277E+03</rscale>
<asrwt>0</asrwt>
<pdfrwt beam="1">  1        3 0.28218036E-01 0.12500277E+03</pdfrwt>
<pdfrwt beam="2">  1       -3 0.32766179E-02 0.12500277E+03</pdfrwt>
<totfact> 0.11863317E+04</totfact>
</mgrwt>
</event>
<event>
 5    1  0.2989269E-047  0.1249982E+03  0.7818608E-02  0.1235072E+00
         -3   -1    0    0    0  501 -0.00000000000E+00  0.00000000000E+00  0.13521046657E+02  0.13521366488E+02  0.93000000000E-01 0.  1.
          3   -1    0    0  501    0  0.00000000000E+00 -0.00000000000E+00 -0.28888941598E+03  0.28888943095E+03  0.93000000000E-01 0. -1.
         25    2    1    2    0    0  0.00000000000E+00  0.00000000000E+00 -0.27536836933E+03  0.30241079744E+03  0.12499820632E+03 0.  0.
        -13    1    3    3    0    0 -0.51751833831E+02 -0.32826025989E+02 -0.10802144959E+03  0.12419518924E+03  0.10570000000E+00 0.  1.
         13    1    3    3    0    0  0.51751833831E+02  0.32826025989E+02 -0.16734691974E+03  0.17821560820E+03  0.10570000000E+00 0. -1.
<mgrwt>
<rscale>  0 0.12499821E+03</rscale>
<asrwt>0</asrwt>
<pdfrwt beam="2">  1        3 0.44444547E-01 0.12499821E+03</pdfrwt>
<pdfrwt beam="1">  1       -3 0.20801870E-02 0.12499821E+03</pdfrwt>
<totfact> 0.10098802E+04</totfact>
</mgrwt>
</event>
<event>
 5    1  0.2989269E-047  0.1250011E+03  0.7818608E-02  0.1235068E+00
         -3   -1    0    0    0  501 -0.00000000000E+00  0.00000000000E+00  0.35343655589E+02  0.35343777945E+02  0.93000000000E-01 0.  1.
          3   -1    0    0  501    0  0.00000000000E+00 -0.00000000000E+00 -0.11052360995E+03  0.11052364908E+03  0.93000000000E-01 0. -1.
         25    2    1    2    0    0  0.00000000000E+00  0.00000000000E+00 -0.75179954360E+02  0.14586742702E+03  0.12500112291E+03 0.  0.
        -13    1    3    3    0    0 -0.22363614934E+02 -0.58245108414E+02 -0.41906838709E+02  0.75158620465E+02  0.10570000000E+00 0.  1.
         13    1    3    3    0    0  0.22363614934E+02  0.58245108414E+02 -0.33273115651E+02  0.70708806557E+02  0.10570000000E+00 0. -1.
<mgrwt>
<rscale>  0 0.12500112E+03</rscale>
<asrwt>0</asrwt>
<pdfrwt beam="2">  1        3 0.17003645E-01 0.12500112E+03</pdfrwt>
<pdfrwt beam="1">  1       -3 0.54374980E-02 0.12500112E+03</pdfrwt>
<totfact> 0.13197368E+04</totfact>
</mgrwt>
</event>
<event>
 5    1  0.2989269E-047  0.1249993E+03  0.7818608E-02  0.1235070E+00
         -3   -1    0    0    0  501 -0.00000000000E+00  0.00000000000E+00  0.98522471206E+02  0.98522515099E+02  0.93000000000E-01 0.  1.
          3   -1    0    0  501    0  0.00000000000E+00 -0.00000000000E+00 -0.39647735556E+02  0.39647844629E+02  0.93000000000E-01 0. -1.
         25    2    1    2    0    0  0.00000000000E+00  0.00000000000E+00  0.58874735649E+02  0.13817035973E+03  0.12499925524E+03 0.  0.
        -13    1    3    3    0    0  0.27611710566E+02  0.55930334997E+02  0.33800896454E+02  0.70944490320E+02  0.10570000000E+00 0.  1.
         13    1    3    3    0    0 -0.27611710566E+02 -0.55930334997E+02  0.25073839195E+02  0.67225869408E+02  0.10570000000E+00 0. -1.
<mgrwt>
<rscale>  0 0.12499926E+03</rscale>
<asrwt>0</asrwt>
<pdfrwt beam="2">  1        3 0.60996634E-02 0.12499926E+03</pdfrwt>
<pdfrwt beam="1">  1       -3 0.15157315E-01 0.12499926E+03</pdfrwt>
<totfact> 0.13392379E+04</totfact>
</mgrwt>
</event>
<event>
 4    1  0.2989269E-047  0.1253039E+03  0.7818608E-02  0.1234595E+00
         -3   -1    0    0    0  501 -0.00000000000E+00  0.00000000000E+00  0.22574056100E+03  0.22574058015E+03  0.93000000000E-01 0.  1.
          3   -1    0    0  501    0  0.00000000000E+00 -0.00000000000E+00 -0.17388253201E+02  0.17388501901E+02  0.93000000000E-01 0. -1.
        -13    1    1    2    0    0 -0.11984438631E+02 -0.46071104168E+02  0.25143555070E+02  0.53836631977E+02  0.10570000000E+00 0.  1.
         13    1    1    2    0    0  0.11984438631E+02  0.46071104168E+02  0.18320875273E+03  0.18929245008E+03  0.10570000000E+00 0. -1.
<mgrwt>
<rscale>  0 0.12530390E+03</rscale>
<asrwt>0</asrwt>
<pdfrwt beam="2">  1        3 0.26751366E-02 0.12530390E+03</pdfrwt>
<pdfrwt beam="1">  1       -3 0.34729336E-01 0.12530390E+03</pdfrwt>
<totfact> 0.11035634E+04</totfact>
</mgrwt>
</event>
<event>
 5    1  0.2989269E-047  0.1249999E+03  0.7818608E-02  0.1235069E+00
          3   -1    0    0  501    0  0.00000000000E+00  0.00000000000E+00  0.11663160597E+03  0.11663164305E+03  0.93000000000E-01 0. -1.
         -3   -1    0    0    0  501 -0.00000000000E+00 -0.00000000000E+00 -0.33492047664E+02  0.33492176784E+02  0.93000000000E-01 0.  1.
         25    2    1    2    0    0  0.00000000000E+00  0.00000000000E+00  0.83139558303E+02  0.15012381983E+03  0.12499990050E+03 0.  0.
        -13    1    3    3    0    0  0.19103643573E-01  0.55620240168E+02  0.73337022124E+01  0.56101745445E+02  0.10570000000E+00 0.  1.
         13    1    3    3    0    0 -0.19103643573E-01 -0.55620240168E+02  0.75805856091E+02  0.94022074384E+02  0.10570000000E+00 0. -1.
<mgrwt>
<rscale>  0 0.12499990E+03</rscale>
<asrwt>0</asrwt>
<pdfrwt beam="1">  1        3 0.17943337E-01 0.12499990E+03</pdfrwt>
<pdfrwt beam="2">  1       -3 0.51526355E-02 0.12499990E+03</pdfrwt>
<totfact> 0.13092671E+04</totfact>
</mgrwt>
</event>
<event>
 5    1  0.2989269E-047  0.1250013E+03  0.7818608E-02  0.1235067E+00
          3   -1    0    0  501    0  0.00000000000E+00  0.00000000000E+00  0.94614323465E+01  0.94618894016E+01  0.93000000000E-01 0. -1.
         -3   -1    0    0    0  501 -0.00000000000E+00 -0.00000000000E+00 -0.41285849664E+03  0.41285850711E+03  0.93000000000E-01 0.  1.
         25    2    1    2    0    0  0.00000000000E+00  0.00000000000E+00 -0.40339706429E+03  0.42232039652E+03  0.12500130333E+03 0.  0.
        -13    1    3    3    0    0  0.55200756992E+02  0.28540156643E+02 -0.17912142669E+03  0.18959472774E+03  0.10570000000E+00 0. -1.
         13    1    3    3    0    0 -0.55200756992E+02 -0.28540156643E+02 -0.22427563760E+03  0.23272566878E+03  0.10570000000E+00 0.  1.
<mgrwt>
<rscale>  0 0.12500130E+03</rscale>
<asrwt>0</asrwt>
<pdfrwt beam="1">  1        3 0.14556413E-02 0.12500130E+03</pdfrwt>
<pdfrwt beam="2">  1       -3 0.63516714E-01 0.12500130E+03</pdfrwt>
<totfact> 0.84444835E+03</totfact>
</mgrwt>
</event>
<event>
 5    1  0.2989269E-047  0.1250023E+03  0.7818608E-02  0.1235066E+00
          3   -1    0    0  501    0  0.00000000000E+00  0.00000000000E+00  0.23431208979E+03  0.23431210824E+03  0.93000000000E-01 0. -1.
         -3   -1    0    0    0  501 -0.00000000000E+00 -0.00000000000E+00 -0.16671602201E+02  0.16671861592E+02  0.93000000000E-01 0.  1.
         25    2    1    2    0    0  0.00000000000E+00  0.00000000000E+00  0.21764048759E+03  0.25098396984E+03  0.12500228509E+03 0.  0.
        -13    1    3    3    0    0  0.16034409640E+02  0.43427600034E+02  0.19313313016E+03  0.19860381636E+03  0.10570000000E+00 0. -1.
         13    1    3    3    0    0 -0.16034409640E+02 -0.43427600034E+02  0.24507357428E+02  0.52380153472E+02  0.10570000000E+00 0.  1.
<mgrwt>
<rscale>  0 0.12500229E+03</rscale>
<asrwt>0</asrwt>
<pdfrwt beam="1">  1        3 0.36048036E-01 0.12500229E+03</pdfrwt>
<pdfrwt beam="2">  1       -3 0.25648832E-02 0.12500229E+03</pdfrwt>
<totfact> 0.10968178E+04</totfact>
</mgrwt>
</event>
<event>
 5    1  0.2989269E-047  0.1250011E+03  0.7818608E-02  0.1235068E+00
         -3   -1    0    0    0  501 -0.00000000000E+00  0.00000000000E+00  0.53222290509E+02  0.53222371762E+02  0.93000000000E-01 0.  1.
          3   -1    0    0  501    0  0.00000000000E+00 -0.00000000000E+00 -0.73396073032E+02  0.73396131952E+02  0.93000000000E-01 0. -1.
         25    2    1    2    0    0  0.00000000000E+00  0.00000000000E+00 -0.20173782523E+02  0.12661850371E+03  0.12500105592E+03 0.  0.
        -13    1    3    3    0    0  0.37140542837E+02  0.47668292876E+02 -0.26250141266E+02  0.65884498609E+02  0.10570000000E+00 0. -1.
         13    1    3    3    0    0 -0.37140542837E+02 -0.47668292876E+02  0.60763587431E+01  0.60734005105E+02  0.10570000000E+00 0.  1.
<mgrwt>
<rscale>  0 0.12500106E+03</rscale>
<asrwt>0</asrwt>
<pdfrwt beam="2">  1        3 0.11291714E-01 0.12500106E+03</pdfrwt>
<pdfrwt beam="1">  1       -3 0.81880554E-02 0.12500106E+03</pdfrwt>
<totfact> 0.13692703E+04</totfact>
</mgrwt>
</event>
<event>
 5    1  0.2989269E-047  0.1249996E+03  0.7818608E-02  0.1235070E+00
         -3   -1    0    0    0  501 -0.00000000000E+00  0.00000000000E+00  0.48052775776E+02  0.48052865771E+02  0.93000000000E-01 0.  1.
          3   -1    0    0  501    0  0.00000000000E+00 -0.00000000000E+00 -0.81290176689E+02  0.81290229888E+02  0.93000000000E-01 0. -1.
         25    2    1    2    0    0  0.00000000000E+00  0.00000000000E+00 -0.33237400913E+02  0.12934309566E+03  0.12499964630E+03 0.  0.
        -13    1    3    3    0    0 -0.55016660555E+02 -0.29593755632E+02 -0.18580198446E+02  0.65175595569E+02  0.10570000000E+00 0.  1.
         13    1    3    3    0    0  0.55016660555E+02  0.29593755632E+02 -0.14657202467E+02  0.64167500089E+02  0.10570000000E+00 0. -1.
<mgrwt>
<rscale>  0 0.12499965E+03</rscale>
<asrwt>0</asrwt>
<pdfrwt beam="2">  1        3 0.12506192E-01 0.12499965E+03</pdfrwt>
<pdfrwt beam="1">  1       -3 0.73927457E-02 0.12499965E+03</pdfrwt>
<totfact> 0.13621097E+04</totfact>
</mgrwt>
</event>
<event>
 5    1  0.2989269E-047  0.1249974E+03  0.7818608E-02  0.1235073E+00
         -3   -1    0    0    0  501 -0.00000000000E+00  0.00000000000E+00  0.39551724960E+02  0.39551834297E+02  0.93000000000E-01 0. -1.
          3   -1    0    0  501    0  0.00000000000E+00 -0.00000000000E+00 -0.98758715687E+02  0.98758759475E+02  0.93000000000E-01 0.  1.
         25    2    1    2    0    0  0.00000000000E+00  0.00000000000E+00 -0.59206990727E+02  0.13831059377E+03  0.12499741037E+03 0.  0.
        -13    1    3    3    0    0 -0.61982674239E+02 -0.66975637295E+01 -0.24733892053E+02  0.67070752600E+02  0.10570000000E+00 0. -1.
         13    1    3    3    0    0  0.61982674239E+02  0.66975637295E+01 -0.34473098674E+02  0.71239841173E+02  0.10570000000E+00 0.  1.
<mgrwt>
<rscale>  0 0.12499741E+03</rscale>
<asrwt>0</asrwt>
<pdfrwt beam="2">  1        3 0.15193660E-01 0.12499741E+03</pdfrwt>
<pdfrwt beam="1">  1       -3 0.60848926E-02 0.12499741E+03</pdfrwt>
<totfact> 0.13389150E+04</totfact>
</mgrwt>
</event>
<event>
 5    1  0.2989269E-047  0.1249997E+03  0.7818608E-02  0.1235070E+00
          3   -1    0    0  501    0  0.00000000000E+00  0.00000000000E+00  0.35141752226E+03  0.35141753457E+03  0.93000000000E-01 0. -1.
         -3   -1    0    0    0  501 -0.00000000000E+00 -0.00000000000E+00 -0.11115427948E+02  0.11115816995E+02  0.93000000000E-01 0.  1.
         25    2    1    2    0    0  0.00000000000E+00  0.00000000000E+00  0.34030209431E+03  0.36253335156E+03  0.12499966240E+03 0.  0.
        -13    1    3    3    0    0 -0.38899094155E+02 -0.48655982304E+02  0.18484648084E+03  0.19506095660E+03  0.10570000000E+00 0.  1.
         13    1    3    3    0    0  0.38899094155E+02  0.48655982304E+02  0.15545561348E+03  0.16747239496E+03  0.10570000000E+00 0. -1.
<mgrwt>
<rscale>  0 0.12499966E+03</rscale>
<asrwt>0</asrwt>
<pdfrwt beam="1">  1        3 0.54064264E-01 0.12499966E+03</pdfrwt>
<pdfrwt beam="2">  1       -3 0.17100967E-02 0.12499966E+03</pdfrwt>
<totfact> 0.92146091E+03</totfact>
</mgrwt>
</event>
<event>
 5    1  0.2989269E-047  0.1250006E+03  0.7818608E-02  0.1235068E+00
          3   -1    0    0  501    0  0.00000000000E+00  0.00000000000E+00  0.29792542441E+02  0.29792687594E+02  0.93000000000E-01 0. -1.
         -3   -1    0    0    0  501 -0.00000000000E+00 -0.00000000000E+00 -0.13111588019E+03  0.13111591317E+03  0.93000000000E-01 0.  1.
         25    2    1    2    0    0  0.00000000000E+00  0.00000000000E+00 -0.10132333775E+03  0.16090860076E+03  0.12500063611E+03 0.  0.
        -13    1    3    3    0    0 -0.81264477308E+01  0.37720872779E+02 -0.11395224738E+03  0.12030805980E+03  0.10570000000E+00 0.  1.
         13    1    3    3    0    0  0.81264477308E+01 -0.37720872779E+02  0.12628909634E+02  0.40600540969E+02  0.10570000000E+00 0. -1.
<mgrwt>
<rscale>  0 0.12500064E+03</rscale>
<asrwt>0</asrwt>
<pdfrwt beam="1">  1        3 0.45834818E-02 0.12500064E+03</pdfrwt>
<pdfrwt beam="2">  1       -3 0.20171687E-01 0.12500064E+03</pdfrwt>
<totfact> 0.12832560E+04</totfact>
</mgrwt>
</event>
<event>
 5    1  0.2989269E-047  0.1250023E+03  0.7818608E-02  0.1235066E+00
         -3   -1    0    0    0  501 -0.00000000000E+00  0.00000000000E+00  0.30309845820E+02  0.30309988496E+02  0.93000000000E-01 0.  1.
          3   -1    0    0  501    0  0.00000000000E+00 -0.00000000000E+00 -0.12888159767E+03  0.12888163123E+03  0.93000000000E-01 0. -1.
         25    2    1    2    0    0  0.00000000000E+00  0.00000000000E+00 -0.98571751853E+02  0.15919161972E+03  0.12500232608E+03 0.  0.
        -13    1    3    3    0    0  0.25629395883E+02  0.56173219977E+02 -0.36932991482E+02  0.71946880463E+02  0.10570000000E+00 0.  1.
         13    1    3    3    0    0 -0.25629395883E+02 -0.56173219977E+02 -0.61638760371E+02  0.87244739260E+02  0.10570000000E+00 0. -1.
<mgrwt>
<rscale>  0 0.12500233E+03</rscale>
<asrwt>0</asrwt>
<pdfrwt beam="2">  1        3 0.19827951E-01 0.12500233E+03</pdfrwt>
<pdfrwt beam="1">  1       -3 0.46630668E-02 0.12500233E+03</pdfrwt>
<totfact> 0.12872859E+04</totfact>
</mgrwt>
</event>
<event>
 5    1  0.2989269E-047  0.1249964E+03  0.7818608E-02  0.1235075E+00
         -3   -1    0    0    0  501 -0.00000000000E+00  0.00000000000E+00  0.19052131761E+02  0.19052358742E+02  0.93000000000E-01 0.  1.
          3   -1    0    0  501    0  0.00000000000E+00 -0.00000000000E+00 -0.20501620575E+03  0.20501622685E+03  0.93000000000E-01 0. -1.
         25    2    1    2    0    0  0.00000000000E+00  0.00000000000E+00 -0.18596407399E+03  0.22406858559E+03  0.12499637687E+03 0.  0.
        -13    1    3    3    0    0  0.23086837508E+02  0.52821806781E+02 -0.13626014830E+03  0.14795264285E+03  0.10570000000E+00 0. -1.
         13    1    3    3    0    0 -0.23086837508E+02 -0.52821806781E+02 -0.49703925691E+02  0.76115942741E+02  0.10570000000E+00 0.  1.
<mgrwt>
<rscale>  0 0.12499638E+03</rscale>
<asrwt>0</asrwt>
<pdfrwt beam="2">  1        3 0.31540972E-01 0.12499638E+03</pdfrwt>
<pdfrwt beam="1">  1       -3 0.29311164E-02 0.12499638E+03</pdfrwt>
<totfact> 0.11476071E+04</totfact>
</mgrwt>
</event>
<event>
 5    1  0.2989269E-047  0.1250014E+03  0.7818608E-02  0.1235067E+00
         -3   -1    0    0    0  501 -0.00000000000E+00  0.00000000000E+00  0.28314752621E+02  0.28314905351E+02  0.93000000000E-01 0.  1.
          3   -1    0    0  501    0  0.00000000000E+00 -0.00000000000E+00 -0.13796068832E+03  0.13796071967E+03  0.93000000000E-01 0. -1.
         25    2    1    2    0    0  0.00000000000E+00  0.00000000000E+00 -0.10964593570E+03  0.16627562502E+03  0.12500140903E+03 0.  0.
        -13    1    3    3    0    0 -0.57539619121E+02 -0.13428217811E+02 -0.81927595541E+02  0.10101122158E+03  0.10570000000E+00 0. -1.
         13    1    3    3    0    0  0.57539619121E+02  0.13428217811E+02 -0.27718340162E+02  0.65264403437E+02  0.10570000000E+00 0.  1.
<mgrwt>
<rscale>  0 0.12500141E+03</rscale>
<asrwt>0</asrwt>
<pdfrwt beam="2">  1        3 0.21224735E-01 0.12500141E+03</pdfrwt>
<pdfrwt beam="1">  1       -3 0.43561300E-02 0.12500141E+03</pdfrwt>
<totfact> 0.12706348E+04</totfact>
</mgrwt>
</event>
<event>
 5    1  0.2989269E-047  0.1250007E+03  0.7818608E-02  0.1235068E+00
         -3   -1    0    0    0  501 -0.00000000000E+00  0.00000000000E+00  0.18731676438E+03  0.18731678747E+03  0.93000000000E-01 0.  1.
          3   -1    0    0  501    0  0.00000000000E+00 -0.00000000000E+00 -0.20853810500E+02  0.20854017871E+02  0.93000000000E-01 0. -1.
         25    2    1    2    0    0  0.00000000000E+00  0.00000000000E+00  0.16646295388E+03  0.20817080534E+03  0.12500067672E+03 0.  0.
        -13    1    3    3    0    0 -0.93864821467E+01  0.49046948384E+02  0.20640353880E+02  0.54034660854E+02  0.10570000000E+00 0. -1.
         13    1    3    3    0    0  0.93864821467E+01 -0.49046948384E+02  0.14582260000E+03  0.15413614448E+03  0.10570000000E+00 0.  1.
<mgrwt>
<rscale>  0 0.12500068E+03</rscale>
<asrwt>0</asrwt>
<pdfrwt beam="2">  1        3 0.32082962E-02 0.12500068E+03</pdfrwt>
<pdfrwt beam="1">  1       -3 0.28817982E-01 0.12500068E+03</pdfrwt>
<totfact> 0.11791880E+04</totfact>
</mgrwt>
</event>
<event>
 5    1  0.2989269E-047  0.1249906E+03  0.7818608E-02  0.1235084E+00
          3   -1    0    0  501    0  0.00000000000E+00  0.00000000000E+00  0.72778306193E+01  0.72784247969E+01  0.93000000000E-01 0. -1.
         -3   -1    0    0    0  501 -0.00000000000E+00 -0.00000000000E+00 -0.53662944768E+03  0.53662945574E+03  0.93000000000E-01 0.  1.
         25    2    1    2    0    0  0.00000000000E+00  0.00000000000E+00 -0.52935161706E+03  0.54390788054E+03  0.12499059174E+03 0.  0.
        -13    1    3    3    0    0 -0.37093071542E+02 -0.46891331328E+02 -0.18551058936E+03  0.19490736991E+03  0.10570000000E+00 0.  1.
         13    1    3    3    0    0  0.37093071542E+02  0.46891331328E+02 -0.34384102771E+03  0.34900051063E+03  0.10570000000E+00 0. -1.
<mgrwt>
<rscale>  0 0.12499059E+03</rscale>
<asrwt>0</asrwt>
<pdfrwt beam="1">  1        3 0.11197130E-02 0.12499059E+03</pdfrwt>
<pdfrwt beam="2">  1       -3 0.82558392E-01 0.12499059E+03</pdfrwt>
<totfact> 0.71654652E+03</totfact>
</mgrwt>
</event>
<event>
 5    1  0.2989269E-047  0.1249980E+03  0.7818608E-02  0.1235072E+00
          3   -1    0    0  501    0  0.00000000000E+00  0.00000000000E+00  0.40442119299E+02  0.40442226230E+02  0.93000000000E-01 0. -1.
         -3   -1    0    0    0  501 -0.00000000000E+00 -0.00000000000E+00 -0.96585301280E+02  0.96585346054E+02  0.93000000000E-01 0.  1.
         25    2    1    2    0    0  0.00000000000E+00  0.00000000000E+00 -0.56143181981E+02  0.13702757228E+03  0.12499799472E+03 0.  0.
        -13    1    3    3    0    0  0.26372722184E+02  0.71343132748E+01 -0.89692410711E+02  0.93761178603E+02  0.10570000000E+00 0.  1.
         13    1    3    3    0    0 -0.26372722184E+02 -0.71343132748E+01  0.33549228730E+02  0.43266393681E+02  0.10570000000E+00 0. -1.
<mgrwt>
<rscale>  0 0.12499799E+03</rscale>
<asrwt>0</asrwt>
<pdfrwt beam="1">  1        3 0.62218762E-02 0.12499799E+03</pdfrwt>
<pdfrwt beam="2">  1       -3 0.14859289E-01 0.12499799E+03</pdfrwt>
<totfact> 0.13422021E+04</totfact>
</mgrwt>
</event>
<event>
 4    1  0.2989269E-047  0.1249560E+03  0.7818608E-02  0.1235138E+00
          3   -1    0    0  501    0  0.00000000000E+00  0.00000000000E+00  0.23349618425E+02  0.23349803630E+02  0.93000000000E-01 0.  1.
         -3   -1    0    0    0  501 -0.00000000000E+00 -0.00000000000E+00 -0.16717526583E+03  0.16717529170E+03  0.93000000000E-01 0. -1.
        -13    1    1    2    0    0  0.57151059311E+02  0.79159284841E+01 -0.10846146307E+03  0.12285278038E+03  0.10570000000E+00 0. -1.
         13    1    1    2    0    0 -0.57151059311E+02 -0.79159284841E+01 -0.35364184340E+02  0.67672314949E+02  0.10570000000E+00 0.  1.
<mgrwt>
<rscale>  0 0.12495597E+03</rscale>
<asrwt>0</asrwt>
<pdfrwt beam="1">  1        3 0.35922653E-02 0.12495597E+03</pdfrwt>
<pdfrwt beam="2">  1       -3 0.25719287E-01 0.12495597E+03</pdfrwt>
<totfact> 0.12175027E+04</totfact>
</mgrwt>
</event>
<event>
 5    1  0.2989269E-047  0.1249976E+03  0.7818608E-02  0.1235073E+00
         -3   -1    0    0    0  501 -0.00000000000E+00  0.00000000000E+00  0.34632350265E+02  0.34632475133E+02  0.93000000000E-01 0.  1.
          3   -1    0    0  501    0  0.00000000000E+00 -0.00000000000E+00 -0.11278730378E+03  0.11278734212E+03  0.93000000000E-01 0. -1.
         25    2    1    2    0    0  0.00000000000E+00  0.00000000000E+00 -0.78154953513E+02  0.14741981725E+03  0.12499762302E+03 0.  0.
        -13    1    3    3    0    0  0.16489113893E+00 -0.61300329523E+02 -0.24713571428E+02  0.66094851342E+02  0.10570000000E+00 0.  1.
         13    1    3    3    0    0 -0.16489113893E+00  0.61300329523E+02 -0.53441382085E+02  0.81324965911E+02  0.10570000000E+00 0. -1.
<mgrwt>
<rscale>  0 0.12499762E+03</rscale>
<asrwt>0</asrwt>
<pdfrwt beam="2">  1        3 0.17351905E-01 0.12499762E+03</pdfrwt>
<pdfrwt beam="1">  1       -3 0.53280665E-02 0.12499762E+03</pdfrwt>
<totfact> 0.13159902E+04</totfact>
</mgrwt>
</event>
<event>
 5    1  0.2989269E-047  0.1249998E+03  0.7818608E-02  0.1235070E+00
          3   -1    0    0  501    0  0.00000000000E+00  0.00000000000E+00  0.17513441004E+02  0.17513687927E+02  0.93000000000E-01 0. -1.
         -3   -1    0    0    0  501 -0.00000000000E+00 -0.00000000000E+00 -0.22304028617E+03  0.22304030556E+03  0.93000000000E-01 0.  1.
         25    2    1    2    0    0  0.00000000000E+00  0.00000000000E+00 -0.20552684517E+03  0.24055399349E+03  0.12499975879E+03 0.  0.
        -13    1    3    3    0    0  0.23710439756E+02  0.56184976221E+02 -0.12909988856E+03  0.14277860101E+03  0.10570000000E+00 0.  1.
         13    1    3    3    0    0 -0.23710439756E+02 -0.56184976221E+02 -0.76426956608E+02  0.97775392483E+02  0.10570000000E+00 0. -1.
<mgrwt>
<rscale>  0 0.12499976E+03</rscale>
<asrwt>0</asrwt>
<pdfrwt beam="1">  1        3 0.26943962E-02 0.12499976E+03</pdfrwt>
<pdfrwt beam="2">  1       -3 0.34313909E-01 0.12499976E+03</pdfrwt>
<totfact> 0.11158751E+04</totfact>
</mgrwt>
</event>
<event>
 5    1  0.2989269E-047  0.1249995E+03  0.7818608E-02  0.1235070E+00
          3   -1    0    0  501    0  0.00000000000E+00  0.00000000000E+00  0.13728918207E+03  0.13728921357E+03  0.93000000000E-01 0.  1.
         -3   -1    0    0    0  501 -0.00000000000E+00 -0.00000000000E+00 -0.28452354608E+02  0.28452506598E+02  0.93000000000E-01 0. -1.
         25    2    1    2    0    0  0.00000000000E+00  0.00000000000E+00  0.10883682747E+03  0.16574172017E+03  0.12499945117E+03 0.  0.
        -13    1    3    3    0    0  0.42032980578E+02  0.38155894110E+02  0.19751728682E+02  0.60106452815E+02  0.10570000000E+00 0. -1.
         13    1    3    3    0    0 -0.42032980578E+02 -0.38155894110E+02  0.89085098783E+02  0.10563526736E+03  0.10570000000E+00 0.  1.
<mgrwt>
<rscale>  0 0.12499945E+03</rscale>
<asrwt>0</asrwt>
<pdfrwt beam="1">  1        3 0.21121427E-01 0.12499945E+03</pdfrwt>
<pdfrwt beam="2">  1       -3 0.43772993E-02 0.12499945E+03</pdfrwt>
<totfact> 0.12719340E+04</totfact>
</mgrwt>
</event>
<event>
 5    1  0.2989269E-047  0.1249952E+03  0.7818608E-02  0.1235077E+00
         -3   -1    0    0    0  501 -0.00000000000E+00  0.00000000000E+00  0.10280092124E+02  0.10280512783E+02  0.93000000000E-01 0.  1.
          3   -1    0    0  501    0  0.00000000000E+00 -0.00000000000E+00 -0.37994467742E+03  0.37994468880E+03  0.93000000000E-01 0. -1.
         25    2    1    2    0    0  0.00000000000E+00  0.00000000000E+00 -0.36966458530E+03  0.39022520159E+03  0.12499520923E+03 0.  0.
        -13    1    3    3    0    0 -0.56949685597E+02  0.10295465059E+02 -0.11117372974E+03  0.12533504158E+03  0.10570000000E+00 0.  1.
         13    1    3    3    0    0  0.56949685597E+02 -0.10295465059E+02 -0.25849085556E+03  0.26489016001E+03  0.10570000000E+00 0. -1.
<mgrwt>
<rscale>  0 0.12499521E+03</rscale>
<asrwt>0</asrwt>
<pdfrwt beam="2">  1        3 0.58453050E-01 0.12499521E+03</pdfrwt>
<pdfrwt beam="1">  1       -3 0.15815862E-02 0.12499521E+03</pdfrwt>
<totfact> 0.88491912E+03</totfact>
</mgrwt>
</event>
<event>
 5    1  0.2989269E-047  0.1250048E+03  0.7818608E-02  0.1235062E+00
          3   -1    0    0  501    0  0.00000000000E+00  0.00000000000E+00  0.19880085390E+02  0.19880302918E+02  0.93000000000E-01 0. -1.
         -3   -1    0    0    0  501 -0.00000000000E+00 -0.00000000000E+00 -0.19650426008E+03  0.19650428208E+03  0.93000000000E-01 0.  1.
         25    2    1    2    0    0  0.00000000000E+00  0.00000000000E+00 -0.17662417469E+03  0.21638458500E+03  0.12500475808E+03 0.  0.
        -13    1    3    3    0    0 -0.61272672913E+02 -0.28232813145E+01 -0.10910042789E+03  0.12516080018E+03  0.10570000000E+00 0.  1.
         13    1    3    3    0    0  0.61272672913E+02  0.28232813145E+01 -0.67523746799E+02  0.91223784824E+02  0.10570000000E+00 0. -1.
<mgrwt>
<rscale>  0 0.12500476E+03</rscale>
<asrwt>0</asrwt>
<pdfrwt beam="1">  1        3 0.30584932E-02 0.12500476E+03</pdfrwt>
<pdfrwt beam="2">  1       -3 0.30231442E-01 0.12500476E+03</pdfrwt>
<totfact> 0.11624559E+04</totfact>
</mgrwt>
</event>
<event>
 5    1  0.2989269E-047  0.1249944E+03  0.7818608E-02  0.1235078E+00
         -3   -1    0    0    0  501 -0.00000000000E+00  0.00000000000E+00  0.27316714899E+02  0.27316873208E+02  0.93000000000E-01 0.  1.
          3   -1    0    0  501    0  0.00000000000E+00 -0.00000000000E+00 -0.14298516189E+03  0.14298519214E+03  0.93000000000E-01 0. -1.
         25    2    1    2    0    0  0.00000000000E+00  0.00000000000E+00 -0.11566844699E+03  0.17030206534E+03  0.12499441520E+03 0.  0.
        -13    1    3    3    0    0  0.57411078918E+02  0.19217104934E+02 -0.36702173584E+02  0.70798233190E+02  0.10570000000E+00 0.  1.
         13    1    3    3    0    0 -0.57411078918E+02 -0.19217104934E+02 -0.78966273409E+02  0.99503832154E+02  0.10570000000E+00 0. -1.
<mgrwt>
<rscale>  0 0.12499442E+03</rscale>
<asrwt>0</asrwt>
<pdfrwt beam="2">  1        3 0.21997731E-01 0.12499442E+03</pdfrwt>
<pdfrwt beam="1">  1       -3 0.42025861E-02 0.12499442E+03</pdfrwt>
<totfact> 0.12615244E+04</totfact>
</mgrwt>
</event>
<event>
 5    1  0.2989269E-047  0.1249989E+03  0.7818608E-02  0.1235071E+00
          3   -1    0    0  501    0  0.00000000000E+00  0.00000000000E+00  0.11915363897E+03  0.11915367526E+03  0.93000000000E-01 0. -1.
         -3   -1    0    0    0  501 -0.00000000000E+00 -0.00000000000E+00 -0.32782606702E+02  0.32782738616E+02  0.93000000000E-01 0.  1.
         25    2    1    2    0    0  0.00000000000E+00  0.00000000000E+00  0.86371032263E+02  0.15193641387E+03  0.12499887458E+03 0.  0.
        -13    1    3    3    0    0  0.27571593764E+02 -0.33514030866E+02 -0.11482168246E+02  0.44891362284E+02  0.10570000000E+00 0.  1.
         13    1    3    3    0    0 -0.27571593764E+02  0.33514030866E+02  0.97853200509E+02  0.10704505159E+03  0.10570000000E+00 0. -1.
<mgrwt>
<rscale>  0 0.12499887E+03</rscale>
<asrwt>0</asrwt>
<pdfrwt beam="1">  1        3 0.18331342E-01 0.12499887E+03</pdfrwt>
<pdfrwt beam="2">  1       -3 0.50434908E-02 0.12499887E+03</pdfrwt>
<totfact> 0.13048713E+04</totfact>
</mgrwt>
</event>
