<event>
 5    1  0.1829803E-009  0.1250002E+03  0.7818608E-02  0.1235069E+00
         21   -1    0    0  502  501  0.00000000000E+00  0.00000000000E+00  0.17656834167E+03  0.17656834167E+03  0.00000000000E+00 0. -1.
         21   -1    0    0  501  502 -0.00000000000E+00 -0.00000000000E+00 -0.22123239521E+02  0.22123239521E+02  0.00000000000E+00 0. -1.
         25    2    1    2    0    0  0.00000000000E+00  0.00000000000E+00  0.15444510215E+03  0.19869158119E+03  0.12500021943E+03 0.  0.
        -11    1    3    3    0    0  0.61865972407E+01 -0.61209068238E+02  0.94739119229E+02  0.11296160734E+03  0.51100000000E-03 0.  1.
         11    1    3    3    0    0 -0.61865972407E+01  0.61209068238E+02  0.59705982922E+02  0.85729973854E+02  0.51100000000E-03 0.  1.
<mgrwt>
<rscale>  0 0.12500022E+03</rscale>
<asrwt>0</asrwt>
<pdfrwt beam="1">  1       21 0.27164359E-01 0.12500022E+03</pdfrwt>
<pdfrwt beam="2">  1       21 0.34035754E-02 0.12500022E+03</pdfrwt>
<totfact> 0.65068876E+06</totfact>
</mgrwt>
</event>
<event>
 5    1  0.1829803E-009  0.1249999E+03  0.7818608E-02  0.1235069E+00
         21   -1    0    0  502  501  0.00000000000E+00  0.00000000000E+00  0.24170951625E+02  0.24170951625E+02  0.00000000000E+00 0.  1.
         21   -1    0    0  501  502 -0.00000000000E+00 -0.00000000000E+00 -0.16160892522E+03  0.16160892522E+03  0.00000000000E+00 0.  1.
         25    2    1    2    0    0  0.00000000000E+00  0.00000000000E+00 -0.13743797359E+03  0.18577987684E+03  0.12499986422E+03 0.  0.
        -11    1    3    3    0    0  0.87657688846E+01  0.61863459115E+02 -0.70980435373E+02  0.94562933985E+02  0.51100000000E-03 0. -1.
         11    1    3    3    0    0 -0.87657688846E+01 -0.61863459115E+02 -0.66457538219E+02  0.91216942857E+02  0.51100000000E-03 0. -1.
<mgrwt>
<rscale>  0 0.12499986E+03</rscale>
<asrwt>0</asrwt>
<pdfrwt beam="1">  1       21 0.37186080E-02 0.12499986E+03</pdfrwt>
<pdfrwt beam="2">  1       21 0.24862911E-01 0.12499986E+03</pdfrwt>
<totfact> 0.66494822E+06</totfact>
</mgrwt>
</event>
<event>
 5    1  0.1829803E-009  0.1249930E+03  0.7818608E-02  0.1235080E+00
         21   -1    0    0  502  501  0.00000000000E+00  0.00000000000E+00  0.11704421817E+02  0.11704421817E+02  0.00000000000E+00 0. -1.
         21   -1    0    0  501  502 -0.00000000000E+00 -0.00000000000E+00 -0.33370382636E+03  0.33370382636E+03  0.00000000000E+00 0. -1.
         25    2    1    2    0    0  0.00000000000E+00  0.00000000000E+00 -0.32199940454E+03  0.34540824817E+03  0.12499296533E+03 0.  0.
        -11    1    3    3    0    0  0.14883615912E+02  0.43725200121E+02 -0.27733926174E+03  0.28115917422E+03  0.51100000000E-03 0. -1.
         11    1    3    3    0    0 -0.14883615912E+02 -0.43725200121E+02 -0.44660142801E+02  0.64249073950E+02  0.51100000000E-03 0. -1.
<mgrwt>
<rscale>  0 0.12499297E+03</rscale>
<asrwt>0</asrwt>
<pdfrwt beam="1">  1       21 0.18006803E-02 0.12499297E+03</pdfrwt>
<pdfrwt beam="2">  1       21 0.51339051E-01 0.12499297E+03</pdfrwt>
<totfact> 0.51888488E+06</totfact>
</mgrwt>
</event>
<event>
 5    1  0.1829803E-009  0.1249950E+03  0.7818608E-02  0.1235077E+00
         21   -1    0    0  502  501  0.00000000000E+00  0.00000000000E+00  0.14695059705E+03  0.14695059705E+03  0.00000000000E+00 0. -1.
         21   -1    0    0  501  502 -0.00000000000E+00 -0.00000000000E+00 -0.26579946141E+02  0.26579946141E+02  0.00000000000E+00 0. -1.
         25    2    1    2    0    0  0.00000000000E+00  0.00000000000E+00  0.12037065091E+03  0.17353054319E+03  0.12499502318E+03 0.  0.
        -11    1    3    3    0    0 -0.30648807816E+02  0.23425769721E+02  0.12844990873E+03  0.13411746776E+03  0.51100000000E-03 0. -1.
         11    1    3    3    0    0  0.30648807816E+02 -0.23425769721E+02 -0.80792578162E+01  0.39413075428E+02  0.51100000000E-03 0. -1.
<mgrwt>
<rscale>  0 0.12499502E+03</rscale>
<asrwt>0</asrwt>
<pdfrwt beam="1">  1       21 0.22607784E-01 0.12499502E+03</pdfrwt>
<pdfrwt beam="2">  1       21 0.40892226E-02 0.12499502E+03</pdfrwt>
<totfact> 0.67910132E+06</totfact>
</mgrwt>
</event>
<event>
 5    1  0.1829803E-009  0.1249978E+03  0.7818608E-02  0.1235073E+00
         21   -1    0    0  502  501  0.00000000000E+00  0.00000000000E+00  0.22291786077E+03  0.22291786077E+03  0.00000000000E+00 0. -1.
         21   -1    0    0  501  502 -0.00000000000E+00 -0.00000000000E+00 -0.17522667361E+02  0.17522667361E+02  0.00000000000E+00 0. -1.
         25    2    1    2    0    0  0.00000000000E+00  0.00000000000E+00  0.20539519341E+03  0.24044052813E+03  0.12499784835E+03 0.  0.
        -11    1    3    3    0    0 -0.56741660545E+02  0.23253925408E+02  0.79474719574E+02  0.10038223020E+03  0.51100000000E-03 0. -1.
         11    1    3    3    0    0  0.56741660545E+02 -0.23253925408E+02  0.12592047383E+03  0.14005829793E+03  0.51100000000E-03 0. -1.
<mgrwt>
<rscale>  0 0.12499785E+03</rscale>
<asrwt>0</asrwt>
<pdfrwt beam="1">  1       21 0.34295053E-01 0.12499785E+03</pdfrwt>
<pdfrwt beam="2">  1       21 0.26957951E-02 0.12499785E+03</pdfrwt>
<totfact> 0.60793360E+06</totfact>
</mgrwt>
</event>
<event>
 5    1  0.1829803E-009  0.1250040E+03  0.7818608E-02  0.1235063E+00
         21   -1    0    0  502  501  0.00000000000E+00  0.00000000000E+00  0.76132741696E+02  0.76132741696E+02  0.00000000000E+00 0. -1.
         21   -1    0    0  501  502 -0.00000000000E+00 -0.00000000000E+00 -0.51311669843E+02  0.51311669843E+02  0.00000000000E+00 0. -1.
         25    2    1    2    0    0  0.00000000000E+00  0.00000000000E+00  0.24821071853E+02  0.12744441154E+03  0.12500396964E+03 0.  0.
        -11    1    3    3    0    0 -0.12201291131E+02  0.55056021652E+02  0.39889677890E+02  0.69074043083E+02  0.51100000000E-03 0.  1.
         11    1    3    3    0    0  0.12201291131E+02 -0.55056021652E+02 -0.15068606037E+02  0.58370368455E+02  0.51100000000E-03 0.  1.
<mgrwt>
<rscale>  0 0.12500397E+03</rscale>
<asrwt>0</asrwt>
<pdfrwt beam="1">  1       21 0.11712729E-01 0.12500397E+03</pdfrwt>
<pdfrwt beam="2">  1       21 0.78941031E-02 0.12500397E+03</pdfrwt>
<totfact> 0.73701286E+06</totfact>
</mgrwt>
</event>
<event>
 5    1  0.1829803E-009  0.1250005E+03  0.7818608E-02  0.1235068E+00
         21   -1    0    0  502  501  0.00000000000E+00  0.00000000000E+00  0.99529889921E+02  0.99529889921E+02  0.00000000000E+00 0. -1.
         21   -1    0    0  501  502 -0.00000000000E+00 -0.00000000000E+00 -0.39247343636E+02  0.39247343636E+02  0.00000000000E+00 0. -1.
         25    2    1    2    0    0  0.00000000000E+00  0.00000000000E+00  0.60282546285E+02  0.13877723356E+03  0.12500054067E+03 0.  0.
        -11    1    3    3    0    0  0.25283547480E+02  0.57142570371E+02  0.28671479445E+02  0.68750162586E+02  0.51100000000E-03 0. -1.
         11    1    3    3    0    0 -0.25283547480E+02 -0.57142570371E+02  0.31611066840E+02  0.70027070971E+02  0.51100000000E-03 0. -1.
<mgrwt>
<rscale>  0 0.12500054E+03</rscale>
<asrwt>0</asrwt>
<pdfrwt beam="1">  1       21 0.15312291E-01 0.12500054E+03</pdfrwt>
<pdfrwt beam="2">  1       21 0.60380529E-02 0.12500054E+03</pdfrwt>
<totfact> 0.72198348E+06</totfact>
</mgrwt>
</event>
<event>
 5    1  0.1829803E-009  0.1249988E+03  0.7818608E-02  0.1235071E+00
         21   -1    0    0  502  501  0.00000000000E+00  0.00000000000E+00  0.62384361245E+02  0.62384361245E+02  0.00000000000E+00 0. -1.
         21   -1    0    0  501  502 -0.00000000000E+00 -0.00000000000E+00 -0.62614636526E+02  0.62614636526E+02  0.00000000000E+00 0. -1.
         25    2    1    2    0    0  0.00000000000E+00  0.00000000000E+00 -0.23027528163E+00  0.12499899777E+03  0.12499878566E+03 0.  0.
        -11    1    3    3    0    0  0.35796729503E+01  0.59381362952E+02  0.19047717724E+02  0.62464196747E+02  0.51100000000E-03 0. -1.
         11    1    3    3    0    0 -0.35796729503E+01 -0.59381362952E+02 -0.19277993006E+02  0.62534801024E+02  0.51100000000E-03 0. -1.
<mgrwt>
<rscale>  0 0.12499879E+03</rscale>
<asrwt>0</asrwt>
<pdfrwt beam="1">  1       21 0.95975940E-02 0.12499879E+03</pdfrwt>
<pdfrwt beam="2">  1       21 0.96330210E-02 0.12499879E+03</pdfrwt>
<totfact> 0.74046016E+06</totfact>
</mgrwt>
</event>
<event>
 5    1  0.1829803E-009  0.1249941E+03  0.7818608E-02  0.1235079E+00
         21   -1    0    0  502  501  0.00000000000E+00  0.00000000000E+00  0.65594466044E+02  0.65594466044E+02  0.00000000000E+00 0. -1.
         21   -1    0    0  501  502 -0.00000000000E+00 -0.00000000000E+00 -0.59545896957E+02  0.59545896957E+02  0.00000000000E+00 0. -1.
         25    2    1    2    0    0  0.00000000000E+00  0.00000000000E+00  0.60485690871E+01  0.12514036300E+03  0.12499410092E+03 0.  0.
        -11    1    3    3    0    0  0.21142455035E+02  0.15381143086E+02 -0.53807431227E+02  0.59823261555E+02  0.51100000000E-03 0. -1.
         11    1    3    3    0    0 -0.21142455035E+02 -0.15381143086E+02  0.59856000314E+02  0.65317101447E+02  0.51100000000E-03 0. -1.
<mgrwt>
<rscale>  0 0.12499410E+03</rscale>
<asrwt>0</asrwt>
<pdfrwt beam="1">  1       21 0.10091456E-01 0.12499410E+03</pdfrwt>
<pdfrwt beam="2">  1       21 0.91609073E-02 0.12499410E+03</pdfrwt>
<totfact> 0.74035790E+06</totfact>
</mgrwt>
</event>
<event>
 5    1  0.1829803E-009  0.1250020E+03  0.7818608E-02  0.1235066E+00
         21   -1    0    0  502  501  0.00000000000E+00  0.00000000000E+00  0.24922646059E+02  0.24922646059E+02  0.00000000000E+00 0.  1.
         21   -1    0    0  501  502 -0.00000000000E+00 -0.00000000000E+00 -0.15674001139E+03  0.15674001139E+03  0.00000000000E+00 0.  1.
         25    2    1    2    0    0  0.00000000000E+00  0.00000000000E+00 -0.13181736533E+03  0.18166265745E+03  0.12500201322E+03 0.  0.
        -11    1    3    3    0    0  0.39696608142E+02 -0.27772805670E+02 -0.85230407165E+01  0.49191377863E+02  0.51100000000E-03 0. -1.
         11    1    3    3    0    0 -0.39696608142E+02  0.27772805670E+02 -0.12329432461E+03  0.13247127959E+03  0.51100000000E-03 0. -1.
<mgrwt>
<rscale>  0 0.12500201E+03</rscale>
<asrwt>0</asrwt>
<pdfrwt beam="1">  1       21 0.38342533E-02 0.12500201E+03</pdfrwt>
<pdfrwt beam="2">  1       21 0.24113848E-01 0.12500201E+03</pdfrwt>
<totfact> 0.66957893E+06</totfact>
</mgrwt>
</event>
<event>
 5    1  0.1829803E-009  0.1250008E+03  0.7818608E-02  0.1235068E+00
         21   -1    0    0  502  501  0.00000000000E+00  0.00000000000E+00  0.41599314322E+02  0.41599314322E+02  0.00000000000E+00 0. -1.
         21   -1    0    0  501  502 -0.00000000000E+00 -0.00000000000E+00 -0.93903028988E+02  0.93903028988E+02  0.00000000000E+00 0. -1.
         25    2    1    2    0    0  0.00000000000E+00  0.00000000000E+00 -0.52303714667E+02  0.13550234331E+03  0.12500082590E+03 0.  0.
        -11    1    3    3    0    0  0.48146676574E+02 -0.30037854780E+02  0.22386199094E+01  0.56792487217E+02  0.51100000000E-03 0. -1.
         11    1    3    3    0    0 -0.48146676574E+02  0.30037854780E+02 -0.54542334576E+02  0.78709856093E+02  0.51100000000E-03 0. -1.
<mgrwt>
<rscale>  0 0.12500083E+03</rscale>
<asrwt>0</asrwt>
<pdfrwt beam="1">  1       21 0.63998946E-02 0.12500083E+03</pdfrwt>
<pdfrwt beam="2">  1       21 0.14446620E-01 0.12500083E+03</pdfrwt>
<totfact> 0.72628497E+06</totfact>
</mgrwt>
</event>
<event>
 5    1  0.1829803E-009  0.1250003E+03  0.7818608E-02  0.1235069E+00
         21   -1    0    0  502  501  0.00000000000E+00  0.00000000000E+00  0.15679049522E+03  0.15679049522E+03  0.00000000000E+00 0. -1.
         21   -1    0    0  501  502 -0.00000000000E+00 -0.00000000000E+00 -0.24913929879E+02  0.24913929879E+02  0.00000000000E+00 0. -1.
         25    2    1    2    0    0  0.00000000000E+00  0.00000000000E+00  0.13187656534E+03  0.18170442510E+03  0.12500027846E+03 0.  0.
        -11    1    3    3    0    0 -0.39190494046E+02 -0.46708787108E+02  0.45972033113E+02  0.76361203798E+02  0.51100000000E-03 0.  1.
         11    1    3    3    0    0  0.39190494046E+02  0.46708787108E+02  0.85904532231E+02  0.10534322130E+03  0.51100000000E-03 0.  1.
<mgrwt>
<rscale>  0 0.12500028E+03</rscale>
<asrwt>0</asrwt>
<pdfrwt beam="1">  1       21 0.24121614E-01 0.12500028E+03</pdfrwt>
<pdfrwt beam="2">  1       21 0.38329124E-02 0.12500028E+03</pdfrwt>
<totfact> 0.66956074E+06</totfact>
</mgrwt>
</event>
<event>
 5    1  0.1829803E-009  0.1249964E+03  0.7818608E-02  0.1235075E+00
         21   -1    0    0  502  501  0.00000000000E+00  0.00000000000E+00  0.15211027299E+03  0.15211027299E+03  0.00000000000E+00 0.  1.
         21   -1    0    0  501  502 -0.00000000000E+00 -0.00000000000E+00 -0.25678894399E+02  0.25678894399E+02  0.00000000000E+00 0.  1.
         25    2    1    2    0    0  0.00000000000E+00  0.00000000000E+00  0.12643137859E+03  0.17778916739E+03  0.12499637814E+03 0.  0.
        -11    1    3    3    0    0  0.12715645918E+01  0.36803830710E+02  0.13503945104E+03  0.13997068324E+03  0.51100000000E-03 0.  1.
         11    1    3    3    0    0 -0.12715645918E+01 -0.36803830710E+02 -0.86080724455E+01  0.37818484144E+02  0.51100000000E-03 0.  1.
<mgrwt>
<rscale>  0 0.12499638E+03</rscale>
<asrwt>0</asrwt>
<pdfrwt beam="1">  1       21 0.23401580E-01 0.12499638E+03</pdfrwt>
<pdfrwt beam="2">  1       21 0.39505992E-02 0.12499638E+03</pdfrwt>
<totfact> 0.67412259E+06</totfact>
</mgrwt>
</event>
<event>
 5    1  0.1829803E-009  0.1250224E+03  0.7818608E-02  0.1235034E+00
         21   -1    0    0  502  501  0.00000000000E+00  0.00000000000E+00  0.97211638565E+02  0.97211638565E+02  0.00000000000E+00 0. -1.
         21   -1    0    0  501  502 -0.00000000000E+00 -0.00000000000E+00 -0.40197369727E+02  0.40197369727E+02  0.00000000000E+00 0. -1.
         25    2    1    2    0    0  0.00000000000E+00  0.00000000000E+00  0.57014268837E+02  0.13740900829E+03  0.12502243282E+03 0.  0.
        -11    1    3    3    0    0 -0.90560135755E+01  0.58293549176E+02  0.57825053973E+01  0.59275514560E+02  0.51100000000E-03 0. -1.
         11    1    3    3    0    0  0.90560135755E+01 -0.58293549176E+02  0.51231763440E+02  0.78133493733E+02  0.51100000000E-03 0. -1.
<mgrwt>
<rscale>  0 0.12502243E+03</rscale>
<asrwt>0</asrwt>
<pdfrwt beam="1">  1       21 0.14955637E-01 0.12502243E+03</pdfrwt>
<pdfrwt beam="2">  1       21 0.61842108E-02 0.12502243E+03</pdfrwt>
<totfact> 0.72337659E+06</totfact>
</mgrwt>
</event>
<event>
 5    1  0.1829803E-009  0.1249994E+03  0.7818608E-02  0.1235070E+00
         21   -1    0    0  502  501  0.00000000000E+00  0.00000000000E+00  0.18651271061E+03  0.18651271061E+03  0.00000000000E+00 0. -1.
         21   -1    0    0  501  502 -0.00000000000E+00 -0.00000000000E+00 -0.20943400426E+02  0.20943400426E+02  0.00000000000E+00 0. -1.
         25    2    1    2    0    0  0.00000000000E+00  0.00000000000E+00  0.16556931018E+03  0.20745611104E+03  0.12499936613E+03 0.  0.
        -11    1    3    3    0    0 -0.21807246972E+02 -0.51322522601E+02  0.12962855340E+03  0.14111385191E+03  0.51100000000E-03 0. -1.
         11    1    3    3    0    0  0.21807246972E+02  0.51322522601E+02  0.35940756789E+02  0.66342259123E+02  0.51100000000E-03 0. -1.
<mgrwt>
<rscale>  0 0.12499937E+03</rscale>
<asrwt>0</asrwt>
<pdfrwt beam="1">  1       21 0.28694262E-01 0.12499937E+03</pdfrwt>
<pdfrwt beam="2">  1       21 0.32220617E-02 0.12499937E+03</pdfrwt>
<totfact> 0.64129209E+06</totfact>
</mgrwt>
</event>
<event>
 5    1  0.1829803E-009  0.1250004E+03  0.7818608E-02  0.1235069E+00
         21   -1    0    0  502  501  0.00000000000E+00  0.00000000000E+00  0.18548905204E+02  0.18548905204E+02  0.00000000000E+00 0.  1.
         21   -1    0    0  501  502 -0.00000000000E+00 -0.00000000000E+00 -0.21059326788E+03  0.21059326788E+03  0.00000000000E+00 0.  1.
         25    2    1    2    0    0  0.00000000000E+00  0.00000000000E+00 -0.19204436268E+03  0.22914217309E+03  0.12500039300E+03 0.  0.
        -11    1    3    3    0    0 -0.16308923552E+02 -0.56982006629E+02 -0.59665838720E+02  0.84100787019E+02  0.51100000000E-03 0. -1.
         11    1    3    3    0    0  0.16308923552E+02  0.56982006629E+02 -0.13237852396E+03  0.14504138607E+03  0.51100000000E-03 0. -1.
<mgrwt>
<rscale>  0 0.12500039E+03</rscale>
<asrwt>0</asrwt>
<pdfrwt beam="1">  1       21 0.28536779E-02 0.12500039E+03</pdfrwt>
<pdfrwt beam="2">  1       21 0.32398962E-01 0.12500039E+03</pdfrwt>
<totfact> 0.61898839E+06</totfact>
</mgrwt>
</event>
<event>
 5    1  0.1829803E-009  0.1249972E+03  0.7818608E-02  0.1235074E+00
         21   -1    0    0  502  501  0.00000000000E+00  0.00000000000E+00  0.19531996874E+03  0.19531996874E+03  0.00000000000E+00 0.  1.
         21   -1    0    0  501  502 -0.00000000000E+00 -0.00000000000E+00 -0.19998323816E+02  0.19998323816E+02  0.00000000000E+00 0.  1.
         25    2    1    2    0    0  0.00000000000E+00  0.00000000000E+00  0.17532164492E+03  0.21531829256E+03  0.12499715169E+03 0.  0.
        -11    1    3    3    0    0  0.55348764323E+02 -0.18876238545E+01  0.13755705803E+03  0.14828686068E+03  0.51100000000E-03 0.  1.
         11    1    3    3    0    0 -0.55348764323E+02  0.18876238545E+01  0.37764586890E+02  0.67031431874E+02  0.51100000000E-03 0.  1.
<mgrwt>
<rscale>  0 0.12499715E+03</rscale>
<asrwt>0</asrwt>
<pdfrwt beam="1">  1       21 0.30049225E-01 0.12499715E+03</pdfrwt>
<pdfrwt beam="2">  1       21 0.30766653E-02 0.12499715E+03</pdfrwt>
<totfact> 0.63308858E+06</totfact>
</mgrwt>
</event>
<event>
 5    1  0.1829803E-009  0.1249998E+03  0.7818608E-02  0.1235070E+00
         21   -1    0    0  502  501  0.00000000000E+00  0.00000000000E+00  0.26233977542E+02  0.26233977542E+02  0.00000000000E+00 0. -1.
         21   -1    0    0  501  502 -0.00000000000E+00 -0.00000000000E+00 -0.14889992396E+03  0.14889992396E+03  0.00000000000E+00 0. -1.
         25    2    1    2    0    0  0.00000000000E+00  0.00000000000E+00 -0.12266594642E+03  0.17513390151E+03  0.12499979618E+03 0.  0.
        -11    1    3    3    0    0  0.70842864614E+01  0.47476722420E+02 -0.52548253673E+01  0.48289123789E+02  0.51100000000E-03 0. -1.
         11    1    3    3    0    0 -0.70842864614E+01 -0.47476722420E+02 -0.11741112105E+03  0.12684477772E+03  0.51100000000E-03 0. -1.
<mgrwt>
<rscale>  0 0.12499980E+03</rscale>
<asrwt>0</asrwt>
<pdfrwt beam="1">  1       21 0.40359964E-02 0.12499980E+03</pdfrwt>
<pdfrwt beam="2">  1       21 0.22907682E-01 0.12499980E+03</pdfrwt>
<totfact> 0.67714542E+06</totfact>
</mgrwt>
</event>
<event>
 5    1  0.1829803E-009  0.1249983E+03  0.7818608E-02  0.1235072E+00
         21   -1    0    0  502  501  0.00000000000E+00  0.00000000000E+00  0.29374272490E+02  0.29374272490E+02  0.00000000000E+00 0.  1.
         21   -1    0    0  501  502 -0.00000000000E+00 -0.00000000000E+00 -0.13297839970E+03  0.13297839970E+03  0.00000000000E+00 0.  1.
         25    2    1    2    0    0  0.00000000000E+00  0.00000000000E+00 -0.10360412721E+03  0.16235267219E+03  0.12499829996E+03 0.  0.
        -11    1    3    3    0    0  0.54477896644E+02  0.25095060392E+02 -0.74616587088E+02  0.95735251333E+02  0.51100000000E-03 0. -1.
         11    1    3    3    0    0 -0.54477896644E+02 -0.25095060392E+02 -0.28987540119E+02  0.66617420854E+02  0.51100000000E-03 0. -1.
<mgrwt>
<rscale>  0 0.12499830E+03</rscale>
<asrwt>0</asrwt>
<pdfrwt beam="1">  1       21 0.45191188E-02 0.12499830E+03</pdfrwt>
<pdfrwt beam="2">  1       21 0.20458215E-01 0.12499830E+03</pdfrwt>
<totfact> 0.69236153E+06</totfact>
</mgrwt>
</event>
<event>
 5    1  0.1829803E-009  0.1250004E+03  0.7818608E-02  0.1235069E+00
         21   -1    0    0  502  501  0.00000000000E+00  0.00000000000E+00  0.88458672870E+02  0.88458672870E+02  0.00000000000E+00 0.  1.
         21   -1    0    0  501  502 -0.00000000000E+00 -0.00000000000E+00 -0.44159334107E+02  0.44159334107E+02  0.00000000000E+00 0.  1.
         25    2    1    2    0    0  0.00000000000E+00  0.00000000000E+00  0.44299338763E+02  0.13261800698E+03  0.12500041744E+03 0.  0.
        -11    1    3    3    0    0  0.40187414252E+02  0.42726220532E+02 -0.74595549002E+00  0.58661014610E+02  0.51100000000E-03 0.  1.
         11    1    3    3    0    0 -0.40187414252E+02 -0.42726220532E+02  0.45045294253E+02  0.73956992366E+02  0.51100000000E-03 0.  1.
<mgrwt>
<rscale>  0 0.12500042E+03</rscale>
<asrwt>0</asrwt>
<pdfrwt beam="1">  1       21 0.13609027E-01 0.12500042E+03</pdfrwt>
<pdfrwt beam="2">  1       21 0.67937437E-02 0.12500042E+03</pdfrwt>
<totfact> 0.73012673E+06</totfact>
</mgrwt>
</event>
<event>
 5    1  0.1829803E-009  0.1250015E+03  0.7818608E-02  0.1235067E+00
         21   -1    0    0  502  501  0.00000000000E+00  0.00000000000E+00  0.37277118959E+03  0.37277118959E+03  0.00000000000E+00 0. -1.
         21   -1    0    0  501  502 -0.00000000000E+00 -0.00000000000E+00 -0.10479196314E+02  0.10479196314E+02  0.00000000000E+00 0. -1.
         25    2    1    2    0    0  0.00000000000E+00  0.00000000000E+00  0.36229199328E+03  0.38325038591E+03  0.12500147961E+03 0.  0.
        -11    1    3    3    0    0 -0.46341085336E+02  0.33391373393E+02  0.25894320305E+03  0.26516798904E+03  0.51100000000E-03 0. -1.
         11    1    3    3    0    0  0.46341085336E+02 -0.33391373393E+02  0.10334879023E+03  0.11808239687E+03  0.51100000000E-03 0. -1.
<mgrwt>
<rscale>  0 0.12500148E+03</rscale>
<asrwt>0</asrwt>
<pdfrwt beam="1">  1       21 0.57349404E-01 0.12500148E+03</pdfrwt>
<pdfrwt beam="2">  1       21 0.16121843E-02 0.12500148E+03</pdfrwt>
<totfact> 0.49170729E+06</totfact>
</mgrwt>
</event>
<event>
 5    1  0.1829803E-009  0.1249996E+03  0.7818608E-02  0.1235070E+00
         21   -1    0    0  502  501  0.00000000000E+00  0.00000000000E+00  0.46965036224E+02  0.46965036224E+02  0.00000000000E+00 0.  1.
         21   -1    0    0  501  502 -0.00000000000E+00 -0.00000000000E+00 -0.83173069259E+02  0.83173069259E+02  0.00000000000E+00 0.  1.
         25    2    1    2    0    0  0.00000000000E+00  0.00000000000E+00 -0.36208033035E+02  0.13013810548E+03  0.12499961937E+03 0.  0.
        -11    1    3    3    0    0 -0.14415108560E+02 -0.57263764866E+02  0.32143597756E+01  0.59137688748E+02  0.51100000000E-03 0. -1.
         11    1    3    3    0    0  0.14415108560E+02  0.57263764866E+02 -0.39422392811E+02  0.71000416736E+02  0.51100000000E-03 0. -1.
<mgrwt>
<rscale>  0 0.12499962E+03</rscale>
<asrwt>0</asrwt>
<pdfrwt beam="1">  1       21 0.72253903E-02 0.12499962E+03</pdfrwt>
<pdfrwt beam="2">  1       21 0.12795857E-01 0.12499962E+03</pdfrwt>
<totfact> 0.73347176E+06</totfact>
</mgrwt>
</event>
<event>
 5    1  0.1829803E-009  0.1249972E+03  0.7818608E-02  0.1235074E+00
         21   -1    0    0  502  501  0.00000000000E+00  0.00000000000E+00  0.31098859279E+02  0.31098859279E+02  0.00000000000E+00 0.  1.
         21   -1    0    0  501  502 -0.00000000000E+00 -0.00000000000E+00 -0.12560188572E+03  0.12560188572E+03  0.00000000000E+00 0.  1.
         25    2    1    2    0    0  0.00000000000E+00  0.00000000000E+00 -0.94503026439E+02  0.15670074500E+03  0.12499720587E+03 0.  0.
        -11    1    3    3    0    0  0.15391399854E+01 -0.32115168619E+02  0.19935811061E+02  0.37831066205E+02  0.51100000000E-03 0.  1.
         11    1    3    3    0    0 -0.15391399854E+01  0.32115168619E+02 -0.11443883750E+03  0.11886967879E+03  0.51100000000E-03 0.  1.
<mgrwt>
<rscale>  0 0.12499721E+03</rscale>
<asrwt>0</asrwt>
<pdfrwt beam="1">  1       21 0.47844399E-02 0.12499721E+03</pdfrwt>
<pdfrwt beam="2">  1       21 0.19323367E-01 0.12499721E+03</pdfrwt>
<totfact> 0.69929862E+06</totfact>
</mgrwt>
</event>
<event>
 5    1  0.1829803E-009  0.1249986E+03  0.7818608E-02  0.1235071E+00
         21   -1    0    0  502  501  0.00000000000E+00  0.00000000000E+00  0.11401980867E+03  0.11401980867E+03  0.00000000000E+00 0.  1.
         21   -1    0    0  501  502 -0.00000000000E+00 -0.00000000000E+00 -0.34258637544E+02  0.34258637544E+02  0.00000000000E+00 0.  1.
         25    2    1    2    0    0  0.00000000000E+00  0.00000000000E+00  0.79761171122E+02  0.14827844621E+03  0.12499861276E+03 0.  0.
        -11    1    3    3    0    0 -0.51587322138E+02  0.20862058675E+02  0.61261268227E+01  0.55982200097E+02  0.51100000000E-03 0. -1.
         11    1    3    3    0    0  0.51587322138E+02 -0.20862058675E+02  0.73635044299E+02  0.92296246114E+02  0.51100000000E-03 0. -1.
<mgrwt>
<rscale>  0 0.12499861E+03</rscale>
<asrwt>0</asrwt>
<pdfrwt beam="1">  1       21 0.17541509E-01 0.12499861E+03</pdfrwt>
<pdfrwt beam="2">  1       21 0.52705597E-02 0.12499861E+03</pdfrwt>
<totfact> 0.70978641E+06</totfact>
</mgrwt>
</event>
<event>
 5    1  0.1829803E-009  0.1250000E+03  0.7818608E-02  0.1235069E+00
         21   -1    0    0  502  501  0.00000000000E+00  0.00000000000E+00  0.66063594788E+02  0.66063594788E+02  0.00000000000E+00 0. -1.
         21   -1    0    0  501  502 -0.00000000000E+00 -0.00000000000E+00 -0.59128670858E+02  0.59128670858E+02  0.00000000000E+00 0. -1.
         25    2    1    2    0    0  0.00000000000E+00  0.00000000000E+00  0.69349239292E+01  0.12519226565E+03  0.12500004083E+03 0.  0.
        -11    1    3    3    0    0  0.60744888224E+02  0.29572144939E+01 -0.10961843937E+02  0.61796833136E+02  0.51100000000E-03 0.  1.
         11    1    3    3    0    0 -0.60744888224E+02 -0.29572144939E+01  0.17896767866E+02  0.63395432510E+02  0.51100000000E-03 0.  1.
<mgrwt>
<rscale>  0 0.12500004E+03</rscale>
<asrwt>0</asrwt>
<pdfrwt beam="1">  1       21 0.10163630E-01 0.12500004E+03</pdfrwt>
<pdfrwt beam="2">  1       21 0.90967186E-02 0.12500004E+03</pdfrwt>
<totfact> 0.74017539E+06</totfact>
</mgrwt>
</event>
<event>
 5    1  0.1829803E-009  0.1249986E+03  0.7818608E-02  0.1235072E+00
         21   -1    0    0  502  501  0.00000000000E+00  0.00000000000E+00  0.79408100998E+02  0.79408100998E+02  0.00000000000E+00 0. -1.
         21   -1    0    0  501  502 -0.00000000000E+00 -0.00000000000E+00 -0.49190962449E+02  0.49190962449E+02  0.00000000000E+00 0. -1.
         25    2    1    2    0    0  0.00000000000E+00  0.00000000000E+00  0.30217138549E+02  0.12859906345E+03  0.12499857462E+03 0.  0.
        -11    1    3    3    0    0  0.30078315463E+02  0.25839757579E+02  0.64809108401E+02  0.75977751117E+02  0.51100000000E-03 0. -1.
         11    1    3    3    0    0 -0.30078315463E+02 -0.25839757579E+02 -0.34591969851E+02  0.52621312330E+02  0.51100000000E-03 0. -1.
<mgrwt>
<rscale>  0 0.12499857E+03</rscale>
<asrwt>0</asrwt>
<pdfrwt beam="1">  1       21 0.12216631E-01 0.12499857E+03</pdfrwt>
<pdfrwt beam="2">  1       21 0.75678404E-02 0.12499857E+03</pdfrwt>
<totfact> 0.73555461E+06</totfact>
</mgrwt>
</event>
<event>
 5    1  0.1829803E-009  0.1250003E+03  0.7818608E-02  0.1235069E+00
         21   -1    0    0  502  501  0.00000000000E+00  0.00000000000E+00  0.32920268977E+02  0.32920268977E+02  0.00000000000E+00 0. -1.
         21   -1    0    0  501  502 -0.00000000000E+00 -0.00000000000E+00 -0.11865845984E+03  0.11865845984E+03  0.00000000000E+00 0. -1.
         25    2    1    2    0    0  0.00000000000E+00  0.00000000000E+00 -0.85738190862E+02  0.15157872882E+03  0.12500029463E+03 0.  0.
        -11    1    3    3    0    0 -0.46098591441E+02  0.28648746695E+02 -0.80449530145E+02  0.97046162834E+02  0.51100000000E-03 0.  1.
         11    1    3    3    0    0  0.46098591441E+02 -0.28648746695E+02 -0.52886607173E+01  0.54532565981E+02  0.51100000000E-03 0.  1.
<mgrwt>
<rscale>  0 0.12500029E+03</rscale>
<asrwt>0</asrwt>
<pdfrwt beam="1">  1       21 0.50646568E-02 0.12500029E+03</pdfrwt>
<pdfrwt beam="2">  1       21 0.18255148E-01 0.12500029E+03</pdfrwt>
<totfact> 0.70560914E+06</totfact>
</mgrwt>
</event>
<event>
 5    1  0.1829803E-009  0.1249865E+03  0.7818608E-02  0.1235090E+00
         21   -1    0    0  502  501  0.00000000000E+00  0.00000000000E+00  0.52649806048E+03  0.52649806048E+03  0.00000000000E+00 0.  1.
         21   -1    0    0  501  502 -0.00000000000E+00 -0.00000000000E+00 -0.74177078107E+01  0.74177078107E+01  0.00000000000E+00 0.  1.
         25    2    1    2    0    0  0.00000000000E+00  0.00000000000E+00  0.51908035267E+03  0.53391576829E+03  0.12498653968E+03 0.  0.
        -11    1    3    3    0    0  0.25105292923E+02  0.54221345651E+02  0.18133279928E+03  0.19092358197E+03  0.51100000000E-03 0. -1.
         11    1    3    3    0    0 -0.25105292923E+02 -0.54221345651E+02  0.33774755338E+03  0.34299218631E+03  0.51100000000E-03 0. -1.
<mgrwt>
<rscale>  0 0.12498654E+03</rscale>
<asrwt>0</asrwt>
<pdfrwt beam="1">  1       21 0.80999672E-01 0.12498654E+03</pdfrwt>
<pdfrwt beam="2">  1       21 0.11411862E-02 0.12498654E+03</pdfrwt>
<totfact> 0.40276010E+06</totfact>
</mgrwt>
</event>
<event>
 5    1  0.1829803E-009  0.1249985E+03  0.7818608E-02  0.1235072E+00
         21   -1    0    0  502  501  0.00000000000E+00  0.00000000000E+00  0.31319897439E+02  0.31319897439E+02  0.00000000000E+00 0. -1.
         21   -1    0    0  501  502 -0.00000000000E+00 -0.00000000000E+00 -0.12471802271E+03  0.12471802271E+03  0.00000000000E+00 0. -1.
         25    2    1    2    0    0  0.00000000000E+00  0.00000000000E+00 -0.93398125276E+02  0.15603792015E+03  0.12499849087E+03 0.  0.
        -11    1    3    3    0    0 -0.53137287422E+02 -0.16941481045E+02 -0.11489166664E+02  0.56943709446E+02  0.51100000000E-03 0.  1.
         11    1    3    3    0    0  0.53137287422E+02  0.16941481045E+02 -0.81908958612E+02  0.99094210707E+02  0.51100000000E-03 0.  1.
<mgrwt>
<rscale>  0 0.12499849E+03</rscale>
<asrwt>0</asrwt>
<pdfrwt beam="1">  1       21 0.48184458E-02 0.12499849E+03</pdfrwt>
<pdfrwt beam="2">  1       21 0.19187388E-01 0.12499849E+03</pdfrwt>
<totfact> 0.70009575E+06</totfact>
</mgrwt>
</event>
<event>
 5    1  0.1829803E-009  0.1250126E+03  0.7818608E-02  0.1235050E+00
         21   -1    0    0  502  501  0.00000000000E+00  0.00000000000E+00  0.60870549812E+03  0.60870549812E+03  0.00000000000E+00 0.  1.
         21   -1    0    0  501  502 -0.00000000000E+00 -0.00000000000E+00 -0.64186014857E+01  0.64186014857E+01  0.00000000000E+00 0.  1.
         25    2    1    2    0    0  0.00000000000E+00  0.00000000000E+00  0.60228689663E+03  0.61512409960E+03  0.12501260760E+03 0.  0.
        -11    1    3    3    0    0 -0.36173098127E+02 -0.50968924483E+02  0.29698650753E+03  0.30349186142E+03  0.51100000000E-03 0.  1.
         11    1    3    3    0    0  0.36173098127E+02  0.50968924483E+02  0.30530038910E+03  0.31163223819E+03  0.51100000000E-03 0.  1.
<mgrwt>
<rscale>  0 0.12501261E+03</rscale>
<asrwt>0</asrwt>
<pdfrwt beam="1">  1       21 0.93646954E-01 0.12501261E+03</pdfrwt>
<pdfrwt beam="2">  1       21 0.98747763E-03 0.12501261E+03</pdfrwt>
<totfact> 0.36406088E+06</totfact>
</mgrwt>
</event>
<event>
 5    1  0.1829803E-009  0.1250052E+03  0.7818608E-02  0.1235061E+00
         21   -1    0    0  502  501  0.00000000000E+00  0.00000000000E+00  0.22996859920E+02  0.22996859920E+02  0.00000000000E+00 0.  1.
         21   -1    0    0  501  502 -0.00000000000E+00 -0.00000000000E+00 -0.16987426417E+03  0.16987426417E+03  0.00000000000E+00 0.  1.
         25    2    1    2    0    0  0.00000000000E+00  0.00000000000E+00 -0.14687740425E+03  0.19287112409E+03  0.12500519441E+03 0.  0.
        -11    1    3    3    0    0  0.17063406075E+02  0.23961743273E+02 -0.15852608986E+03  0.16123227386E+03  0.51100000000E-03 0. -1.
         11    1    3    3    0    0 -0.17063406075E+02 -0.23961743273E+02  0.11648685606E+02  0.31638850234E+02  0.51100000000E-03 0. -1.
<mgrwt>
<rscale>  0 0.12500519E+03</rscale>
<asrwt>0</asrwt>
<pdfrwt beam="1">  1       21 0.35379786E-02 0.12500519E+03</pdfrwt>
<pdfrwt beam="2">  1       21 0.26134501E-01 0.12500519E+03</pdfrwt>
<totfact> 0.65696133E+06</totfact>
</mgrwt>
</event>
<event>
 5    1  0.1829803E-009  0.1249987E+03  0.7818608E-02  0.1235071E+00
         21   -1    0    0  502  501  0.00000000000E+00  0.00000000000E+00  0.17927187149E+03  0.17927187149E+03  0.00000000000E+00 0.  1.
         21   -1    0    0  501  502 -0.00000000000E+00 -0.00000000000E+00 -0.21789068172E+02  0.21789068172E+02  0.00000000000E+00 0.  1.
         25    2    1    2    0    0  0.00000000000E+00  0.00000000000E+00  0.15748280332E+03  0.20106093967E+03  0.12499867246E+03 0.  0.
        -11    1    3    3    0    0  0.50709397714E+02 -0.25605654208E+02  0.12065751575E+03  0.13336164610E+03  0.51100000000E-03 0. -1.
         11    1    3    3    0    0 -0.50709397714E+02  0.25605654208E+02  0.36825287572E+02  0.67699293563E+02  0.51100000000E-03 0. -1.
<mgrwt>
<rscale>  0 0.12499867E+03</rscale>
<asrwt>0</asrwt>
<pdfrwt beam="1">  1       21 0.27580287E-01 0.12499867E+03</pdfrwt>
<pdfrwt beam="2">  1       21 0.33521645E-02 0.12499867E+03</pdfrwt>
<totfact> 0.64814652E+06</totfact>
</mgrwt>
</event>
<event>
 5    1  0.1829803E-009  0.1250002E+03  0.7818608E-02  0.1235069E+00
         21   -1    0    0  502  501  0.00000000000E+00  0.00000000000E+00  0.28101766088E+02  0.28101766088E+02  0.00000000000E+00 0.  1.
         21   -1    0    0  501  502 -0.00000000000E+00 -0.00000000000E+00 -0.13900424001E+03  0.13900424001E+03  0.00000000000E+00 0.  1.
         25    2    1    2    0    0  0.00000000000E+00  0.00000000000E+00 -0.11090247392E+03  0.16710600610E+03  0.12500023421E+03 0.  0.
        -11    1    3    3    0    0  0.45838643581E+02 -0.16995733223E+02 -0.33961048890E+01  0.49005813143E+02  0.51100000000E-03 0. -1.
         11    1    3    3    0    0 -0.45838643581E+02  0.16995733223E+02 -0.10750636903E+03  0.11810019296E+03  0.51100000000E-03 0. -1.
<mgrwt>
<rscale>  0 0.12500023E+03</rscale>
<asrwt>0</asrwt>
<pdfrwt beam="1">  1       21 0.43233486E-02 0.12500023E+03</pdfrwt>
<pdfrwt beam="2">  1       21 0.21385268E-01 0.12500023E+03</pdfrwt>
<totfact> 0.68661066E+06</totfact>
</mgrwt>
</event>
<event>
 5    1  0.1829803E-009  0.1250010E+03  0.7818608E-02  0.1235068E+00
         21   -1    0    0  502  501  0.00000000000E+00  0.00000000000E+00  0.57624741555E+02  0.57624741555E+02  0.00000000000E+00 0. -1.
         21   -1    0    0  501  502 -0.00000000000E+00 -0.00000000000E+00 -0.67788844726E+02  0.67788844726E+02  0.00000000000E+00 0. -1.
         25    2    1    2    0    0  0.00000000000E+00  0.00000000000E+00 -0.10164103171E+02  0.12541358628E+03  0.12500103452E+03 0.  0.
        -11    1    3    3    0    0 -0.60365644857E+02 -0.12855406448E+02  0.48014555567E+01  0.61905787530E+02  0.51100000000E-03 0.  1.
         11    1    3    3    0    0  0.60365644857E+02  0.12855406448E+02 -0.14965558728E+02  0.63507798751E+02  0.51100000000E-03 0.  1.
<mgrwt>
<rscale>  0 0.12500103E+03</rscale>
<asrwt>0</asrwt>
<pdfrwt beam="1">  1       21 0.88653449E-02 0.12500103E+03</pdfrwt>
<pdfrwt beam="2">  1       21 0.10429053E-01 0.12500103E+03</pdfrwt>
<totfact> 0.73985553E+06</totfact>
</mgrwt>
</event>
<event>
 5    1  0.1829803E-009  0.1250020E+03  0.7818608E-02  0.1235066E+00
         21   -1    0    0  502  501  0.00000000000E+00  0.00000000000E+00  0.23197847980E+02  0.23197847980E+02  0.00000000000E+00 0.  1.
         21   -1    0    0  501  502 -0.00000000000E+00 -0.00000000000E+00 -0.16839384515E+03  0.16839384515E+03  0.00000000000E+00 0.  1.
         25    2    1    2    0    0  0.00000000000E+00  0.00000000000E+00 -0.14519599717E+03  0.19159169313E+03  0.12500199711E+03 0.  0.
        -11    1    3    3    0    0  0.38765041577E+02 -0.47296268138E+02 -0.52808273661E+02  0.80798386095E+02  0.51100000000E-03 0. -1.
         11    1    3    3    0    0 -0.38765041577E+02  0.47296268138E+02 -0.92387723509E+02  0.11079330703E+03  0.51100000000E-03 0. -1.
<mgrwt>
<rscale>  0 0.12500200E+03</rscale>
<asrwt>0</asrwt>
<pdfrwt beam="1">  1       21 0.35688997E-02 0.12500200E+03</pdfrwt>
<pdfrwt beam="2">  1       21 0.25906745E-01 0.12500200E+03</pdfrwt>
<totfact> 0.65842666E+06</totfact>
</mgrwt>
</event>
<event>
 5    1  0.1829803E-009  0.1250009E+03  0.7818608E-02  0.1235068E+00
         21   -1    0    0  502  501  0.00000000000E+00  0.00000000000E+00  0.13303083729E+02  0.13303083729E+02  0.00000000000E+00 0.  1.
         21   -1    0    0  501  502 -0.00000000000E+00 -0.00000000000E+00 -0.29363897979E+03  0.29363897979E+03  0.00000000000E+00 0.  1.
         25    2    1    2    0    0  0.00000000000E+00  0.00000000000E+00 -0.28033589606E+03  0.30694206351E+03  0.12500086294E+03 0.  0.
        -11    1    3    3    0    0  0.53568620146E+02 -0.14533012348E+01 -0.21915002313E+03  0.22560683010E+03  0.51100000000E-03 0.  1.
         11    1    3    3    0    0 -0.53568620146E+02  0.14533012348E+01 -0.61185872928E+02  0.81335233417E+02  0.51100000000E-03 0.  1.
<mgrwt>
<rscale>  0 0.12500086E+03</rscale>
<asrwt>0</asrwt>
<pdfrwt beam="1">  1       21 0.20466285E-02 0.12500086E+03</pdfrwt>
<pdfrwt beam="2">  1       21 0.45175224E-01 0.12500086E+03</pdfrwt>
<totfact> 0.54882963E+06</totfact>
</mgrwt>
</event>
<event>
 5    1  0.1829803E-009  0.1250148E+03  0.7818608E-02  0.1235046E+00
         21   -1    0    0  502  501  0.00000000000E+00  0.00000000000E+00  0.79148576945E+01  0.79148576945E+01  0.00000000000E+00 0.  1.
         21   -1    0    0  501  502 -0.00000000000E+00 -0.00000000000E+00 -0.49365089226E+03  0.49365089226E+03  0.00000000000E+00 0.  1.
         25    2    1    2    0    0  0.00000000000E+00  0.00000000000E+00 -0.48573603457E+03  0.50156574996E+03  0.12501482413E+03 0.  0.
        -11    1    3    3    0    0  0.61467156621E+02  0.37488460888E+01 -0.19986015418E+03  0.20913236579E+03  0.51100000000E-03 0. -1.
         11    1    3    3    0    0 -0.61467156621E+02 -0.37488460888E+01 -0.28587588039E+03  0.29243338417E+03  0.51100000000E-03 0. -1.
<mgrwt>
<rscale>  0 0.12501482E+03</rscale>
<asrwt>0</asrwt>
<pdfrwt beam="1">  1       21 0.12176704E-02 0.12501482E+03</pdfrwt>
<pdfrwt beam="2">  1       21 0.75946294E-01 0.12501482E+03</pdfrwt>
<totfact> 0.41943799E+06</totfact>
</mgrwt>
</event>
<event>
 5    1  0.1829803E-009  0.1249948E+03  0.7818608E-02  0.1235077E+00
         21   -1    0    0  502  501  0.00000000000E+00  0.00000000000E+00  0.32318229927E+03  0.32318229927E+03  0.00000000000E+00 0.  1.
         21   -1    0    0  501  502 -0.00000000000E+00 -0.00000000000E+00 -0.12085831181E+02  0.12085831181E+02  0.00000000000E+00 0.  1.
         25    2    1    2    0    0  0.00000000000E+00  0.00000000000E+00  0.31109646809E+03  0.33526813045E+03  0.12499482725E+03 0.  0.
        -11    1    3    3    0    0 -0.52965699092E+02  0.21040060823E+02  0.22434573655E+03  0.23147150785E+03  0.51100000000E-03 0. -1.
         11    1    3    3    0    0  0.52965699092E+02 -0.21040060823E+02  0.86750731544E+02  0.10379662260E+03  0.51100000000E-03 0. -1.
<mgrwt>
<rscale>  0 0.12499483E+03</rscale>
<asrwt>0</asrwt>
<pdfrwt beam="1">  1       21 0.49720347E-01 0.12499483E+03</pdfrwt>
<pdfrwt beam="2">  1       21 0.18593589E-02 0.12499483E+03</pdfrwt>
<totfact> 0.52652004E+06</totfact>
</mgrwt>
</event>
<event>
 5    1  0.1829803E-009  0.1249974E+03  0.7818608E-02  0.1235073E+00
         21   -1    0    0  502  501  0.00000000000E+00  0.00000000000E+00  0.52510121620E+02  0.52510121620E+02  0.00000000000E+00 0.  1.
         21   -1    0    0  501  502 -0.00000000000E+00 -0.00000000000E+00 -0.74387361487E+02  0.74387361487E+02  0.00000000000E+00 0.  1.
         25    2    1    2    0    0  0.00000000000E+00  0.00000000000E+00 -0.21877239867E+02  0.12689748311E+03  0.12499743035E+03 0.  0.
        -11    1    3    3    0    0 -0.54921705440E+02  0.24270758822E+02 -0.28540746781E+02  0.66483364004E+02  0.51100000000E-03 0. -1.
         11    1    3    3    0    0  0.54921705440E+02 -0.24270758822E+02  0.66635069138E+01  0.60414119102E+02  0.51100000000E-03 0. -1.
<mgrwt>
<rscale>  0 0.12499743E+03</rscale>
<asrwt>0</asrwt>
<pdfrwt beam="1">  1       21 0.80784803E-02 0.12499743E+03</pdfrwt>
<pdfrwt beam="2">  1       21 0.11444209E-01 0.12499743E+03</pdfrwt>
<totfact> 0.73787938E+06</totfact>
</mgrwt>
</event>
<event>
 5    1  0.1829803E-009  0.1249982E+03  0.7818608E-02  0.1235072E+00
         21   -1    0    0  502  501  0.00000000000E+00  0.00000000000E+00  0.16638210089E+02  0.16638210089E+02  0.00000000000E+00 0. -1.
         21   -1    0    0  501  502 -0.00000000000E+00 -0.00000000000E+00 -0.23476916894E+03  0.23476916894E+03  0.00000000000E+00 0. -1.
         25    2    1    2    0    0  0.00000000000E+00  0.00000000000E+00 -0.21813095885E+03  0.25140737903E+03  0.12499822007E+03 0.  0.
        -11    1    3    3    0    0  0.48571360542E+02  0.14363756159E+02 -0.18270839230E+03  0.18959918558E+03  0.51100000000E-03 0.  1.
         11    1    3    3    0    0 -0.48571360542E+02 -0.14363756159E+02 -0.35422566551E+02  0.61808193448E+02  0.51100000000E-03 0.  1.
<mgrwt>
<rscale>  0 0.12499822E+03</rscale>
<asrwt>0</asrwt>
<pdfrwt beam="1">  1       21 0.25597246E-02 0.12499822E+03</pdfrwt>
<pdfrwt beam="2">  1       21 0.36118334E-01 0.12499822E+03</pdfrwt>
<totfact> 0.59748619E+06</totfact>
</mgrwt>
</event>
<event>
 5    1  0.1829803E-009  0.1249991E+03  0.7818608E-02  0.1235071E+00
         21   -1    0    0  502  501  0.00000000000E+00  0.00000000000E+00  0.12210534081E+03  0.12210534081E+03  0.00000000000E+00 0. -1.
         21   -1    0    0  501  502 -0.00000000000E+00 -0.00000000000E+00 -0.31990347912E+02  0.31990347912E+02  0.00000000000E+00 0. -1.
         25    2    1    2    0    0  0.00000000000E+00  0.00000000000E+00  0.90114992894E+02  0.15409568872E+03  0.12499907734E+03 0.  0.
        -11    1    3    3    0    0  0.33262710653E+02  0.35290042355E+02  0.93660678211E+02  0.10547093274E+03  0.51100000000E-03 0. -1.
         11    1    3    3    0    0 -0.33262710653E+02 -0.35290042355E+02 -0.35456853169E+01  0.48624755979E+02  0.51100000000E-03 0. -1.
<mgrwt>
<rscale>  0 0.12499908E+03</rscale>
<asrwt>0</asrwt>
<pdfrwt beam="1">  1       21 0.18785437E-01 0.12499908E+03</pdfrwt>
<pdfrwt beam="2">  1       21 0.49215920E-02 0.12499908E+03</pdfrwt>
<totfact> 0.70249876E+06</totfact>
</mgrwt>
</event>
<event>
 5    1  0.1829803E-009  0.1249978E+03  0.7818608E-02  0.1235073E+00
         21   -1    0    0  502  501  0.00000000000E+00  0.00000000000E+00  0.14460885608E+03  0.14460885608E+03  0.00000000000E+00 0. -1.
         21   -1    0    0  501  502 -0.00000000000E+00 -0.00000000000E+00 -0.27011573222E+02  0.27011573222E+02  0.00000000000E+00 0. -1.
         25    2    1    2    0    0  0.00000000000E+00  0.00000000000E+00  0.11759728286E+03  0.17162042931E+03  0.12499780326E+03 0.  0.
        -11    1    3    3    0    0  0.17732817866E+02 -0.53838716234E+02  0.94943761643E+02  0.11057747542E+03  0.51100000000E-03 0. -1.
         11    1    3    3    0    0 -0.17732817866E+02  0.53838716234E+02  0.22653521218E+02  0.61042953885E+02  0.51100000000E-03 0. -1.
<mgrwt>
<rscale>  0 0.12499780E+03</rscale>
<asrwt>0</asrwt>
<pdfrwt beam="1">  1       21 0.22247516E-01 0.12499780E+03</pdfrwt>
<pdfrwt beam="2">  1       21 0.41556267E-02 0.12499780E+03</pdfrwt>
<totfact> 0.68129859E+06</totfact>
</mgrwt>
</event>
<event>
 5    1  0.1829803E-009  0.1249986E+03  0.7818608E-02  0.1235072E+00
         21   -1    0    0  502  501  0.00000000000E+00  0.00000000000E+00  0.19065064703E+03  0.19065064703E+03  0.00000000000E+00 0.  1.
         21   -1    0    0  501  502 -0.00000000000E+00 -0.00000000000E+00 -0.20488581186E+02  0.20488581186E+02  0.00000000000E+00 0.  1.
         25    2    1    2    0    0  0.00000000000E+00  0.00000000000E+00  0.17016206585E+03  0.21113922822E+03  0.12499858015E+03 0.  0.
        -11    1    3    3    0    0  0.51976842931E+02 -0.17755244405E+01  0.26533222378E+02  0.58384557703E+02  0.51100000000E-03 0. -1.
         11    1    3    3    0    0 -0.51976842931E+02  0.17755244405E+01  0.14362884347E+03  0.15275467052E+03  0.51100000000E-03 0. -1.
<mgrwt>
<rscale>  0 0.12499858E+03</rscale>
<asrwt>0</asrwt>
<pdfrwt beam="1">  1       21 0.29330867E-01 0.12499858E+03</pdfrwt>
<pdfrwt beam="2">  1       21 0.31520896E-02 0.12499858E+03</pdfrwt>
<totfact> 0.63742165E+06</totfact>
</mgrwt>
</event>
<event>
 5    1  0.1829803E-009  0.1249984E+03  0.7818608E-02  0.1235072E+00
         21   -1    0    0  502  501  0.00000000000E+00  0.00000000000E+00  0.61580599716E+02  0.61580599716E+02  0.00000000000E+00 0.  1.
         21   -1    0    0  501  502 -0.00000000000E+00 -0.00000000000E+00 -0.63431517443E+02  0.63431517443E+02  0.00000000000E+00 0.  1.
         25    2    1    2    0    0  0.00000000000E+00  0.00000000000E+00 -0.18509177263E+01  0.12501211716E+03  0.12499841415E+03 0.  0.
        -11    1    3    3    0    0 -0.83987942054E+00 -0.54578423785E+02 -0.31369576892E+02  0.62956811346E+02  0.51100000000E-03 0. -1.
         11    1    3    3    0    0  0.83987942054E+00  0.54578423785E+02  0.29518659165E+02  0.62055305812E+02  0.51100000000E-03 0. -1.
<mgrwt>
<rscale>  0 0.12499841E+03</rscale>
<asrwt>0</asrwt>
<pdfrwt beam="1">  1       21 0.94739385E-02 0.12499841E+03</pdfrwt>
<pdfrwt beam="2">  1       21 0.97586949E-02 0.12499841E+03</pdfrwt>
<totfact> 0.74044947E+06</totfact>
</mgrwt>
</event>
<event>
 5    1  0.1829803E-009  0.1249999E+03  0.7818608E-02  0.1235069E+00
         21   -1    0    0  502  501  0.00000000000E+00  0.00000000000E+00  0.13073272363E+03  0.13073272363E+03  0.00000000000E+00 0.  1.
         21   -1    0    0  501  502 -0.00000000000E+00 -0.00000000000E+00 -0.29879617265E+02  0.29879617265E+02  0.00000000000E+00 0.  1.
         25    2    1    2    0    0  0.00000000000E+00  0.00000000000E+00  0.10085310637E+03  0.16061234090E+03  0.12499989994E+03 0.  0.
        -11    1    3    3    0    0 -0.28276505194E+02  0.44570191990E+01 -0.20961371563E+02  0.35479640136E+02  0.51100000000E-03 0.  1.
         11    1    3    3    0    0  0.28276505194E+02 -0.44570191990E+01  0.12181447793E+03  0.12513270076E+03  0.51100000000E-03 0.  1.
<mgrwt>
<rscale>  0 0.12499990E+03</rscale>
<asrwt>0</asrwt>
<pdfrwt beam="1">  1       21 0.20112726E-01 0.12499990E+03</pdfrwt>
<pdfrwt beam="2">  1       21 0.45968643E-02 0.12499990E+03</pdfrwt>
<totfact> 0.69444929E+06</totfact>
</mgrwt>
</event>
<event>
 5    1  0.1829803E-009  0.1250029E+03  0.7818608E-02  0.1235065E+00
         21   -1    0    0  502  501  0.00000000000E+00  0.00000000000E+00  0.48731819880E+02  0.48731819880E+02  0.00000000000E+00 0. -1.
         21   -1    0    0  501  502 -0.00000000000E+00 -0.00000000000E+00 -0.80161833600E+02  0.80161833600E+02  0.00000000000E+00 0. -1.
         25    2    1    2    0    0  0.00000000000E+00  0.00000000000E+00 -0.31430013720E+02  0.12889365348E+03  0.12500291255E+03 0.  0.
        -11    1    3    3    0    0  0.57323410023E+01  0.34225172768E+02 -0.69315765716E+02  0.77517079160E+02  0.51100000000E-03 0.  1.
         11    1    3    3    0    0 -0.57323410023E+01 -0.34225172768E+02  0.37885751996E+02  0.51376574320E+02  0.51100000000E-03 0.  1.
<mgrwt>
<rscale>  0 0.12500291E+03</rscale>
<asrwt>0</asrwt>
<pdfrwt beam="1">  1       21 0.74972032E-02 0.12500291E+03</pdfrwt>
<pdfrwt beam="2">  1       21 0.12332590E-01 0.12500291E+03</pdfrwt>
<totfact> 0.73507701E+06</totfact>
</mgrwt>
</event>
<event>
 5    1  0.1829803E-009  0.1249987E+03  0.7818608E-02  0.1235071E+00
         21   -1    0    0  502  501  0.00000000000E+00  0.00000000000E+00  0.28219653410E+02  0.28219653410E+02  0.00000000000E+00 0. -1.
         21   -1    0    0  501  502 -0.00000000000E+00 -0.00000000000E+00 -0.13842008218E+03  0.13842008218E+03  0.00000000000E+00 0. -1.
         25    2    1    2    0    0  0.00000000000E+00  0.00000000000E+00 -0.11020042877E+03  0.16663973559E+03  0.12499866790E+03 0.  0.
        -11    1    3    3    0    0  0.11894772813E+02  0.59321656941E+02 -0.34206919221E+02  0.69502934652E+02  0.51100000000E-03 0. -1.
         11    1    3    3    0    0 -0.11894772813E+02 -0.59321656941E+02 -0.75993509550E+02  0.97136800938E+02  0.51100000000E-03 0. -1.
<mgrwt>
<rscale>  0 0.12499867E+03</rscale>
<asrwt>0</asrwt>
<pdfrwt beam="1">  1       21 0.43414851E-02 0.12499867E+03</pdfrwt>
<pdfrwt beam="2">  1       21 0.21295397E-01 0.12499867E+03</pdfrwt>
<totfact> 0.68719482E+06</totfact>
</mgrwt>
</event>
<event>
 5    1  0.1829803E-009  0.1249994E+03  0.7818608E-02  0.1235070E+00
         21   -1    0    0  502  501  0.00000000000E+00  0.00000000000E+00  0.48382222601E+03  0.48382222601E+03  0.00000000000E+00 0.  1.
         21   -1    0    0  501  502 -0.00000000000E+00 -0.00000000000E+00 -0.80736543023E+01  0.80736543023E+01  0.00000000000E+00 0.  1.
         25    2    1    2    0    0  0.00000000000E+00  0.00000000000E+00  0.47574857171E+03  0.49189588031E+03  0.12499941434E+03 0.  0.
        -11    1    3    3    0    0 -0.19897947147E+02 -0.58864860134E+02  0.21141375893E+03  0.22035602448E+03  0.51100000000E-03 0.  1.
         11    1    3    3    0    0  0.19897947147E+02  0.58864860134E+02  0.26433481277E+03  0.27153985583E+03  0.51100000000E-03 0.  1.
<mgrwt>
<rscale>  0 0.12499941E+03</rscale>
<asrwt>0</asrwt>
<pdfrwt beam="1">  1       21 0.74434166E-01 0.12499941E+03</pdfrwt>
<pdfrwt beam="2">  1       21 0.12421010E-02 0.12499941E+03</pdfrwt>
<totfact> 0.42487640E+06</totfact>
</mgrwt>
</event>
<event>
 5    1  0.1829803E-009  0.1250042E+03  0.7818608E-02  0.1235063E+00
         21   -1    0    0  502  501  0.00000000000E+00  0.00000000000E+00  0.11426110723E+02  0.11426110723E+02  0.00000000000E+00 0.  1.
         21   -1    0    0  501  502 -0.00000000000E+00 -0.00000000000E+00 -0.34189349652E+03  0.34189349652E+03  0.00000000000E+00 0.  1.
         25    2    1    2    0    0  0.00000000000E+00  0.00000000000E+00 -0.33046738580E+03  0.35331960724E+03  0.12500420707E+03 0.  0.
        -11    1    3    3    0    0  0.57724214685E+02 -0.23556451238E+02 -0.17772191769E+03  0.18834030738E+03  0.51100000000E-03 0.  1.
         11    1    3    3    0    0 -0.57724214685E+02  0.23556451238E+02 -0.15274546810E+03  0.16497929986E+03  0.51100000000E-03 0.  1.
<mgrwt>
<rscale>  0 0.12500421E+03</rscale>
<asrwt>0</asrwt>
<pdfrwt beam="1">  1       21 0.17578633E-02 0.12500421E+03</pdfrwt>
<pdfrwt beam="2">  1       21 0.52598996E-01 0.12500421E+03</pdfrwt>
<totfact> 0.51288797E+06</totfact>
</mgrwt>
</event>
<event>
 5    1  0.1829803E-009  0.1250011E+03  0.7818608E-02  0.1235068E+00
         21   -1    0    0  502  501  0.00000000000E+00  0.00000000000E+00  0.14659270221E+03  0.14659270221E+03  0.00000000000E+00 0.  1.
         21   -1    0    0  501  502 -0.00000000000E+00 -0.00000000000E+00 -0.26647424857E+02  0.26647424857E+02  0.00000000000E+00 0.  1.
         25    2    1    2    0    0  0.00000000000E+00  0.00000000000E+00  0.11994527735E+03  0.17324012706E+03  0.12500108826E+03 0.  0.
        -11    1    3    3    0    0 -0.61909696776E+02  0.85463028541E+01  0.60920917434E+02  0.87276617881E+02  0.51100000000E-03 0. -1.
         11    1    3    3    0    0  0.61909696776E+02 -0.85463028541E+01  0.59024359915E+02  0.85963509183E+02  0.51100000000E-03 0. -1.
<mgrwt>
<rscale>  0 0.12500109E+03</rscale>
<asrwt>0</asrwt>
<pdfrwt beam="1">  1       21 0.22552723E-01 0.12500109E+03</pdfrwt>
<pdfrwt beam="2">  1       21 0.40996039E-02 0.12500109E+03</pdfrwt>
<totfact> 0.67933721E+06</totfact>
</mgrwt>
</event>
<event>
 5    1  0.1829803E-009  0.1249942E+03  0.7818608E-02  0.1235078E+00
         21   -1    0    0  502  501  0.00000000000E+00  0.00000000000E+00  0.33282236152E+02  0.33282236152E+02  0.00000000000E+00 0. -1.
         21   -1    0    0  501  502 -0.00000000000E+00 -0.00000000000E+00 -0.11735656379E+03  0.11735656379E+03  0.00000000000E+00 0. -1.
         25    2    1    2    0    0  0.00000000000E+00  0.00000000000E+00 -0.84074327633E+02  0.15063879994E+03  0.12499422179E+03 0.  0.
        -11    1    3    3    0    0  0.46337551881E+02  0.37358754906E+02 -0.65000040583E+02  0.88135410356E+02  0.51100000000E-03 0.  1.
         11    1    3    3    0    0 -0.46337551881E+02 -0.37358754906E+02 -0.19074287050E+02  0.62503389582E+02  0.51100000000E-03 0.  1.
<mgrwt>
<rscale>  0 0.12499422E+03</rscale>
<asrwt>0</asrwt>
<pdfrwt beam="1">  1       21 0.51203441E-02 0.12499422E+03</pdfrwt>
<pdfrwt beam="2">  1       21 0.18054856E-01 0.12499422E+03</pdfrwt>
<totfact> 0.70689445E+06</totfact>
</mgrwt>
</event>
<event>
 5    1  0.1829803E-009  0.1249993E+03  0.7818608E-02  0.1235070E+00
         21   -1    0    0  502  501  0.00000000000E+00  0.00000000000E+00  0.87704698158E+01  0.87704698158E+01  0.00000000000E+00 0. -1.
         21   -1    0    0  501  502 -0.00000000000E+00 -0.00000000000E+00 -0.44538182110E+03  0.44538182110E+03  0.00000000000E+00 0. -1.
         25    2    1    2    0    0  0.00000000000E+00  0.00000000000E+00 -0.43661135129E+03  0.45415229092E+03  0.12499932509E+03 0.  0.
        -11    1    3    3    0    0  0.51341016105E+02  0.35312086397E+02 -0.20074377527E+03  0.21019254671E+03  0.51100000000E-03 0. -1.
         11    1    3    3    0    0 -0.51341016105E+02 -0.35312086397E+02 -0.23586757601E+03  0.24395974421E+03  0.51100000000E-03 0. -1.
<mgrwt>
<rscale>  0 0.12499933E+03</rscale>
<asrwt>0</asrwt>
<pdfrwt beam="1">  1       21 0.13493033E-02 0.12499933E+03</pdfrwt>
<pdfrwt beam="2">  1       21 0.68520267E-01 0.12499933E+03</pdfrwt>
<totfact> 0.44645599E+06</totfact>
</mgrwt>
</event>
<event>
 5    1  0.1829803E-009  0.1250008E+03  0.7818608E-02  0.1235068E+00
         21   -1    0    0  502  501  0.00000000000E+00  0.00000000000E+00  0.23567055943E+03  0.23567055943E+03  0.00000000000E+00 0. -1.
         21   -1    0    0  501  502 -0.00000000000E+00 -0.00000000000E+00 -0.16575264104E+02  0.16575264104E+02  0.00000000000E+00 0. -1.
         25    2    1    2    0    0  0.00000000000E+00  0.00000000000E+00  0.21909529533E+03  0.25224582354E+03  0.12500082823E+03 0.  0.
        -11    1    3    3    0    0  0.32915219851E+02 -0.43043530063E+02  0.17240112733E+03  0.18071609193E+03  0.51100000000E-03 0. -1.
         11    1    3    3    0    0 -0.32915219851E+02  0.43043530063E+02  0.46694167996E+02  0.71529731604E+02  0.51100000000E-03 0. -1.
<mgrwt>
<rscale>  0 0.12500083E+03</rscale>
<asrwt>0</asrwt>
<pdfrwt beam="1">  1       21 0.36257007E-01 0.12500083E+03</pdfrwt>
<pdfrwt beam="2">  1       21 0.25500408E-02 0.12500083E+03</pdfrwt>
<totfact> 0.59666146E+06</totfact>
</mgrwt>
</event>
<event>
 4    1  0.1829803E-009  0.1240181E+03  0.7818608E-02  0.1236612E+00
         21   -1    0    0  502  501  0.00000000000E+00  0.00000000000E+00  0.20819091467E+03  0.20819091467E+03  0.00000000000E+00 0. -1.
         21   -1    0    0  501  502 -0.00000000000E+00 -0.00000000000E+00 -0.18469202894E+02  0.18469202894E+02  0.00000000000E+00 0. -1.
        -11    1    1    2    0    0  0.33658226510E+02 -0.28712552840E+02  0.15451444436E+02  0.46861861229E+02  0.51100000000E-03 0.  1.
         11    1    1    2    0    0 -0.33658226510E+02  0.28712552840E+02  0.17427026734E+03  0.17979825633E+03  0.51100000000E-03 0.  1.
<mgrwt>
<rscale>  0 0.12401807E+03</rscale>
<asrwt>0</asrwt>
<pdfrwt beam="1">  1       21 0.32029370E-01 0.12401807E+03</pdfrwt>
<pdfrwt beam="2">  1       21 0.28414160E-02 0.12401807E+03</pdfrwt>
<totfact> 0.63713710E+06</totfact>
</mgrwt>
</event>
<event>
 5    1  0.1829803E-009  0.1249958E+03  0.7818608E-02  0.1235076E+00
         21   -1    0    0  502  501  0.00000000000E+00  0.00000000000E+00  0.18030976979E+02  0.18030976979E+02  0.00000000000E+00 0. -1.
         21   -1    0    0  501  502 -0.00000000000E+00 -0.00000000000E+00 -0.21662638388E+03  0.21662638388E+03  0.00000000000E+00 0. -1.
         25    2    1    2    0    0  0.00000000000E+00  0.00000000000E+00 -0.19859540690E+03  0.23465736086E+03  0.12499576538E+03 0.  0.
        -11    1    3    3    0    0 -0.53112011247E+02  0.32225187403E+02 -0.86477240327E+02  0.10647845574E+03  0.51100000000E-03 0. -1.
         11    1    3    3    0    0  0.53112011247E+02 -0.32225187403E+02 -0.11211816658E+03  0.12817890512E+03  0.51100000000E-03 0. -1.
<mgrwt>
<rscale>  0 0.12499577E+03</rscale>
<asrwt>0</asrwt>
<pdfrwt beam="1">  1       21 0.27739967E-02 0.12499577E+03</pdfrwt>
<pdfrwt beam="2">  1       21 0.33327133E-01 0.12499577E+03</pdfrwt>
<totfact> 0.61360081E+06</totfact>
</mgrwt>
</event>
<event>
 5    1  0.1829803E-009  0.1249980E+03  0.7818608E-02  0.1235072E+00
         21   -1    0    0  502  501  0.00000000000E+00  0.00000000000E+00  0.11751408901E+02  0.11751408901E+02  0.00000000000E+00 0.  1.
         21   -1    0    0  501  502 -0.00000000000E+00 -0.00000000000E+00 -0.33239622708E+03  0.33239622708E+03  0.00000000000E+00 0.  1.
         25    2    1    2    0    0  0.00000000000E+00  0.00000000000E+00 -0.32064481818E+03  0.34414763598E+03  0.12499798369E+03 0.  0.
        -11    1    3    3    0    0 -0.50074783296E+02 -0.23989377378E+02 -0.23931406718E+03  0.24567091179E+03  0.51100000000E-03 0.  1.
         11    1    3    3    0    0  0.50074783296E+02  0.23989377378E+02 -0.81330750998E+02  0.98476724190E+02  0.51100000000E-03 0.  1.
<mgrwt>
<rscale>  0 0.12499798E+03</rscale>
<asrwt>0</asrwt>
<pdfrwt beam="1">  1       21 0.18079091E-02 0.12499798E+03</pdfrwt>
<pdfrwt beam="2">  1       21 0.51137879E-01 0.12499798E+03</pdfrwt>
<totfact> 0.51976197E+06</totfact>
</mgrwt>
</event>
<event>
 5    1  0.1829803E-009  0.1250005E+03  0.7818608E-02  0.1235068E+00
         21   -1    0    0  502  501  0.00000000000E+00  0.00000000000E+00  0.32329755753E+02  0.32329755753E+02  0.00000000000E+00 0.  1.
         21   -1    0    0  501  502 -0.00000000000E+00 -0.00000000000E+00 -0.12082619435E+03  0.12082619435E+03  0.00000000000E+00 0.  1.
         25    2    1    2    0    0  0.00000000000E+00  0.00000000000E+00 -0.88496438600E+02  0.15315595011E+03  0.12500050163E+03 0.  0.
        -11    1    3    3    0    0  0.53645474811E+02 -0.29106481480E+02 -0.60743877735E+02  0.86109482140E+02  0.51100000000E-03 0. -1.
         11    1    3    3    0    0 -0.53645474811E+02  0.29106481480E+02 -0.27752560865E+02  0.67046467965E+02  0.51100000000E-03 0. -1.
<mgrwt>
<rscale>  0 0.12500050E+03</rscale>
<asrwt>0</asrwt>
<pdfrwt beam="1">  1       21 0.49738086E-02 0.12500050E+03</pdfrwt>
<pdfrwt beam="2">  1       21 0.18588645E-01 0.12500050E+03</pdfrwt>
<totfact> 0.70364073E+06</totfact>
</mgrwt>
</event>
<event>
 5    1  0.1829803E-009  0.1249996E+03  0.7818608E-02  0.1235070E+00
         21   -1    0    0  502  501  0.00000000000E+00  0.00000000000E+00  0.19494435704E+03  0.19494435704E+03  0.00000000000E+00 0. -1.
         21   -1    0    0  501  502 -0.00000000000E+00 -0.00000000000E+00 -0.20037643642E+02  0.20037643642E+02  0.00000000000E+00 0. -1.
         25    2    1    2    0    0  0.00000000000E+00  0.00000000000E+00  0.17490671340E+03  0.21498200069E+03  0.12499960890E+03 0.  0.
        -11    1    3    3    0    0 -0.57770318536E+02  0.14166483059E+02  0.54455019821E+02  0.80643959042E+02  0.51100000000E-03 0.  1.
         11    1    3    3    0    0  0.57770318536E+02 -0.14166483059E+02  0.12045169358E+03  0.13433804164E+03  0.51100000000E-03 0.  1.
<mgrwt>
<rscale>  0 0.12499961E+03</rscale>
<asrwt>0</asrwt>
<pdfrwt beam="1">  1       21 0.29991438E-01 0.12499961E+03</pdfrwt>
<pdfrwt beam="2">  1       21 0.30827146E-02 0.12499961E+03</pdfrwt>
<totfact> 0.63339781E+06</totfact>
</mgrwt>
</event>
<event>
 5    1  0.1829803E-009  0.1249963E+03  0.7818608E-02  0.1235075E+00
         21   -1    0    0  502  501  0.00000000000E+00  0.00000000000E+00  0.51506006656E+03  0.51506006656E+03  0.00000000000E+00 0.  1.
         21   -1    0    0  501  502 -0.00000000000E+00 -0.00000000000E+00 -0.75836217758E+01  0.75836217758E+01  0.00000000000E+00 0.  1.
         25    2    1    2    0    0  0.00000000000E+00  0.00000000000E+00  0.50747644479E+03  0.52264368834E+03  0.12499633173E+03 0.  0.
        -11    1    3    3    0    0 -0.34870534069E+02 -0.51681867673E+02  0.27198847885E+03  0.27904247386E+03  0.51100000000E-03 0. -1.
         11    1    3    3    0    0  0.34870534069E+02  0.51681867673E+02  0.23548796594E+03  0.24360121448E+03  0.51100000000E-03 0. -1.
<mgrwt>
<rscale>  0 0.12499633E+03</rscale>
<asrwt>0</asrwt>
<pdfrwt beam="1">  1       21 0.79239983E-01 0.12499633E+03</pdfrwt>
<pdfrwt beam="2">  1       21 0.11667114E-02 0.12499633E+03</pdfrwt>
<totfact> 0.40845826E+06</totfact>
</mgrwt>
</event>
<event>
 5    1  0.1829803E-009  0.1250028E+03  0.7818608E-02  0.1235065E+00
         21   -1    0    0  502  501  0.00000000000E+00  0.00000000000E+00  0.12278102516E+03  0.12278102516E+03  0.00000000000E+00 0.  1.
         21   -1    0    0  501  502 -0.00000000000E+00 -0.00000000000E+00 -0.31816185507E+02  0.31816185507E+02  0.00000000000E+00 0.  1.
         25    2    1    2    0    0  0.00000000000E+00  0.00000000000E+00  0.90964839651E+02  0.15459721067E+03  0.12500278194E+03 0.  0.
        -11    1    3    3    0    0 -0.73021707817E+01  0.59612325282E+02  0.24080107238E+02  0.64705506632E+02  0.51100000000E-03 0.  1.
         11    1    3    3    0    0  0.73021707817E+01 -0.59612325282E+02  0.66884732413E+02  0.89891704033E+02  0.51100000000E-03 0.  1.
<mgrwt>
<rscale>  0 0.12500278E+03</rscale>
<asrwt>0</asrwt>
<pdfrwt beam="1">  1       21 0.18889388E-01 0.12500278E+03</pdfrwt>
<pdfrwt beam="2">  1       21 0.48947978E-02 0.12500278E+03</pdfrwt>
<totfact> 0.70180788E+06</totfact>
</mgrwt>
</event>
<event>
 5    1  0.1829803E-009  0.1249999E+03  0.7818608E-02  0.1235070E+00
         21   -1    0    0  502  501  0.00000000000E+00  0.00000000000E+00  0.10860767013E+03  0.10860767013E+03  0.00000000000E+00 0. -1.
         21   -1    0    0  501  502 -0.00000000000E+00 -0.00000000000E+00 -0.35966530522E+02  0.35966530522E+02  0.00000000000E+00 0. -1.
         25    2    1    2    0    0  0.00000000000E+00  0.00000000000E+00  0.72641139609E+02  0.14457420065E+03  0.12499985732E+03 0.  0.
        -11    1    3    3    0    0  0.81146276040E+01  0.17481351163E+02 -0.32443801399E+02  0.37736521688E+02  0.51100000000E-03 0. -1.
         11    1    3    3    0    0 -0.81146276040E+01 -0.17481351163E+02  0.10508494101E+03  0.10683767896E+03  0.51100000000E-03 0. -1.
<mgrwt>
<rscale>  0 0.12499986E+03</rscale>
<asrwt>0</asrwt>
<pdfrwt beam="1">  1       21 0.16708872E-01 0.12499986E+03</pdfrwt>
<pdfrwt beam="2">  1       21 0.55333124E-02 0.12499986E+03</pdfrwt>
<totfact> 0.71447895E+06</totfact>
</mgrwt>
</event>
<event>
 5    1  0.1829803E-009  0.1249964E+03  0.7818608E-02  0.1235075E+00
         21   -1    0    0  502  501  0.00000000000E+00  0.00000000000E+00  0.24763025367E+02  0.24763025367E+02  0.00000000000E+00 0. -1.
         21   -1    0    0  501  502 -0.00000000000E+00 -0.00000000000E+00 -0.15773618253E+03  0.15773618253E+03  0.00000000000E+00 0. -1.
         25    2    1    2    0    0  0.00000000000E+00  0.00000000000E+00 -0.13297315716E+03  0.18249920789E+03  0.12499640138E+03 0.  0.
        -11    1    3    3    0    0 -0.48232453217E+02  0.39579647436E+02 -0.61200714083E+02  0.87398200433E+02  0.51100000000E-03 0. -1.
         11    1    3    3    0    0  0.48232453217E+02 -0.39579647436E+02 -0.71772443078E+02  0.95101007461E+02  0.51100000000E-03 0. -1.
<mgrwt>
<rscale>  0 0.12499640E+03</rscale>
<asrwt>0</asrwt>
<pdfrwt beam="1">  1       21 0.38096963E-02 0.12499640E+03</pdfrwt>
<pdfrwt beam="2">  1       21 0.24267105E-01 0.12499640E+03</pdfrwt>
<totfact> 0.66872088E+06</totfact>
</mgrwt>
</event>
<event>
 5    1  0.1829803E-009  0.1249994E+03  0.7818608E-02  0.1235070E+00
         21   -1    0    0  502  501  0.00000000000E+00  0.00000000000E+00  0.60129498538E+02  0.60129498538E+02  0.00000000000E+00 0. -1.
         21   -1    0    0  501  502 -0.00000000000E+00 -0.00000000000E+00 -0.64963363136E+02  0.64963363136E+02  0.00000000000E+00 0. -1.
         25    2    1    2    0    0  0.00000000000E+00  0.00000000000E+00 -0.48338645979E+01  0.12509286167E+03  0.12499943118E+03 0.  0.
        -11    1    3    3    0    0 -0.33176321138E+02 -0.38237410056E+02  0.34263521601E+02  0.61129017044E+02  0.51100000000E-03 0.  1.
         11    1    3    3    0    0  0.33176321138E+02  0.38237410056E+02 -0.39097386199E+02  0.63963844630E+02  0.51100000000E-03 0.  1.
<mgrwt>
<rscale>  0 0.12499943E+03</rscale>
<asrwt>0</asrwt>
<pdfrwt beam="1">  1       21 0.92506921E-02 0.12499943E+03</pdfrwt>
<pdfrwt beam="2">  1       21 0.99943635E-02 0.12499943E+03</pdfrwt>
<totfact> 0.74032116E+06</totfact>
</mgrwt>
</event>
<event>
 5    1  0.1829803E-009  0.1250025E+03  0.7818608E-02  0.1235065E+00
         21   -1    0    0  502  501  0.00000000000E+00  0.00000000000E+00  0.14588701331E+02  0.14588701331E+02  0.00000000000E+00 0.  1.
         21   -1    0    0  501  502 -0.00000000000E+00 -0.00000000000E+00 -0.26776950725E+03  0.26776950725E+03  0.00000000000E+00 0.  1.
         25    2    1    2    0    0  0.00000000000E+00  0.00000000000E+00 -0.25318080592E+03  0.28235820858E+03  0.12500254984E+03 0.  0.
        -11    1    3    3    0    0 -0.33262089968E+02  0.48632689047E+02 -0.79484168050E+02  0.98940578348E+02  0.51100000000E-03 0.  1.
         11    1    3    3    0    0  0.33262089968E+02 -0.48632689047E+02 -0.17369663787E+03  0.18341763023E+03  0.51100000000E-03 0.  1.
<mgrwt>
<rscale>  0 0.12500255E+03</rscale>
<asrwt>0</asrwt>
<pdfrwt beam="1">  1       21 0.22444156E-02 0.12500255E+03</pdfrwt>
<pdfrwt beam="2">  1       21 0.41195308E-01 0.12500255E+03</pdfrwt>
<totfact> 0.56951248E+06</totfact>
</mgrwt>
</event>
<event>
 5    1  0.1829803E-009  0.1249960E+03  0.7818608E-02  0.1235076E+00
         21   -1    0    0  502  501  0.00000000000E+00  0.00000000000E+00  0.11836771463E+03  0.11836771463E+03  0.00000000000E+00 0. -1.
         21   -1    0    0  501  502 -0.00000000000E+00 -0.00000000000E+00 -0.32998854686E+02  0.32998854686E+02  0.00000000000E+00 0. -1.
         25    2    1    2    0    0  0.00000000000E+00  0.00000000000E+00  0.85368859941E+02  0.15136656931E+03  0.12499598417E+03 0.  0.
        -11    1    3    3    0    0 -0.11073241549E+02 -0.47820117595E+02  0.89532261104E+02  0.10210487796E+03  0.51100000000E-03 0.  1.
         11    1    3    3    0    0  0.11073241549E+02  0.47820117595E+02 -0.41634011635E+01  0.49261691350E+02  0.51100000000E-03 0.  1.
<mgrwt>
<rscale>  0 0.12499598E+03</rscale>
<asrwt>0</asrwt>
<pdfrwt beam="1">  1       21 0.18210417E-01 0.12499598E+03</pdfrwt>
<pdfrwt beam="2">  1       21 0.50767469E-02 0.12499598E+03</pdfrwt>
<totfact> 0.70595170E+06</totfact>
</mgrwt>
</event>
<event>
 5    1  0.1829803E-009  0.1249998E+03  0.7818608E-02  0.1235070E+00
         21   -1    0    0  502  501  0.00000000000E+00  0.00000000000E+00  0.15531629403E+02  0.15531629403E+02  0.00000000000E+00 0.  1.
         21   -1    0    0  501  502 -0.00000000000E+00 -0.00000000000E+00 -0.25150218794E+03  0.25150218794E+03  0.00000000000E+00 0.  1.
         25    2    1    2    0    0  0.00000000000E+00  0.00000000000E+00 -0.23597055853E+03  0.26703381734E+03  0.12499982043E+03 0.  0.
        -11    1    3    3    0    0 -0.23623424598E+02  0.55689751197E+02 -0.15154750414E+03  0.16317493861E+03  0.51100000000E-03 0. -1.
         11    1    3    3    0    0  0.23623424598E+02 -0.55689751197E+02 -0.84423054397E+02  0.10385887873E+03  0.51100000000E-03 0. -1.
<mgrwt>
<rscale>  0 0.12499982E+03</rscale>
<asrwt>0</asrwt>
<pdfrwt beam="1">  1       21 0.23894815E-02 0.12499982E+03</pdfrwt>
<pdfrwt beam="2">  1       21 0.38692643E-01 0.12499982E+03</pdfrwt>
<totfact> 0.58310787E+06</totfact>
</mgrwt>
</event>
<event>
 5    1  0.1829803E-009  0.1249977E+03  0.7818608E-02  0.1235073E+00
         21   -1    0    0  502  501  0.00000000000E+00  0.00000000000E+00  0.85099353368E+02  0.85099353368E+02  0.00000000000E+00 0.  1.
         21   -1    0    0  501  502 -0.00000000000E+00 -0.00000000000E+00 -0.45900523410E+02  0.45900523410E+02  0.00000000000E+00 0.  1.
         25    2    1    2    0    0  0.00000000000E+00  0.00000000000E+00  0.39198829958E+02  0.13099987678E+03  0.12499767776E+03 0.  0.
        -11    1    3    3    0    0  0.43006724237E+02  0.14906596069E+02 -0.25286128113E+02  0.52068927502E+02  0.51100000000E-03 0. -1.
         11    1    3    3    0    0 -0.43006724237E+02 -0.14906596069E+02  0.64484958072E+02  0.78930949277E+02  0.51100000000E-03 0. -1.
<mgrwt>
<rscale>  0 0.12499768E+03</rscale>
<asrwt>0</asrwt>
<pdfrwt beam="1">  1       21 0.13092208E-01 0.12499768E+03</pdfrwt>
<pdfrwt beam="2">  1       21 0.70616190E-02 0.12499768E+03</pdfrwt>
<totfact> 0.73235026E+06</totfact>
</mgrwt>
</event>
<event>
 5    1  0.1829803E-009  0.1250008E+03  0.7818608E-02  0.1235068E+00
         21   -1    0    0  502  501  0.00000000000E+00  0.00000000000E+00  0.18946637214E+03  0.18946637214E+03  0.00000000000E+00 0.  1.
         21   -1    0    0  501  502 -0.00000000000E+00 -0.00000000000E+00 -0.20617384072E+02  0.20617384072E+02  0.00000000000E+00 0.  1.
         25    2    1    2    0    0  0.00000000000E+00  0.00000000000E+00  0.16884898807E+03  0.21008375621E+03  0.12500081541E+03 0.  0.
        -11    1    3    3    0    0 -0.54829700001E+02 -0.25182438775E+02  0.11182747103E+03  0.12706626028E+03  0.51100000000E-03 0.  1.
         11    1    3    3    0    0  0.54829700001E+02  0.25182438775E+02  0.57021517034E+02  0.83017495927E+02  0.51100000000E-03 0.  1.
<mgrwt>
<rscale>  0 0.12500082E+03</rscale>
<asrwt>0</asrwt>
<pdfrwt beam="1">  1       21 0.29148672E-01 0.12500082E+03</pdfrwt>
<pdfrwt beam="2">  1       21 0.31719054E-02 0.12500082E+03</pdfrwt>
<totfact> 0.63849408E+06</totfact>
</mgrwt>
</event>
<event>
 5    1  0.1829803E-009  0.1249985E+03  0.7818608E-02  0.1235072E+00
         21   -1    0    0  502  501  0.00000000000E+00  0.00000000000E+00  0.27277911622E+03  0.27277911622E+03  0.00000000000E+00 0.  1.
         21   -1    0    0  501  502 -0.00000000000E+00 -0.00000000000E+00 -0.14319846772E+02  0.14319846772E+02  0.00000000000E+00 0.  1.
         25    2    1    2    0    0  0.00000000000E+00  0.00000000000E+00  0.25845926945E+03  0.28709896299E+03  0.12499848234E+03 0.  0.
        -11    1    3    3    0    0 -0.21529010737E+02  0.55046406860E+02  0.17588108455E+03  0.18554719377E+03  0.51100000000E-03 0. -1.
         11    1    3    3    0    0  0.21529010737E+02 -0.55046406860E+02  0.82578184894E+02  0.10155176922E+03  0.51100000000E-03 0. -1.
<mgrwt>
<rscale>  0 0.12499848E+03</rscale>
<asrwt>0</asrwt>
<pdfrwt beam="1">  1       21 0.41966014E-01 0.12499848E+03</pdfrwt>
<pdfrwt beam="2">  1       21 0.22030535E-02 0.12499848E+03</pdfrwt>
<totfact> 0.56547796E+06</totfact>
</mgrwt>
</event>
<event>
 5    1  0.1829803E-009  0.1249968E+03  0.7818608E-02  0.1235074E+00
         21   -1    0    0  502  501  0.00000000000E+00  0.00000000000E+00  0.17894695407E+02  0.17894695407E+02  0.00000000000E+00 0.  1.
         21   -1    0    0  501  502 -0.00000000000E+00 -0.00000000000E+00 -0.21827991373E+03  0.21827991373E+03  0.00000000000E+00 0.  1.
         25    2    1    2    0    0  0.00000000000E+00  0.00000000000E+00 -0.20038521832E+03  0.23617460914E+03  0.12499684107E+03 0.  0.
        -11    1    3    3    0    0 -0.61711526452E+02  0.88094933457E+01 -0.91714727916E+02  0.11089414316E+03  0.51100000000E-03 0.  1.
         11    1    3    3    0    0  0.61711526452E+02 -0.88094933457E+01 -0.10867049041E+03  0.12528046598E+03  0.51100000000E-03 0.  1.
<mgrwt>
<rscale>  0 0.12499684E+03</rscale>
<asrwt>0</asrwt>
<pdfrwt beam="1">  1       21 0.27530299E-02 0.12499684E+03</pdfrwt>
<pdfrwt beam="2">  1       21 0.33581527E-01 0.12499684E+03</pdfrwt>
<totfact> 0.61209691E+06</totfact>
</mgrwt>
</event>
<event>
 5    1  0.1829803E-009  0.1249995E+03  0.7818608E-02  0.1235070E+00
         21   -1    0    0  502  501  0.00000000000E+00  0.00000000000E+00  0.43611562419E+03  0.43611562419E+03  0.00000000000E+00 0. -1.
         21   -1    0    0  501  502 -0.00000000000E+00 -0.00000000000E+00 -0.89568448744E+01  0.89568448744E+01  0.00000000000E+00 0. -1.
         25    2    1    2    0    0  0.00000000000E+00  0.00000000000E+00  0.42715877932E+03  0.44507246907E+03  0.12499951989E+03 0.  0.
        -11    1    3    3    0    0  0.63421328498E+01  0.53903615185E+02  0.10323559319E+03  0.11663365759E+03  0.51100000000E-03 0. -1.
         11    1    3    3    0    0 -0.63421328498E+01 -0.53903615185E+02  0.32392318612E+03  0.32843881148E+03  0.51100000000E-03 0. -1.
<mgrwt>
<rscale>  0 0.12499952E+03</rscale>
<asrwt>0</asrwt>
<pdfrwt beam="1">  1       21 0.67094695E-01 0.12499952E+03</pdfrwt>
<pdfrwt beam="2">  1       21 0.13779765E-02 0.12499952E+03</pdfrwt>
<totfact> 0.45189143E+06</totfact>
</mgrwt>
</event>
<event>
 5    1  0.1829803E-009  0.1250029E+03  0.7818608E-02  0.1235065E+00
         21   -1    0    0  502  501  0.00000000000E+00  0.00000000000E+00  0.31712372894E+03  0.31712372894E+03  0.00000000000E+00 0.  1.
         21   -1    0    0  501  502 -0.00000000000E+00 -0.00000000000E+00 -0.12318327778E+02  0.12318327778E+02  0.00000000000E+00 0.  1.
         25    2    1    2    0    0  0.00000000000E+00  0.00000000000E+00  0.30480540116E+03  0.32944205672E+03  0.12500294459E+03 0.  0.
        -11    1    3    3    0    0  0.59497972678E+02 -0.18967322821E+02  0.15920710101E+03  0.17101657551E+03  0.51100000000E-03 0.  1.
         11    1    3    3    0    0 -0.59497972678E+02  0.18967322821E+02  0.14559830015E+03  0.15842548121E+03  0.51100000000E-03 0.  1.
<mgrwt>
<rscale>  0 0.12500294E+03</rscale>
<asrwt>0</asrwt>
<pdfrwt beam="1">  1       21 0.48788260E-01 0.12500294E+03</pdfrwt>
<pdfrwt beam="2">  1       21 0.18951276E-02 0.12500294E+03</pdfrwt>
<totfact> 0.53089571E+06</totfact>
</mgrwt>
</event>
<event>
 5    1  0.1829803E-009  0.1250050E+03  0.7818608E-02  0.1235061E+00
         21   -1    0    0  502  501  0.00000000000E+00  0.00000000000E+00  0.25233269833E+03  0.25233269833E+03  0.00000000000E+00 0. -1.
         21   -1    0    0  501  502 -0.00000000000E+00 -0.00000000000E+00 -0.15481794902E+02  0.15481794902E+02  0.00000000000E+00 0. -1.
         25    2    1    2    0    0  0.00000000000E+00  0.00000000000E+00  0.23685090343E+03  0.26781449323E+03  0.12500500922E+03 0.  0.
        -11    1    3    3    0    0  0.16839336241E+02 -0.52417916233E+02  0.55038410787E+02  0.77848749826E+02  0.51100000000E-03 0. -1.
         11    1    3    3    0    0 -0.16839336241E+02  0.52417916233E+02  0.18181249264E+03  0.18996574340E+03  0.51100000000E-03 0. -1.
<mgrwt>
<rscale>  0 0.12500501E+03</rscale>
<asrwt>0</asrwt>
<pdfrwt beam="1">  1       21 0.38820412E-01 0.12500501E+03</pdfrwt>
<pdfrwt beam="2">  1       21 0.23818148E-02 0.12500501E+03</pdfrwt>
<totfact> 0.58233009E+06</totfact>
</mgrwt>
</event>
<event>
 5    1  0.1829803E-009  0.1249973E+03  0.7818608E-02  0.1235074E+00
         21   -1    0    0  502  501  0.00000000000E+00  0.00000000000E+00  0.73863096229E+02  0.73863096229E+02  0.00000000000E+00 0.  1.
         21   -1    0    0  501  502 -0.00000000000E+00 -0.00000000000E+00 -0.52882684650E+02  0.52882684650E+02  0.00000000000E+00 0.  1.
         25    2    1    2    0    0  0.00000000000E+00  0.00000000000E+00  0.20980411579E+02  0.12674578088E+03  0.12499726117E+03 0.  0.
        -11    1    3    3    0    0  0.39986554074E+02 -0.28038691069E+02  0.50035575471E+02  0.69918892415E+02  0.51100000000E-03 0.  1.
         11    1    3    3    0    0 -0.39986554074E+02  0.28038691069E+02 -0.29055163892E+02  0.56826888465E+02  0.51100000000E-03 0.  1.
<mgrwt>
<rscale>  0 0.12499726E+03</rscale>
<asrwt>0</asrwt>
<pdfrwt beam="1">  1       21 0.11363553E-01 0.12499726E+03</pdfrwt>
<pdfrwt beam="2">  1       21 0.81357976E-02 0.12499726E+03</pdfrwt>
<totfact> 0.73808945E+06</totfact>
</mgrwt>
</event>
<event>
 5    1  0.1829803E-009  0.1250003E+03  0.7818608E-02  0.1235069E+00
         21   -1    0    0  502  501  0.00000000000E+00  0.00000000000E+00  0.15169005343E+02  0.15169005343E+02  0.00000000000E+00 0.  1.
         21   -1    0    0  501  502 -0.00000000000E+00 -0.00000000000E+00 -0.25751650377E+03  0.25751650377E+03  0.00000000000E+00 0.  1.
         25    2    1    2    0    0  0.00000000000E+00  0.00000000000E+00 -0.24234749843E+03  0.27268550911E+03  0.12500030755E+03 0.  0.
        -11    1    3    3    0    0 -0.46480620640E+02 -0.41750160678E+02 -0.12478817020E+03  0.13955504804E+03  0.51100000000E-03 0.  1.
         11    1    3    3    0    0  0.46480620640E+02  0.41750160678E+02 -0.11755932822E+03  0.13313046107E+03  0.51100000000E-03 0.  1.
<mgrwt>
<rscale>  0 0.12500031E+03</rscale>
<asrwt>0</asrwt>
<pdfrwt beam="1">  1       21 0.23336931E-02 0.12500031E+03</pdfrwt>
<pdfrwt beam="2">  1       21 0.39617923E-01 0.12500031E+03</pdfrwt>
<totfact> 0.57804900E+06</totfact>
</mgrwt>
</event>
<event>
 5    1  0.1829803E-009  0.1249988E+03  0.7818608E-02  0.1235071E+00
         21   -1    0    0  502  501  0.00000000000E+00  0.00000000000E+00  0.81324533690E+02  0.81324533690E+02  0.00000000000E+00 0.  1.
         21   -1    0    0  501  502 -0.00000000000E+00 -0.00000000000E+00 -0.48031931781E+02  0.48031931781E+02  0.00000000000E+00 0.  1.
         25    2    1    2    0    0  0.00000000000E+00  0.00000000000E+00  0.33292601909E+02  0.12935646547E+03  0.12499879126E+03 0.  0.
        -11    1    3    3    0    0 -0.27895997097E+02 -0.46083045027E+02 -0.16149849602E+02  0.56237454916E+02  0.51100000000E-03 0.  1.
         11    1    3    3    0    0  0.27895997097E+02  0.46083045027E+02  0.49442451510E+02  0.73119010556E+02  0.51100000000E-03 0.  1.
<mgrwt>
<rscale>  0 0.12499879E+03</rscale>
<asrwt>0</asrwt>
<pdfrwt beam="1">  1       21 0.12511467E-01 0.12499879E+03</pdfrwt>
<pdfrwt beam="2">  1       21 0.73895280E-02 0.12499879E+03</pdfrwt>
<totfact> 0.73453318E+06</totfact>
</mgrwt>
</event>
<event>
 5    1  0.1829803E-009  0.1249994E+03  0.7818608E-02  0.1235070E+00
         21   -1    0    0  502  501  0.00000000000E+00  0.00000000000E+00  0.90659766787E+02  0.90659766787E+02  0.00000000000E+00 0.  1.
         21   -1    0    0  501  502 -0.00000000000E+00 -0.00000000000E+00 -0.43086514164E+02  0.43086514164E+02  0.00000000000E+00 0.  1.
         25    2    1    2    0    0  0.00000000000E+00  0.00000000000E+00  0.47573252623E+02  0.13374628095E+03  0.12499941321E+03 0.  0.
        -11    1    3    3    0    0 -0.32887182082E+02 -0.29183366971E+02 -0.23739763471E+02  0.49968110060E+02  0.51100000000E-03 0.  1.
         11    1    3    3    0    0  0.32887182082E+02  0.29183366971E+02  0.71313016094E+02  0.83778170890E+02  0.51100000000E-03 0.  1.
<mgrwt>
<rscale>  0 0.12499941E+03</rscale>
<asrwt>0</asrwt>
<pdfrwt beam="1">  1       21 0.13947656E-01 0.12499941E+03</pdfrwt>
<pdfrwt beam="2">  1       21 0.66286945E-02 0.12499941E+03</pdfrwt>
<totfact> 0.72863996E+06</totfact>
</mgrwt>
</event>
<event>
 5    1  0.1829803E-009  0.1250000E+03  0.7818608E-02  0.1235069E+00
         21   -1    0    0  502  501  0.00000000000E+00  0.00000000000E+00  0.14167644233E+02  0.14167644233E+02  0.00000000000E+00 0. -1.
         21   -1    0    0  501  502 -0.00000000000E+00 -0.00000000000E+00 -0.27571641074E+03  0.27571641074E+03  0.00000000000E+00 0. -1.
         25    2    1    2    0    0  0.00000000000E+00  0.00000000000E+00 -0.26154876650E+03  0.28988405497E+03  0.12500003227E+03 0.  0.
        -11    1    3    3    0    0 -0.25081173182E+02  0.56838373031E+02 -0.14660298200E+03  0.15922342864E+03  0.51100000000E-03 0. -1.
         11    1    3    3    0    0  0.25081173182E+02 -0.56838373031E+02 -0.11494578450E+03  0.13066062632E+03  0.51100000000E-03 0. -1.
<mgrwt>
<rscale>  0 0.12500003E+03</rscale>
<asrwt>0</asrwt>
<pdfrwt beam="1">  1       21 0.21796377E-02 0.12500003E+03</pdfrwt>
<pdfrwt beam="2">  1       21 0.42417907E-01 0.12500003E+03</pdfrwt>
<totfact> 0.56307422E+06</totfact>
</mgrwt>
</event>
<event>
 5    1  0.1829803E-009  0.1249970E+03  0.7818608E-02  0.1235074E+00
         21   -1    0    0  502  501  0.00000000000E+00  0.00000000000E+00  0.85207581836E+02  0.85207581836E+02  0.00000000000E+00 0. -1.
         21   -1    0    0  501  502 -0.00000000000E+00 -0.00000000000E+00 -0.45841710840E+02  0.45841710840E+02  0.00000000000E+00 0. -1.
         25    2    1    2    0    0  0.00000000000E+00  0.00000000000E+00  0.39365870995E+02  0.13104929268E+03  0.12499698121E+03 0.  0.
        -11    1    3    3    0    0  0.31339569773E+02 -0.41536481503E+02  0.55980268910E+02  0.76427995112E+02  0.51100000000E-03 0.  1.
         11    1    3    3    0    0 -0.31339569773E+02  0.41536481503E+02 -0.16614397915E+02  0.54621297564E+02  0.51100000000E-03 0.  1.
<mgrwt>
<rscale>  0 0.12499698E+03</rscale>
<asrwt>0</asrwt>
<pdfrwt beam="1">  1       21 0.13108859E-01 0.12499698E+03</pdfrwt>
<pdfrwt beam="2">  1       21 0.70525709E-02 0.12499698E+03</pdfrwt>
<totfact> 0.73229669E+06</totfact>
</mgrwt>
</event>
<event>
 5    1  0.1829803E-009  0.1249984E+03  0.7818608E-02  0.1235072E+00
         21   -1    0    0  502  501  0.00000000000E+00  0.00000000000E+00  0.51739882629E+03  0.51739882629E+03  0.00000000000E+00 0.  1.
         21   -1    0    0  501  502 -0.00000000000E+00 -0.00000000000E+00 -0.75495944268E+01  0.75495944268E+01  0.00000000000E+00 0.  1.
         25    2    1    2    0    0  0.00000000000E+00  0.00000000000E+00  0.50984923186E+03  0.52494842072E+03  0.12499842072E+03 0.  0.
        -11    1    3    3    0    0  0.17437778857E+02  0.56841656597E+02  0.17402279260E+03  0.18389938119E+03  0.51100000000E-03 0.  1.
         11    1    3    3    0    0 -0.17437778857E+02 -0.56841656597E+02  0.33582643926E+03  0.34104903953E+03  0.51100000000E-03 0.  1.
<mgrwt>
<rscale>  0 0.12499842E+03</rscale>
<asrwt>0</asrwt>
<pdfrwt beam="1">  1       21 0.79599792E-01 0.12499842E+03</pdfrwt>
<pdfrwt beam="2">  1       21 0.11614765E-02 0.12499842E+03</pdfrwt>
<totfact> 0.40724206E+06</totfact>
</mgrwt>
</event>
<event>
 5    1  0.1829803E-009  0.1250006E+03  0.7818608E-02  0.1235068E+00
         21   -1    0    0  502  501  0.00000000000E+00  0.00000000000E+00  0.23377921730E+02  0.23377921730E+02  0.00000000000E+00 0.  1.
         21   -1    0    0  501  502 -0.00000000000E+00 -0.00000000000E+00 -0.16709314302E+03  0.16709314302E+03  0.00000000000E+00 0.  1.
         25    2    1    2    0    0  0.00000000000E+00  0.00000000000E+00 -0.14371522129E+03  0.19047106475E+03  0.12500064670E+03 0.  0.
        -11    1    3    3    0    0  0.32239237932E+02 -0.49974551555E+02 -0.42568641999E+02  0.73136266978E+02  0.51100000000E-03 0.  1.
         11    1    3    3    0    0 -0.32239237932E+02  0.49974551555E+02 -0.10114657929E+03  0.11733479777E+03  0.51100000000E-03 0.  1.
<mgrwt>
<rscale>  0 0.12500065E+03</rscale>
<asrwt>0</asrwt>
<pdfrwt beam="1">  1       21 0.35966034E-02 0.12500065E+03</pdfrwt>
<pdfrwt beam="2">  1       21 0.25706637E-01 0.12500065E+03</pdfrwt>
<totfact> 0.65969067E+06</totfact>
</mgrwt>
</event>
<event>
 5    1  0.1829803E-009  0.1250008E+03  0.7818608E-02  0.1235068E+00
         21   -1    0    0  502  501  0.00000000000E+00  0.00000000000E+00  0.89050991232E+02  0.89050991232E+02  0.00000000000E+00 0.  1.
         21   -1    0    0  501  502 -0.00000000000E+00 -0.00000000000E+00 -0.43865908303E+02  0.43865908303E+02  0.00000000000E+00 0.  1.
         25    2    1    2    0    0  0.00000000000E+00  0.00000000000E+00  0.45185082929E+02  0.13291689953E+03  0.12500084185E+03 0.  0.
        -11    1    3    3    0    0 -0.29208388625E+02  0.17994594538E+02  0.78144356066E+02  0.85343282008E+02  0.51100000000E-03 0.  1.
         11    1    3    3    0    0  0.29208388625E+02 -0.17994594538E+02 -0.32959273137E+02  0.47573617527E+02  0.51100000000E-03 0.  1.
<mgrwt>
<rscale>  0 0.12500084E+03</rscale>
<asrwt>0</asrwt>
<pdfrwt beam="1">  1       21 0.13700152E-01 0.12500084E+03</pdfrwt>
<pdfrwt beam="2">  1       21 0.67486013E-02 0.12500084E+03</pdfrwt>
<totfact> 0.72971930E+06</totfact>
</mgrwt>
</event>
<event>
 5    1  0.1829803E-009  0.1249893E+03  0.7818608E-02  0.1235086E+00
         21   -1    0    0  502  501  0.00000000000E+00  0.00000000000E+00  0.20730774470E+03  0.20730774470E+03  0.00000000000E+00 0. -1.
         21   -1    0    0  501  502 -0.00000000000E+00 -0.00000000000E+00 -0.18839536014E+02  0.18839536014E+02  0.00000000000E+00 0. -1.
         25    2    1    2    0    0  0.00000000000E+00  0.00000000000E+00  0.18846820868E+03  0.22614728071E+03  0.12498930710E+03 0.  0.
        -11    1    3    3    0    0 -0.36720773834E+02  0.13944735205E+02  0.18218166484E+03  0.18636799584E+03  0.51100000000E-03 0. -1.
         11    1    3    3    0    0  0.36720773834E+02 -0.13944735205E+02  0.62865438454E+01  0.39779284869E+02  0.51100000000E-03 0. -1.
<mgrwt>
<rscale>  0 0.12498931E+03</rscale>
<asrwt>0</asrwt>
<pdfrwt beam="1">  1       21 0.31893498E-01 0.12498931E+03</pdfrwt>
<pdfrwt beam="2">  1       21 0.28983903E-02 0.12498931E+03</pdfrwt>
<totfact> 0.62216292E+06</totfact>
</mgrwt>
</event>
<event>
 5    1  0.1829803E-009  0.1249990E+03  0.7818608E-02  0.1235071E+00
         21   -1    0    0  502  501  0.00000000000E+00  0.00000000000E+00  0.13211072974E+03  0.13211072974E+03  0.00000000000E+00 0. -1.
         21   -1    0    0  501  502 -0.00000000000E+00 -0.00000000000E+00 -0.29567515816E+02  0.29567515816E+02  0.00000000000E+00 0. -1.
         25    2    1    2    0    0  0.00000000000E+00  0.00000000000E+00  0.10254321392E+03  0.16167824556E+03  0.12499897745E+03 0.  0.
        -11    1    3    3    0    0  0.50586759249E+02  0.31975121334E+02  0.27962549150E+02  0.66055527784E+02  0.51100000000E-03 0.  1.
         11    1    3    3    0    0 -0.50586759249E+02 -0.31975121334E+02  0.74580664773E+02  0.95622717771E+02  0.51100000000E-03 0.  1.
<mgrwt>
<rscale>  0 0.12499898E+03</rscale>
<asrwt>0</asrwt>
<pdfrwt beam="1">  1       21 0.20324727E-01 0.12499898E+03</pdfrwt>
<pdfrwt beam="2">  1       21 0.45488487E-02 0.12499898E+03</pdfrwt>
<totfact> 0.69316814E+06</totfact>
</mgrwt>
</event>
<event>
 5    1  0.1829803E-009  0.1249997E+03  0.7818608E-02  0.1235070E+00
         21   -1    0    0  502  501  0.00000000000E+00  0.00000000000E+00  0.69309552705E+02  0.69309552705E+02  0.00000000000E+00 0.  1.
         21   -1    0    0  501  502 -0.00000000000E+00 -0.00000000000E+00 -0.56359184674E+02  0.56359184674E+02  0.00000000000E+00 0.  1.
         25    2    1    2    0    0  0.00000000000E+00  0.00000000000E+00  0.12950368032E+02  0.12566873738E+03  0.12499967809E+03 0.  0.
        -11    1    3    3    0    0  0.42418935542E+01  0.27435913206E+02  0.62770496806E+02  0.68635692347E+02  0.51100000000E-03 0.  1.
         11    1    3    3    0    0 -0.42418935542E+01 -0.27435913206E+02 -0.49820128774E+02  0.57033045032E+02  0.51100000000E-03 0.  1.
<mgrwt>
<rscale>  0 0.12499968E+03</rscale>
<asrwt>0</asrwt>
<pdfrwt beam="1">  1       21 0.10663008E-01 0.12499968E+03</pdfrwt>
<pdfrwt beam="2">  1       21 0.86706438E-02 0.12499968E+03</pdfrwt>
<totfact> 0.73952487E+06</totfact>
</mgrwt>
</event>
<event>
 5    1  0.1829803E-009  0.1250037E+03  0.7818608E-02  0.1235064E+00
         21   -1    0    0  502  501  0.00000000000E+00  0.00000000000E+00  0.10335516364E+03  0.10335516364E+03  0.00000000000E+00 0. -1.
         21   -1    0    0  501  502 -0.00000000000E+00 -0.00000000000E+00 -0.37796670013E+02  0.37796670013E+02  0.00000000000E+00 0. -1.
         25    2    1    2    0    0  0.00000000000E+00  0.00000000000E+00  0.65558493626E+02  0.14115183365E+03  0.12500369617E+03 0.  0.
        -11    1    3    3    0    0  0.76583734800E+01 -0.41976905264E+02 -0.18790720051E+02  0.46624054094E+02  0.51100000000E-03 0. -1.
         11    1    3    3    0    0 -0.76583734800E+01  0.41976905264E+02  0.84349213677E+02  0.94527779557E+02  0.51100000000E-03 0. -1.
<mgrwt>
<rscale>  0 0.12500370E+03</rscale>
<asrwt>0</asrwt>
<pdfrwt beam="1">  1       21 0.15900794E-01 0.12500370E+03</pdfrwt>
<pdfrwt beam="2">  1       21 0.58148724E-02 0.12500370E+03</pdfrwt>
<totfact> 0.71882525E+06</totfact>
</mgrwt>
</event>
<event>
 5    1  0.1829803E-009  0.1249996E+03  0.7818608E-02  0.1235070E+00
         21   -1    0    0  502  501  0.00000000000E+00  0.00000000000E+00  0.42849371593E+02  0.42849371593E+02  0.00000000000E+00 0.  1.
         21   -1    0    0  501  502 -0.00000000000E+00 -0.00000000000E+00 -0.91161784184E+02  0.91161784184E+02  0.00000000000E+00 0.  1.
         25    2    1    2    0    0  0.00000000000E+00  0.00000000000E+00 -0.48312412590E+02  0.13401115578E+03  0.12499960265E+03 0.  0.
        -11    1    3    3    0    0  0.63213820763E+01  0.56933425027E+02  0.26429023533E+01  0.57344221067E+02  0.51100000000E-03 0.  1.
         11    1    3    3    0    0 -0.63213820763E+01 -0.56933425027E+02 -0.50955314944E+02  0.76666934711E+02  0.51100000000E-03 0.  1.
<mgrwt>
<rscale>  0 0.12499960E+03</rscale>
<asrwt>0</asrwt>
<pdfrwt beam="1">  1       21 0.65922110E-02 0.12499960E+03</pdfrwt>
<pdfrwt beam="2">  1       21 0.14024890E-01 0.12499960E+03</pdfrwt>
<totfact> 0.72828408E+06</totfact>
</mgrwt>
</event>
<event>
 5    1  0.1829803E-009  0.1250000E+03  0.7818608E-02  0.1235069E+00
         21   -1    0    0  502  501  0.00000000000E+00  0.00000000000E+00  0.12488451434E+03  0.12488451434E+03  0.00000000000E+00 0. -1.
         21   -1    0    0  501  502 -0.00000000000E+00 -0.00000000000E+00 -0.31278915702E+02  0.31278915702E+02  0.00000000000E+00 0. -1.
         25    2    1    2    0    0  0.00000000000E+00  0.00000000000E+00  0.93605598633E+02  0.15616343004E+03  0.12500003514E+03 0.  0.
        -11    1    3    3    0    0 -0.60849740565E+02 -0.97469195678E+01  0.33786072875E+02  0.70279385943E+02  0.51100000000E-03 0.  1.
         11    1    3    3    0    0  0.60849740565E+02  0.97469195678E+01  0.59819525758E+02  0.85884044095E+02  0.51100000000E-03 0.  1.
<mgrwt>
<rscale>  0 0.12500004E+03</rscale>
<asrwt>0</asrwt>
<pdfrwt beam="1">  1       21 0.19213002E-01 0.12500004E+03</pdfrwt>
<pdfrwt beam="2">  1       21 0.48121409E-02 0.12500004E+03</pdfrwt>
<totfact> 0.69991285E+06</totfact>
</mgrwt>
</event>
<event>
 5    1  0.1829803E-009  0.1249997E+03  0.7818608E-02  0.1235070E+00
         21   -1    0    0  502  501  0.00000000000E+00  0.00000000000E+00  0.28586522337E+03  0.28586522337E+03  0.00000000000E+00 0.  1.
         21   -1    0    0  501  502 -0.00000000000E+00 -0.00000000000E+00 -0.13664589396E+02  0.13664589396E+02  0.00000000000E+00 0.  1.
         25    2    1    2    0    0  0.00000000000E+00  0.00000000000E+00  0.27220063398E+03  0.29952981277E+03  0.12499969440E+03 0.  0.
        -11    1    3    3    0    0  0.55452054216E+02  0.64276410541E+01  0.68749819984E+02  0.88559486417E+02  0.51100000000E-03 0. -1.
         11    1    3    3    0    0 -0.55452054216E+02 -0.64276410541E+01  0.20345081399E+03  0.21097032635E+03  0.51100000000E-03 0. -1.
<mgrwt>
<rscale>  0 0.12499969E+03</rscale>
<asrwt>0</asrwt>
<pdfrwt beam="1">  1       21 0.43979261E-01 0.12499969E+03</pdfrwt>
<pdfrwt beam="2">  1       21 0.21022447E-02 0.12499969E+03</pdfrwt>
<totfact> 0.55495699E+06</totfact>
</mgrwt>
</event>
<event>
 5    1  0.1829803E-009  0.1250002E+03  0.7818608E-02  0.1235069E+00
         21   -1    0    0  502  501  0.00000000000E+00  0.00000000000E+00  0.85447092603E+02  0.85447092603E+02  0.00000000000E+00 0. -1.
         21   -1    0    0  501  502 -0.00000000000E+00 -0.00000000000E+00 -0.45715580713E+02  0.45715580713E+02  0.00000000000E+00 0. -1.
         25    2    1    2    0    0  0.00000000000E+00  0.00000000000E+00  0.39731511891E+02  0.13116267332E+03  0.12500021534E+03 0.  0.
        -11    1    3    3    0    0 -0.17908720135E+02  0.36571157931E+02  0.69617292798E+02  0.80651964056E+02  0.51100000000E-03 0. -1.
         11    1    3    3    0    0  0.17908720135E+02 -0.36571157931E+02 -0.29885780907E+02  0.50510709260E+02  0.51100000000E-03 0. -1.
<mgrwt>
<rscale>  0 0.12500022E+03</rscale>
<asrwt>0</asrwt>
<pdfrwt beam="1">  1       21 0.13145707E-01 0.12500022E+03</pdfrwt>
<pdfrwt beam="2">  1       21 0.70331663E-02 0.12500022E+03</pdfrwt>
<totfact> 0.73208356E+06</totfact>
</mgrwt>
</event>
<event>
 5    1  0.1829803E-009  0.1250039E+03  0.7818608E-02  0.1235063E+00
         21   -1    0    0  502  501  0.00000000000E+00  0.00000000000E+00  0.22135127735E+03  0.22135127735E+03  0.00000000000E+00 0. -1.
         21   -1    0    0  501  502 -0.00000000000E+00 -0.00000000000E+00 -0.17648387047E+02  0.17648387047E+02  0.00000000000E+00 0. -1.
         25    2    1    2    0    0  0.00000000000E+00  0.00000000000E+00  0.20370289030E+03  0.23899966439E+03  0.12500388819E+03 0.  0.
        -11    1    3    3    0    0 -0.44523281752E+02  0.28581652841E+02  0.38230739683E+02  0.65274979541E+02  0.51100000000E-03 0. -1.
         11    1    3    3    0    0  0.44523281752E+02 -0.28581652841E+02  0.16547215062E+03  0.17372468485E+03  0.51100000000E-03 0. -1.
<mgrwt>
<rscale>  0 0.12500389E+03</rscale>
<asrwt>0</asrwt>
<pdfrwt beam="1">  1       21 0.34054041E-01 0.12500389E+03</pdfrwt>
<pdfrwt beam="2">  1       21 0.27151366E-02 0.12500389E+03</pdfrwt>
<totfact> 0.60923622E+06</totfact>
</mgrwt>
</event>
<event>
 5    1  0.1829803E-009  0.1250337E+03  0.7818608E-02  0.1235017E+00
         21   -1    0    0  502  501  0.00000000000E+00  0.00000000000E+00  0.13899614477E+03  0.13899614477E+03  0.00000000000E+00 0.  1.
         21   -1    0    0  501  502 -0.00000000000E+00 -0.00000000000E+00 -0.28118444321E+02  0.28118444321E+02  0.00000000000E+00 0.  1.
         25    2    1    2    0    0  0.00000000000E+00  0.00000000000E+00  0.11087770045E+03  0.16711458910E+03  0.12503368119E+03 0.  0.
        -11    1    3    3    0    0 -0.39118974266E+02 -0.38420296473E+02  0.95578784784E+02  0.11018946152E+03  0.51100000000E-03 0.  1.
         11    1    3    3    0    0  0.39118974266E+02  0.38420296473E+02  0.15298915668E+02  0.56925127577E+02  0.51100000000E-03 0.  1.
<mgrwt>
<rscale>  0 0.12503368E+03</rscale>
<asrwt>0</asrwt>
<pdfrwt beam="1">  1       21 0.21384022E-01 0.12503368E+03</pdfrwt>
<pdfrwt beam="2">  1       21 0.43259146E-02 0.12503368E+03</pdfrwt>
<totfact> 0.68601730E+06</totfact>
</mgrwt>
</event>
<event>
 5    1  0.1829803E-009  0.1250061E+03  0.7818608E-02  0.1235060E+00
         21   -1    0    0  502  501  0.00000000000E+00  0.00000000000E+00  0.87808010908E+02  0.87808010908E+02  0.00000000000E+00 0. -1.
         21   -1    0    0  501  502 -0.00000000000E+00 -0.00000000000E+00 -0.44490610462E+02  0.44490610462E+02  0.00000000000E+00 0. -1.
         25    2    1    2    0    0  0.00000000000E+00  0.00000000000E+00  0.43317400445E+02  0.13229862137E+03  0.12500611199E+03 0.  0.
        -11    1    3    3    0    0  0.39664400770E+02  0.45440597893E+02  0.43161927081E+01  0.60471002514E+02  0.51100000000E-03 0.  1.
         11    1    3    3    0    0 -0.39664400770E+02 -0.45440597893E+02  0.39001207737E+02  0.71827618856E+02  0.51100000000E-03 0.  1.
<mgrwt>
<rscale>  0 0.12500611E+03</rscale>
<asrwt>0</asrwt>
<pdfrwt beam="1">  1       21 0.13508925E-01 0.12500611E+03</pdfrwt>
<pdfrwt beam="2">  1       21 0.68447093E-02 0.12500611E+03</pdfrwt>
<totfact> 0.73044812E+06</totfact>
</mgrwt>
</event>
<event>
 5    1  0.1829803E-009  0.1250356E+03  0.7818608E-02  0.1235014E+00
         21   -1    0    0  502  501  0.00000000000E+00  0.00000000000E+00  0.37717527495E+02  0.37717527495E+02  0.00000000000E+00 0. -1.
         21   -1    0    0  501  502 -0.00000000000E+00 -0.00000000000E+00 -0.10362498957E+03  0.10362498957E+03  0.00000000000E+00 0. -1.
         25    2    1    2    0    0  0.00000000000E+00  0.00000000000E+00 -0.65907462079E+02  0.14134251707E+03  0.12503564921E+03 0.  0.
        -11    1    3    3    0    0 -0.99938517659E+01  0.54411496645E+02 -0.65871805516E+02  0.86020827725E+02  0.51100000000E-03 0.  1.
         11    1    3    3    0    0  0.99938517659E+01 -0.54411496645E+02 -0.35656563405E-01  0.55321689344E+02  0.51100000000E-03 0.  1.
<mgrwt>
<rscale>  0 0.12503565E+03</rscale>
<asrwt>0</asrwt>
<pdfrwt beam="1">  1       21 0.58026965E-02 0.12503565E+03</pdfrwt>
<pdfrwt beam="2">  1       21 0.15942306E-01 0.12503565E+03</pdfrwt>
<totfact> 0.71799301E+06</totfact>
</mgrwt>
</event>
<event>
 5    1  0.1829803E-009  0.1249974E+03  0.7818608E-02  0.1235073E+00
         21   -1    0    0  502  501  0.00000000000E+00  0.00000000000E+00  0.19548659887E+03  0.19548659887E+03  0.00000000000E+00 0.  1.
         21   -1    0    0  501  502 -0.00000000000E+00 -0.00000000000E+00 -0.19981343704E+02  0.19981343704E+02  0.00000000000E+00 0.  1.
         25    2    1    2    0    0  0.00000000000E+00  0.00000000000E+00  0.17550525517E+03  0.21546794258E+03  0.12499735872E+03 0.  0.
        -11    1    3    3    0    0 -0.60740036803E+02 -0.14229971005E+02  0.94257647814E+02  0.11303251000E+03  0.51100000000E-03 0.  1.
         11    1    3    3    0    0  0.60740036803E+02  0.14229971005E+02  0.81247607356E+02  0.10243543258E+03  0.51100000000E-03 0.  1.
<mgrwt>
<rscale>  0 0.12499736E+03</rscale>
<asrwt>0</asrwt>
<pdfrwt beam="1">  1       21 0.30074860E-01 0.12499736E+03</pdfrwt>
<pdfrwt beam="2">  1       21 0.30740530E-02 0.12499736E+03</pdfrwt>
<totfact> 0.63293025E+06</totfact>
</mgrwt>
</event>
<event>
 5    1  0.1829803E-009  0.1249837E+03  0.7818608E-02  0.1235095E+00
         21   -1    0    0  502  501  0.00000000000E+00  0.00000000000E+00  0.17979793038E+02  0.17979793038E+02  0.00000000000E+00 0.  1.
         21   -1    0    0  501  502 -0.00000000000E+00 -0.00000000000E+00 -0.21720120649E+03  0.21720120649E+03  0.00000000000E+00 0.  1.
         25    2    1    2    0    0  0.00000000000E+00  0.00000000000E+00 -0.19922141345E+03  0.23518099952E+03  0.12498372278E+03 0.  0.
        -11    1    3    3    0    0 -0.54145917013E+02  0.16195307241E+02 -0.49430344735E+02  0.75082802869E+02  0.51100000000E-03 0. -1.
         11    1    3    3    0    0  0.54145917013E+02 -0.16195307241E+02 -0.14979106871E+03  0.16009819666E+03  0.51100000000E-03 0. -1.
<mgrwt>
<rscale>  0 0.12498372E+03</rscale>
<asrwt>0</asrwt>
<pdfrwt beam="1">  1       21 0.27661223E-02 0.12498372E+03</pdfrwt>
<pdfrwt beam="2">  1       21 0.33415567E-01 0.12498372E+03</pdfrwt>
<totfact> 0.61327316E+06</totfact>
</mgrwt>
</event>
<event>
 5    1  0.1829803E-009  0.1250000E+03  0.7818608E-02  0.1235069E+00
         21   -1    0    0  502  501  0.00000000000E+00  0.00000000000E+00  0.23384184943E+02  0.23384184943E+02  0.00000000000E+00 0. -1.
         21   -1    0    0  501  502 -0.00000000000E+00 -0.00000000000E+00 -0.16704673272E+03  0.16704673272E+03  0.00000000000E+00 0. -1.
         25    2    1    2    0    0  0.00000000000E+00  0.00000000000E+00 -0.14366254778E+03  0.19043091767E+03  0.12500002707E+03 0.  0.
        -11    1    3    3    0    0 -0.34943078313E+02 -0.41920139023E+02 -0.25423994267E+02  0.60205450438E+02  0.51100000000E-03 0.  1.
         11    1    3    3    0    0  0.34943078313E+02  0.41920139023E+02 -0.11823855351E+03  0.13022546723E+03  0.51100000000E-03 0.  1.
<mgrwt>
<rscale>  0 0.12500003E+03</rscale>
<asrwt>0</asrwt>
<pdfrwt beam="1">  1       21 0.35975670E-02 0.12500003E+03</pdfrwt>
<pdfrwt beam="2">  1       21 0.25699497E-01 0.12500003E+03</pdfrwt>
<totfact> 0.65974559E+06</totfact>
</mgrwt>
</event>
<event>
 5    1  0.1829803E-009  0.1250174E+03  0.7818608E-02  0.1235042E+00
         21   -1    0    0  502  501  0.00000000000E+00  0.00000000000E+00  0.24373712111E+02  0.24373712111E+02  0.00000000000E+00 0. -1.
         21   -1    0    0  501  502 -0.00000000000E+00 -0.00000000000E+00 -0.16030951003E+03  0.16030951003E+03  0.00000000000E+00 0. -1.
         25    2    1    2    0    0  0.00000000000E+00  0.00000000000E+00 -0.13593579792E+03  0.18468322214E+03  0.12501740432E+03 0.  0.
        -11    1    3    3    0    0  0.48491295279E+02  0.14299807448E+01 -0.12620057143E+03  0.13520367891E+03  0.51100000000E-03 0.  1.
         11    1    3    3    0    0 -0.48491295279E+02 -0.14299807448E+01 -0.97352264904E+01  0.49479543226E+02  0.51100000000E-03 0.  1.
<mgrwt>
<rscale>  0 0.12501740E+03</rscale>
<asrwt>0</asrwt>
<pdfrwt beam="1">  1       21 0.37498019E-02 0.12501740E+03</pdfrwt>
<pdfrwt beam="2">  1       21 0.24663002E-01 0.12501740E+03</pdfrwt>
<totfact> 0.66588924E+06</totfact>
</mgrwt>
</event>
<event>
 5    1  0.1829803E-009  0.1250012E+03  0.7818608E-02  0.1235067E+00
         21   -1    0    0  502  501  0.00000000000E+00  0.00000000000E+00  0.38970806911E+02  0.38970806911E+02  0.00000000000E+00 0. -1.
         21   -1    0    0  501  502 -0.00000000000E+00 -0.00000000000E+00 -0.10023721411E+03  0.10023721411E+03  0.00000000000E+00 0. -1.
         25    2    1    2    0    0  0.00000000000E+00  0.00000000000E+00 -0.61266407199E+02  0.13920802102E+03  0.12500120186E+03 0.  0.
        -11    1    3    3    0    0 -0.32574770768E+02 -0.51387969971E+02 -0.46558291074E+02  0.76612751004E+02  0.51100000000E-03 0. -1.
         11    1    3    3    0    0  0.32574770768E+02  0.51387969971E+02 -0.14708116124E+02  0.62595270018E+02  0.51100000000E-03 0. -1.
<mgrwt>
<rscale>  0 0.12500120E+03</rscale>
<asrwt>0</asrwt>
<pdfrwt beam="1">  1       21 0.59955089E-02 0.12500120E+03</pdfrwt>
<pdfrwt beam="2">  1       21 0.15421110E-01 0.12500120E+03</pdfrwt>
<totfact> 0.72140660E+06</totfact>
</mgrwt>
</event>
<event>
 5    1  0.1829803E-009  0.1249994E+03  0.7818608E-02  0.1235070E+00
         21   -1    0    0  502  501  0.00000000000E+00  0.00000000000E+00  0.43394801171E+02  0.43394801171E+02  0.00000000000E+00 0.  1.
         21   -1    0    0  501  502 -0.00000000000E+00 -0.00000000000E+00 -0.90015721157E+02  0.90015721157E+02  0.00000000000E+00 0.  1.
         25    2    1    2    0    0  0.00000000000E+00  0.00000000000E+00 -0.46620919986E+02  0.13341052233E+03  0.12499942915E+03 0.  0.
        -11    1    3    3    0    0  0.18187763968E+02 -0.56661274457E+02 -0.43698741174E+02  0.73830039697E+02  0.51100000000E-03 0. -1.
         11    1    3    3    0    0 -0.18187763968E+02  0.56661274457E+02 -0.29221788119E+01  0.59580482631E+02  0.51100000000E-03 0. -1.
<mgrwt>
<rscale>  0 0.12499943E+03</rscale>
<asrwt>0</asrwt>
<pdfrwt beam="1">  1       21 0.66761233E-02 0.12499943E+03</pdfrwt>
<pdfrwt beam="2">  1       21 0.13848572E-01 0.12499943E+03</pdfrwt>
<totfact> 0.72908690E+06</totfact>
</mgrwt>
</event>
<event>
 5    1  0.1829803E-009  0.1250032E+03  0.7818608E-02  0.1235064E+00
         21   -1    0    0  502  501  0.00000000000E+00  0.00000000000E+00  0.13819899765E+02  0.13819899765E+02  0.00000000000E+00 0. -1.
         21   -1    0    0  501  502 -0.00000000000E+00 -0.00000000000E+00 -0.28266841811E+03  0.28266841811E+03  0.00000000000E+00 0. -1.
         25    2    1    2    0    0  0.00000000000E+00  0.00000000000E+00 -0.26884851834E+03  0.29648831787E+03  0.12500318724E+03 0.  0.
        -11    1    3    3    0    0  0.10009620948E+02  0.49143007438E+02 -0.45956578424E+02  0.68023781079E+02  0.51100000000E-03 0. -1.
         11    1    3    3    0    0 -0.10009620948E+02 -0.49143007438E+02 -0.22289193992E+03  0.22846453679E+03  0.51100000000E-03 0. -1.
<mgrwt>
<rscale>  0 0.12500319E+03</rscale>
<asrwt>0</asrwt>
<pdfrwt beam="1">  1       21 0.21261384E-02 0.12500319E+03</pdfrwt>
<pdfrwt beam="2">  1       21 0.43487448E-01 0.12500319E+03</pdfrwt>
<totfact> 0.55744811E+06</totfact>
</mgrwt>
</event>
<event>
 5    1  0.1829803E-009  0.1249987E+03  0.7818608E-02  0.1235071E+00
         21   -1    0    0  502  501  0.00000000000E+00  0.00000000000E+00  0.51953379531E+03  0.51953379531E+03  0.00000000000E+00 0. -1.
         21   -1    0    0  501  502 -0.00000000000E+00 -0.00000000000E+00 -0.75186087146E+01  0.75186087146E+01  0.00000000000E+00 0. -1.
         25    2    1    2    0    0  0.00000000000E+00  0.00000000000E+00  0.51201518660E+03  0.52705240403E+03  0.12499874113E+03 0.  0.
        -11    1    3    3    0    0 -0.47113980048E+02 -0.39737330346E+02  0.29970217811E+03  0.30597414614E+03  0.51100000000E-03 0. -1.
         11    1    3    3    0    0  0.47113980048E+02  0.39737330346E+02  0.21231300848E+03  0.22107825789E+03  0.51100000000E-03 0. -1.
<mgrwt>
<rscale>  0 0.12499874E+03</rscale>
<asrwt>0</asrwt>
<pdfrwt beam="1">  1       21 0.79928248E-01 0.12499874E+03</pdfrwt>
<pdfrwt beam="2">  1       21 0.11567094E-02 0.12499874E+03</pdfrwt>
<totfact> 0.40615241E+06</totfact>
</mgrwt>
</event>
<event>
 5    1  0.1829803E-009  0.1250154E+03  0.7818608E-02  0.1235045E+00
         21   -1    0    0  502  501  0.00000000000E+00  0.00000000000E+00  0.10384804777E+03  0.10384804777E+03  0.00000000000E+00 0.  1.
         21   -1    0    0  501  502 -0.00000000000E+00 -0.00000000000E+00 -0.37624336522E+02  0.37624336522E+02  0.00000000000E+00 0.  1.
         25    2    1    2    0    0  0.00000000000E+00  0.00000000000E+00  0.66223711250E+02  0.14147238429E+03  0.12501542139E+03 0.  0.
        -11    1    3    3    0    0 -0.61412514496E+02 -0.11171237173E+02  0.29372233289E+02  0.68985662028E+02  0.51100000000E-03 0.  1.
         11    1    3    3    0    0  0.61412514496E+02  0.11171237173E+02  0.36851477961E+02  0.72486722266E+02  0.51100000000E-03 0.  1.
<mgrwt>
<rscale>  0 0.12501542E+03</rscale>
<asrwt>0</asrwt>
<pdfrwt beam="1">  1       21 0.15976623E-01 0.12501542E+03</pdfrwt>
<pdfrwt beam="2">  1       21 0.57883595E-02 0.12501542E+03</pdfrwt>
<totfact> 0.71819452E+06</totfact>
</mgrwt>
</event>
<event>
 5    1  0.1829803E-009  0.1250015E+03  0.7818608E-02  0.1235067E+00
         21   -1    0    0  502  501  0.00000000000E+00  0.00000000000E+00  0.65315244934E+02  0.65315244934E+02  0.00000000000E+00 0.  1.
         21   -1    0    0  501  502 -0.00000000000E+00 -0.00000000000E+00 -0.59807536486E+02  0.59807536486E+02  0.00000000000E+00 0.  1.
         25    2    1    2    0    0  0.00000000000E+00  0.00000000000E+00  0.55077084477E+01  0.12512278142E+03  0.12500150230E+03 0.  0.
        -11    1    3    3    0    0 -0.10630856434E+02 -0.57507523644E+02  0.24825497505E+02  0.63532949804E+02  0.51100000000E-03 0. -1.
         11    1    3    3    0    0  0.10630856434E+02  0.57507523644E+02 -0.19317789057E+02  0.61589831616E+02  0.51100000000E-03 0. -1.
<mgrwt>
<rscale>  0 0.12500150E+03</rscale>
<asrwt>0</asrwt>
<pdfrwt beam="1">  1       21 0.10048499E-01 0.12500150E+03</pdfrwt>
<pdfrwt beam="2">  1       21 0.92011595E-02 0.12500150E+03</pdfrwt>
<totfact> 0.74024156E+06</totfact>
</mgrwt>
</event>
<event>
 5    1  0.1829803E-009  0.1250000E+03  0.7818608E-02  0.1235069E+00
         21   -1    0    0  502  501  0.00000000000E+00  0.00000000000E+00  0.11994901288E+02  0.11994901288E+02  0.00000000000E+00 0.  1.
         21   -1    0    0  501  502 -0.00000000000E+00 -0.00000000000E+00 -0.32565924242E+03  0.32565924242E+03  0.00000000000E+00 0.  1.
         25    2    1    2    0    0  0.00000000000E+00  0.00000000000E+00 -0.31366434113E+03  0.33765414371E+03  0.12500000746E+03 0.  0.
        -11    1    3    3    0    0  0.26618549654E+02  0.47549532680E+02 -0.23950690113E+03  0.24562789119E+03  0.51100000000E-03 0.  1.
         11    1    3    3    0    0 -0.26618549654E+02 -0.47549532680E+02 -0.74157440004E+02  0.92026252515E+02  0.51100000000E-03 0.  1.
<mgrwt>
<rscale>  0 0.12500001E+03</rscale>
<asrwt>0</asrwt>
<pdfrwt beam="1">  1       21 0.18453695E-02 0.12500001E+03</pdfrwt>
<pdfrwt beam="2">  1       21 0.50101421E-01 0.12500001E+03</pdfrwt>
<totfact> 0.52463327E+06</totfact>
</mgrwt>
</event>
<event>
 5    1  0.1829803E-009  0.1250008E+03  0.7818608E-02  0.1235068E+00
         21   -1    0    0  502  501  0.00000000000E+00  0.00000000000E+00  0.85824682454E+02  0.85824682454E+02  0.00000000000E+00 0.  1.
         21   -1    0    0  501  502 -0.00000000000E+00 -0.00000000000E+00 -0.45514860165E+02  0.45514860165E+02  0.00000000000E+00 0.  1.
         25    2    1    2    0    0  0.00000000000E+00  0.00000000000E+00  0.40309822290E+02  0.13133954262E+03  0.12500077473E+03 0.  0.
        -11    1    3    3    0    0 -0.35143136324E+02  0.45106293206E+02  0.46666981185E+02  0.73806672128E+02  0.51100000000E-03 0. -1.
         11    1    3    3    0    0  0.35143136324E+02 -0.45106293206E+02 -0.63571588952E+01  0.57532870491E+02  0.51100000000E-03 0. -1.
<mgrwt>
<rscale>  0 0.12500077E+03</rscale>
<asrwt>0</asrwt>
<pdfrwt beam="1">  1       21 0.13203797E-01 0.12500077E+03</pdfrwt>
<pdfrwt beam="2">  1       21 0.70022861E-02 0.12500077E+03</pdfrwt>
<totfact> 0.73183505E+06</totfact>
</mgrwt>
</event>
<event>
 5    1  0.1829803E-009  0.1250285E+03  0.7818608E-02  0.1235025E+00
         21   -1    0    0  502  501  0.00000000000E+00  0.00000000000E+00  0.12855884353E+03  0.12855884353E+03  0.00000000000E+00 0. -1.
         21   -1    0    0  501  502 -0.00000000000E+00 -0.00000000000E+00 -0.30398759217E+02  0.30398759217E+02  0.00000000000E+00 0. -1.
         25    2    1    2    0    0  0.00000000000E+00  0.00000000000E+00  0.98160084310E+02  0.15895760274E+03  0.12502846603E+03 0.  0.
        -11    1    3    3    0    0  0.69902283330E+01  0.23273978251E+02 -0.24147942222E+02  0.34258786750E+02  0.51100000000E-03 0. -1.
         11    1    3    3    0    0 -0.69902283330E+01 -0.23273978251E+02  0.12230802653E+03  0.12469881599E+03  0.51100000000E-03 0. -1.
<mgrwt>
<rscale>  0 0.12502847E+03</rscale>
<asrwt>0</asrwt>
<pdfrwt beam="1">  1       21 0.19778283E-01 0.12502847E+03</pdfrwt>
<pdfrwt beam="2">  1       21 0.46767323E-02 0.12502847E+03</pdfrwt>
<totfact> 0.69596703E+06</totfact>
</mgrwt>
</event>
<event>
 5    1  0.1829803E-009  0.1250010E+03  0.7818608E-02  0.1235068E+00
         21   -1    0    0  502  501  0.00000000000E+00  0.00000000000E+00  0.28633635125E+02  0.28633635125E+02  0.00000000000E+00 0.  1.
         21   -1    0    0  501  502 -0.00000000000E+00 -0.00000000000E+00 -0.13642400447E+03  0.13642400447E+03  0.00000000000E+00 0.  1.
         25    2    1    2    0    0  0.00000000000E+00  0.00000000000E+00 -0.10779036934E+03  0.16505763959E+03  0.12500104266E+03 0.  0.
        -11    1    3    3    0    0 -0.37505777917E+02  0.49100951812E+02 -0.41457111028E+02  0.74406175154E+02  0.51100000000E-03 0.  1.
         11    1    3    3    0    0  0.37505777917E+02 -0.49100951812E+02 -0.66333258315E+02  0.90651464439E+02  0.51100000000E-03 0.  1.
<mgrwt>
<rscale>  0 0.12500104E+03</rscale>
<asrwt>0</asrwt>
<pdfrwt beam="1">  1       21 0.44051746E-02 0.12500104E+03</pdfrwt>
<pdfrwt beam="2">  1       21 0.20988308E-01 0.12500104E+03</pdfrwt>
<totfact> 0.68904901E+06</totfact>
</mgrwt>
</event>
<event>
 5    1  0.1829803E-009  0.1249999E+03  0.7818608E-02  0.1235069E+00
         21   -1    0    0  502  501  0.00000000000E+00  0.00000000000E+00  0.12843543996E+02  0.12843543996E+02  0.00000000000E+00 0.  1.
         21   -1    0    0  501  502 -0.00000000000E+00 -0.00000000000E+00 -0.30414078941E+03  0.30414078941E+03  0.00000000000E+00 0.  1.
         25    2    1    2    0    0  0.00000000000E+00  0.00000000000E+00 -0.29129724542E+03  0.31698433341E+03  0.12499992976E+03 0.  0.
        -11    1    3    3    0    0 -0.40529451553E+02  0.45755127193E+02 -0.11257730775E+03  0.12810081314E+03  0.51100000000E-03 0. -1.
         11    1    3    3    0    0  0.40529451553E+02 -0.45755127193E+02 -0.17871993767E+03  0.18888352027E+03  0.51100000000E-03 0. -1.
<mgrwt>
<rscale>  0 0.12499993E+03</rscale>
<asrwt>0</asrwt>
<pdfrwt beam="1">  1       21 0.19759302E-02 0.12499993E+03</pdfrwt>
<pdfrwt beam="2">  1       21 0.46790883E-01 0.12499993E+03</pdfrwt>
<totfact> 0.54073286E+06</totfact>
</mgrwt>
</event>
<event>
 5    1  0.1829803E-009  0.1249985E+03  0.7818608E-02  0.1235072E+00
         21   -1    0    0  502  501  0.00000000000E+00  0.00000000000E+00  0.55280579130E+02  0.55280579130E+02  0.00000000000E+00 0.  1.
         21   -1    0    0  501  502 -0.00000000000E+00 -0.00000000000E+00 -0.70660547169E+02  0.70660547169E+02  0.00000000000E+00 0.  1.
         25    2    1    2    0    0  0.00000000000E+00  0.00000000000E+00 -0.15379968039E+02  0.12594112630E+03  0.12499849550E+03 0.  0.
        -11    1    3    3    0    0 -0.57155691818E+02  0.24052557744E+02  0.16995589602E+00  0.62010704935E+02  0.51100000000E-03 0. -1.
         11    1    3    3    0    0  0.57155691818E+02 -0.24052557744E+02 -0.15549923935E+02  0.63930421365E+02  0.51100000000E-03 0. -1.
<mgrwt>
<rscale>  0 0.12499850E+03</rscale>
<asrwt>0</asrwt>
<pdfrwt beam="1">  1       21 0.85047045E-02 0.12499850E+03</pdfrwt>
<pdfrwt beam="2">  1       21 0.10870853E-01 0.12499850E+03</pdfrwt>
<totfact> 0.73916998E+06</totfact>
</mgrwt>
</event>
<event>
 5    1  0.1829803E-009  0.1250020E+03  0.7818608E-02  0.1235066E+00
         21   -1    0    0  502  501  0.00000000000E+00  0.00000000000E+00  0.83878896907E+01  0.83878896907E+01  0.00000000000E+00 0. -1.
         21   -1    0    0  501  502 -0.00000000000E+00 -0.00000000000E+00 -0.46571586345E+03  0.46571586345E+03  0.00000000000E+00 0. -1.
         25    2    1    2    0    0  0.00000000000E+00  0.00000000000E+00 -0.45732797376E+03  0.47410375314E+03  0.12500197262E+03 0.  0.
        -11    1    3    3    0    0 -0.45674846963E+02 -0.37038554378E+02 -0.14835686917E+03  0.15958636153E+03  0.51100000000E-03 0. -1.
         11    1    3    3    0    0  0.45674846963E+02  0.37038554378E+02 -0.30897110459E+03  0.31451739162E+03  0.51100000000E-03 0. -1.
<mgrwt>
<rscale>  0 0.12500197E+03</rscale>
<asrwt>0</asrwt>
<pdfrwt beam="1">  1       21 0.12904443E-02 0.12500197E+03</pdfrwt>
<pdfrwt beam="2">  1       21 0.71648607E-01 0.12500197E+03</pdfrwt>
<totfact> 0.43482081E+06</totfact>
</mgrwt>
</event>
<event>
 5    1  0.1829803E-009  0.1249995E+03  0.7818608E-02  0.1235070E+00
         21   -1    0    0  502  501  0.00000000000E+00  0.00000000000E+00  0.18220113341E+03  0.18220113341E+03  0.00000000000E+00 0.  1.
         21   -1    0    0  501  502 -0.00000000000E+00 -0.00000000000E+00 -0.21439060872E+02  0.21439060872E+02  0.00000000000E+00 0.  1.
         25    2    1    2    0    0  0.00000000000E+00  0.00000000000E+00  0.16076207254E+03  0.20364019428E+03  0.12499953904E+03 0.  0.
        -11    1    3    3    0    0 -0.20535741360E+02 -0.45518788983E+02  0.19152181012E+02  0.53483482137E+02  0.51100000000E-03 0.  1.
         11    1    3    3    0    0  0.20535741360E+02  0.45518788983E+02  0.14160989153E+03  0.15015671215E+03  0.51100000000E-03 0.  1.
<mgrwt>
<rscale>  0 0.12499954E+03</rscale>
<asrwt>0</asrwt>
<pdfrwt beam="1">  1       21 0.28030943E-01 0.12499954E+03</pdfrwt>
<pdfrwt beam="2">  1       21 0.32983172E-02 0.12499954E+03</pdfrwt>
<totfact> 0.64535688E+06</totfact>
</mgrwt>
</event>
<event>
 5    1  0.1829803E-009  0.1249989E+03  0.7818608E-02  0.1235071E+00
         21   -1    0    0  502  501  0.00000000000E+00  0.00000000000E+00  0.24059545113E+03  0.24059545113E+03  0.00000000000E+00 0. -1.
         21   -1    0    0  501  502 -0.00000000000E+00 -0.00000000000E+00 -0.16235486025E+02  0.16235486025E+02  0.00000000000E+00 0. -1.
         25    2    1    2    0    0  0.00000000000E+00  0.00000000000E+00  0.22435996511E+03  0.25683093716E+03  0.12499894535E+03 0.  0.
        -11    1    3    3    0    0  0.52355759850E+02 -0.10342965151E+02  0.45345504321E+02  0.70030830925E+02  0.51100000000E-03 0. -1.
         11    1    3    3    0    0 -0.52355759850E+02  0.10342965151E+02  0.17901446079E+03  0.18680010623E+03  0.51100000000E-03 0. -1.
<mgrwt>
<rscale>  0 0.12499895E+03</rscale>
<asrwt>0</asrwt>
<pdfrwt beam="1">  1       21 0.37014682E-01 0.12499895E+03</pdfrwt>
<pdfrwt beam="2">  1       21 0.24977673E-02 0.12499895E+03</pdfrwt>
<totfact> 0.59242537E+06</totfact>
</mgrwt>
</event>
<event>
 5    1  0.1829803E-009  0.1250000E+03  0.7818608E-02  0.1235069E+00
         21   -1    0    0  502  501  0.00000000000E+00  0.00000000000E+00  0.17632514165E+03  0.17632514165E+03  0.00000000000E+00 0. -1.
         21   -1    0    0  501  502 -0.00000000000E+00 -0.00000000000E+00 -0.22153661866E+02  0.22153661866E+02  0.00000000000E+00 0. -1.
         25    2    1    2    0    0  0.00000000000E+00  0.00000000000E+00  0.15417147978E+03  0.19847880351E+03  0.12499996106E+03 0.  0.
        -11    1    3    3    0    0 -0.59231422636E+02 -0.16689944756E+02  0.59740412480E+02  0.85766150473E+02  0.51100000000E-03 0.  1.
         11    1    3    3    0    0  0.59231422636E+02  0.16689944756E+02  0.94431067301E+02  0.11271265304E+03  0.51100000000E-03 0.  1.
<mgrwt>
<rscale>  0 0.12499996E+03</rscale>
<asrwt>0</asrwt>
<pdfrwt beam="1">  1       21 0.27126944E-01 0.12499996E+03</pdfrwt>
<pdfrwt beam="2">  1       21 0.34082558E-02 0.12499996E+03</pdfrwt>
<totfact> 0.65092339E+06</totfact>
</mgrwt>
</event>
<event>
 5    1  0.1829803E-009  0.1249952E+03  0.7818608E-02  0.1235077E+00
         21   -1    0    0  502  501  0.00000000000E+00  0.00000000000E+00  0.42061913518E+02  0.42061913518E+02  0.00000000000E+00 0.  1.
         21   -1    0    0  501  502 -0.00000000000E+00 -0.00000000000E+00 -0.92861866840E+02  0.92861866840E+02  0.00000000000E+00 0.  1.
         25    2    1    2    0    0  0.00000000000E+00  0.00000000000E+00 -0.50799953323E+02  0.13492378036E+03  0.12499516490E+03 0.  0.
        -11    1    3    3    0    0 -0.90521660329E+00 -0.50096086231E+02 -0.65723813377E+02  0.82644158401E+02  0.51100000000E-03 0.  1.
         11    1    3    3    0    0  0.90521660329E+00  0.50096086231E+02  0.14923860054E+02  0.52279621957E+02  0.51100000000E-03 0.  1.
<mgrwt>
<rscale>  0 0.12499516E+03</rscale>
<asrwt>0</asrwt>
<pdfrwt beam="1">  1       21 0.64710638E-02 0.12499516E+03</pdfrwt>
<pdfrwt beam="2">  1       21 0.14286441E-01 0.12499516E+03</pdfrwt>
<totfact> 0.72715533E+06</totfact>
</mgrwt>
</event>
<event>
 5    1  0.1829803E-009  0.1250007E+03  0.7818608E-02  0.1235068E+00
         21   -1    0    0  502  501  0.00000000000E+00  0.00000000000E+00  0.15375827188E+02  0.15375827188E+02  0.00000000000E+00 0. -1.
         21   -1    0    0  501  502 -0.00000000000E+00 -0.00000000000E+00 -0.25405419077E+03  0.25405419077E+03  0.00000000000E+00 0. -1.
         25    2    1    2    0    0  0.00000000000E+00  0.00000000000E+00 -0.23867836358E+03  0.26943001795E+03  0.12500069334E+03 0.  0.
        -11    1    3    3    0    0 -0.54478407322E+02 -0.30345803661E+02 -0.12836336765E+03  0.14270921070E+03  0.51100000000E-03 0.  1.
         11    1    3    3    0    0  0.54478407322E+02  0.30345803661E+02 -0.11031499593E+03  0.12672080725E+03  0.51100000000E-03 0.  1.
<mgrwt>
<rscale>  0 0.12500069E+03</rscale>
<asrwt>0</asrwt>
<pdfrwt beam="1">  1       21 0.23655120E-02 0.12500069E+03</pdfrwt>
<pdfrwt beam="2">  1       21 0.39085259E-01 0.12500069E+03</pdfrwt>
<totfact> 0.58094579E+06</totfact>
</mgrwt>
</event>
<event>
 5    1  0.1829803E-009  0.1250018E+03  0.7818608E-02  0.1235066E+00
         21   -1    0    0  502  501  0.00000000000E+00  0.00000000000E+00  0.10808363193E+03  0.10808363193E+03  0.00000000000E+00 0. -1.
         21   -1    0    0  501  502 -0.00000000000E+00 -0.00000000000E+00 -0.36142027466E+02  0.36142027466E+02  0.00000000000E+00 0. -1.
         25    2    1    2    0    0  0.00000000000E+00  0.00000000000E+00  0.71941604465E+02  0.14422565940E+03  0.12500178549E+03 0.  0.
        -11    1    3    3    0    0 -0.28158545833E+02 -0.26812730393E+02  0.92430291588E+02  0.10027554546E+03  0.51100000000E-03 0. -1.
         11    1    3    3    0    0  0.28158545833E+02  0.26812730393E+02 -0.20488687124E+02  0.43950113934E+02  0.51100000000E-03 0. -1.
<mgrwt>
<rscale>  0 0.12500179E+03</rscale>
<asrwt>0</asrwt>
<pdfrwt beam="1">  1       21 0.16628251E-01 0.12500179E+03</pdfrwt>
<pdfrwt beam="2">  1       21 0.55603120E-02 0.12500179E+03</pdfrwt>
<totfact> 0.71489092E+06</totfact>
</mgrwt>
</event>
<event>
 5    1  0.1829803E-009  0.1250063E+03  0.7818608E-02  0.1235059E+00
         21   -1    0    0  502  501  0.00000000000E+00  0.00000000000E+00  0.58029059618E+02  0.58029059618E+02  0.00000000000E+00 0. -1.
         21   -1    0    0  501  502 -0.00000000000E+00 -0.00000000000E+00 -0.67322174774E+02  0.67322174774E+02  0.00000000000E+00 0. -1.
         25    2    1    2    0    0  0.00000000000E+00  0.00000000000E+00 -0.92931151551E+01  0.12535123439E+03  0.12500627974E+03 0.  0.
        -11    1    3    3    0    0 -0.17415278828E+02 -0.59387136472E+02 -0.13418186092E+02  0.63325915969E+02  0.51100000000E-03 0.  1.
         11    1    3    3    0    0  0.17415278828E+02  0.59387136472E+02  0.41250709365E+01  0.62025318423E+02  0.51100000000E-03 0.  1.
<mgrwt>
<rscale>  0 0.12500628E+03</rscale>
<asrwt>0</asrwt>
<pdfrwt beam="1">  1       21 0.89275477E-02 0.12500628E+03</pdfrwt>
<pdfrwt beam="2">  1       21 0.10357258E-01 0.12500628E+03</pdfrwt>
<totfact> 0.73984278E+06</totfact>
</mgrwt>
</event>
<event>
 5    1  0.1829803E-009  0.1250038E+03  0.7818608E-02  0.1235063E+00
         21   -1    0    0  502  501  0.00000000000E+00  0.00000000000E+00  0.96346840132E+02  0.96346840132E+02  0.00000000000E+00 0.  1.
         21   -1    0    0  501  502 -0.00000000000E+00 -0.00000000000E+00 -0.40546092945E+02  0.40546092945E+02  0.00000000000E+00 0.  1.
         25    2    1    2    0    0  0.00000000000E+00  0.00000000000E+00  0.55800747187E+02  0.13689293308E+03  0.12500380690E+03 0.  0.
        -11    1    3    3    0    0 -0.14564098377E+00  0.61566891882E+02  0.39694284849E+02  0.73253939398E+02  0.51100000000E-03 0. -1.
         11    1    3    3    0    0  0.14564098377E+00 -0.61566891882E+02  0.16106462338E+02  0.63638993680E+02  0.51100000000E-03 0. -1.
<mgrwt>
<rscale>  0 0.12500381E+03</rscale>
<asrwt>0</asrwt>
<pdfrwt beam="1">  1       21 0.14822591E-01 0.12500381E+03</pdfrwt>
<pdfrwt beam="2">  1       21 0.62378604E-02 0.12500381E+03</pdfrwt>
<totfact> 0.72439760E+06</totfact>
</mgrwt>
</event>
<event>
 5    1  0.1829803E-009  0.1249987E+03  0.7818608E-02  0.1235071E+00
         21   -1    0    0  502  501  0.00000000000E+00  0.00000000000E+00  0.36791044147E+02  0.36791044147E+02  0.00000000000E+00 0. -1.
         21   -1    0    0  501  502 -0.00000000000E+00 -0.00000000000E+00 -0.10617176990E+03  0.10617176990E+03  0.00000000000E+00 0. -1.
         25    2    1    2    0    0  0.00000000000E+00  0.00000000000E+00 -0.69380725754E+02  0.14296281405E+03  0.12499872437E+03 0.  0.
        -11    1    3    3    0    0  0.35325922017E+02  0.93122485030E+01  0.23307692776E+02  0.43334596818E+02  0.51100000000E-03 0.  1.
         11    1    3    3    0    0 -0.35325922017E+02 -0.93122485030E+01 -0.92688418530E+02  0.99628217230E+02  0.51100000000E-03 0.  1.
<mgrwt>
<rscale>  0 0.12499872E+03</rscale>
<asrwt>0</asrwt>
<pdfrwt beam="1">  1       21 0.56601607E-02 0.12499872E+03</pdfrwt>
<pdfrwt beam="2">  1       21 0.16334118E-01 0.12499872E+03</pdfrwt>
<totfact> 0.71657168E+06</totfact>
</mgrwt>
</event>
<event>
 5    1  0.1829803E-009  0.1249999E+03  0.7818608E-02  0.1235069E+00
         21   -1    0    0  502  501  0.00000000000E+00  0.00000000000E+00  0.41798295486E+03  0.41798295486E+03  0.00000000000E+00 0. -1.
         21   -1    0    0  501  502 -0.00000000000E+00 -0.00000000000E+00 -0.93454640528E+01  0.93454640528E+01  0.00000000000E+00 0. -1.
         25    2    1    2    0    0  0.00000000000E+00  0.00000000000E+00  0.40863749081E+03  0.42732841891E+03  0.12499991487E+03 0.  0.
        -11    1    3    3    0    0  0.29109755516E+02 -0.45363409110E+02  0.96156634220E+02  0.11023300348E+03  0.51100000000E-03 0.  1.
         11    1    3    3    0    0 -0.29109755516E+02  0.45363409110E+02  0.31248085659E+03  0.31709541543E+03  0.51100000000E-03 0.  1.
<mgrwt>
<rscale>  0 0.12499991E+03</rscale>
<asrwt>0</asrwt>
<pdfrwt beam="1">  1       21 0.64305055E-01 0.12499991E+03</pdfrwt>
<pdfrwt beam="2">  1       21 0.14377640E-02 0.12499991E+03</pdfrwt>
<totfact> 0.46280086E+06</totfact>
</mgrwt>
</event>
<event>
 5    1  0.1829803E-009  0.1250064E+03  0.7818608E-02  0.1235059E+00
         21   -1    0    0  502  501  0.00000000000E+00  0.00000000000E+00  0.59707909882E+02  0.59707909882E+02  0.00000000000E+00 0. -1.
         21   -1    0    0  501  502 -0.00000000000E+00 -0.00000000000E+00 -0.65429350291E+02  0.65429350291E+02  0.00000000000E+00 0. -1.
         25    2    1    2    0    0  0.00000000000E+00  0.00000000000E+00 -0.57214404091E+01  0.12513726017E+03  0.12500639585E+03 0.  0.
        -11    1    3    3    0    0 -0.53603048453E+02  0.29912198069E+02 -0.14646887710E+02  0.63107509194E+02  0.51100000000E-03 0. -1.
         11    1    3    3    0    0  0.53603048453E+02 -0.29912198069E+02  0.89254473006E+01  0.62029750979E+02  0.51100000000E-03 0. -1.
<mgrwt>
<rscale>  0 0.12500640E+03</rscale>
<asrwt>0</asrwt>
<pdfrwt beam="1">  1       21 0.91858323E-02 0.12500640E+03</pdfrwt>
<pdfrwt beam="2">  1       21 0.10066054E-01 0.12500640E+03</pdfrwt>
<totfact> 0.74012941E+06</totfact>
</mgrwt>
</event>
<event>
 5    1  0.1829803E-009  0.1250001E+03  0.7818608E-02  0.1235069E+00
         21   -1    0    0  502  501  0.00000000000E+00  0.00000000000E+00  0.45870145469E+02  0.45870145469E+02  0.00000000000E+00 0. -1.
         21   -1    0    0  501  502 -0.00000000000E+00 -0.00000000000E+00 -0.85159001107E+02  0.85159001107E+02  0.00000000000E+00 0. -1.
         25    2    1    2    0    0  0.00000000000E+00  0.00000000000E+00 -0.39288855637E+02  0.13102914658E+03  0.12500009230E+03 0.  0.
        -11    1    3    3    0    0  0.99900801257E+01  0.55377537410E+02  0.88663838558E+01  0.56965657316E+02  0.51100000000E-03 0. -1.
         11    1    3    3    0    0 -0.99900801257E+01 -0.55377537410E+02 -0.48155239493E+02  0.74063489260E+02  0.51100000000E-03 0. -1.
<mgrwt>
<rscale>  0 0.12500009E+03</rscale>
<asrwt>0</asrwt>
<pdfrwt beam="1">  1       21 0.70569454E-02 0.12500009E+03</pdfrwt>
<pdfrwt beam="2">  1       21 0.13101385E-01 0.12500009E+03</pdfrwt>
<totfact> 0.73226571E+06</totfact>
</mgrwt>
</event>
<event>
 5    1  0.1829803E-009  0.1249994E+03  0.7818608E-02  0.1235070E+00
         21   -1    0    0  502  501  0.00000000000E+00  0.00000000000E+00  0.61700369642E+02  0.61700369642E+02  0.00000000000E+00 0.  1.
         21   -1    0    0  501  502 -0.00000000000E+00 -0.00000000000E+00 -0.63309359449E+02  0.63309359449E+02  0.00000000000E+00 0.  1.
         25    2    1    2    0    0  0.00000000000E+00  0.00000000000E+00 -0.16089898070E+01  0.12500972909E+03  0.12499937407E+03 0.  0.
        -11    1    3    3    0    0 -0.58146073472E+02  0.22902861165E+02  0.34603618964E-01  0.62494064578E+02  0.51100000000E-03 0. -1.
         11    1    3    3    0    0  0.58146073472E+02 -0.22902861165E+02 -0.16435934259E+01  0.62515664512E+02  0.51100000000E-03 0. -1.
<mgrwt>
<rscale>  0 0.12499937E+03</rscale>
<asrwt>0</asrwt>
<pdfrwt beam="1">  1       21 0.94923646E-02 0.12499937E+03</pdfrwt>
<pdfrwt beam="2">  1       21 0.97399014E-02 0.12499937E+03</pdfrwt>
<totfact> 0.74043452E+06</totfact>
</mgrwt>
</event>
<event>
 5    1  0.1829803E-009  0.1250000E+03  0.7818608E-02  0.1235069E+00
         21   -1    0    0  502  501  0.00000000000E+00  0.00000000000E+00  0.32597127413E+02  0.32597127413E+02  0.00000000000E+00 0. -1.
         21   -1    0    0  501  502 -0.00000000000E+00 -0.00000000000E+00 -0.11983409724E+03  0.11983409724E+03  0.00000000000E+00 0. -1.
         25    2    1    2    0    0  0.00000000000E+00  0.00000000000E+00 -0.87236969830E+02  0.15243122466E+03  0.12499995738E+03 0.  0.
        -11    1    3    3    0    0 -0.25946406707E+02  0.55434612888E+02 -0.28191836805E+02  0.67386882921E+02  0.51100000000E-03 0.  1.
         11    1    3    3    0    0  0.25946406707E+02 -0.55434612888E+02 -0.59045133024E+02  0.85044341735E+02  0.51100000000E-03 0.  1.
<mgrwt>
<rscale>  0 0.12499996E+03</rscale>
<asrwt>0</asrwt>
<pdfrwt beam="1">  1       21 0.50149427E-02 0.12499996E+03</pdfrwt>
<pdfrwt beam="2">  1       21 0.18436015E-01 0.12499996E+03</pdfrwt>
<totfact> 0.70455191E+06</totfact>
</mgrwt>
</event>
<event>
 5    1  0.1829803E-009  0.1249996E+03  0.7818608E-02  0.1235070E+00
         21   -1    0    0  502  501  0.00000000000E+00  0.00000000000E+00  0.41534211481E+02  0.41534211481E+02  0.00000000000E+00 0. -1.
         21   -1    0    0  501  502 -0.00000000000E+00 -0.00000000000E+00 -0.94048401747E+02  0.94048401747E+02  0.00000000000E+00 0. -1.
         25    2    1    2    0    0  0.00000000000E+00  0.00000000000E+00 -0.52514190265E+02  0.13558261323E+03  0.12499961932E+03 0.  0.
        -11    1    3    3    0    0  0.12814959561E+02  0.40096590653E+02 -0.76366544130E+02  0.87199821290E+02  0.51100000000E-03 0. -1.
         11    1    3    3    0    0 -0.12814959561E+02 -0.40096590653E+02  0.23852353864E+02  0.48382791937E+02  0.51100000000E-03 0. -1.
<mgrwt>
<rscale>  0 0.12499962E+03</rscale>
<asrwt>0</asrwt>
<pdfrwt beam="1">  1       21 0.63898787E-02 0.12499962E+03</pdfrwt>
<pdfrwt beam="2">  1       21 0.14468985E-01 0.12499962E+03</pdfrwt>
<totfact> 0.72620127E+06</totfact>
</mgrwt>
</event>
<event>
 5    1  0.1829803E-009  0.1249983E+03  0.7818608E-02  0.1235072E+00
         21   -1    0    0  502  501  0.00000000000E+00  0.00000000000E+00  0.20022389083E+02  0.20022389083E+02  0.00000000000E+00 0.  1.
         21   -1    0    0  501  502 -0.00000000000E+00 -0.00000000000E+00 -0.19508893888E+03  0.19508893888E+03  0.00000000000E+00 0.  1.
         25    2    1    2    0    0  0.00000000000E+00  0.00000000000E+00 -0.17506654980E+03  0.21511132796E+03  0.12499834623E+03 0.  0.
        -11    1    3    3    0    0 -0.24369960385E+02  0.40518918764E+02 -0.15786936302E+03  0.16479809928E+03  0.51100000000E-03 0. -1.
         11    1    3    3    0    0  0.24369960385E+02 -0.40518918764E+02 -0.17197186779E+02  0.50313228682E+02  0.51100000000E-03 0. -1.
<mgrwt>
<rscale>  0 0.12499835E+03</rscale>
<asrwt>0</asrwt>
<pdfrwt beam="1">  1       21 0.30803677E-02 0.12499835E+03</pdfrwt>
<pdfrwt beam="2">  1       21 0.30013681E-01 0.12499835E+03</pdfrwt>
<totfact> 0.63328395E+06</totfact>
</mgrwt>
</event>
<event>
 5    1  0.1829803E-009  0.1250008E+03  0.7818608E-02  0.1235068E+00
         21   -1    0    0  502  501  0.00000000000E+00  0.00000000000E+00  0.13655810674E+03  0.13655810674E+03  0.00000000000E+00 0. -1.
         21   -1    0    0  501  502 -0.00000000000E+00 -0.00000000000E+00 -0.28605383084E+02  0.28605383084E+02  0.00000000000E+00 0. -1.
         25    2    1    2    0    0  0.00000000000E+00  0.00000000000E+00  0.10795272366E+03  0.16516348983E+03  0.12500075130E+03 0.  0.
        -11    1    3    3    0    0 -0.34575611592E+02 -0.26153210906E+02  0.11346177397E+03  0.12146208261E+03  0.51100000000E-03 0.  1.
         11    1    3    3    0    0  0.34575611592E+02  0.26153210906E+02 -0.55090503128E+01  0.43701407223E+02  0.51100000000E-03 0.  1.
<mgrwt>
<rscale>  0 0.12500075E+03</rscale>
<asrwt>0</asrwt>
<pdfrwt beam="1">  1       21 0.21008939E-01 0.12500075E+03</pdfrwt>
<pdfrwt beam="2">  1       21 0.44008283E-02 0.12500075E+03</pdfrwt>
<totfact> 0.68892698E+06</totfact>
</mgrwt>
</event>
<event>
 5    1  0.1829803E-009  0.1250038E+03  0.7818608E-02  0.1235063E+00
         21   -1    0    0  502  501  0.00000000000E+00  0.00000000000E+00  0.14751771082E+02  0.14751771082E+02  0.00000000000E+00 0.  1.
         21   -1    0    0  501  502 -0.00000000000E+00 -0.00000000000E+00 -0.26481463353E+03  0.26481463353E+03  0.00000000000E+00 0.  1.
         25    2    1    2    0    0  0.00000000000E+00  0.00000000000E+00 -0.25006286245E+03  0.27956640461E+03  0.12500375759E+03 0.  0.
        -11    1    3    3    0    0 -0.38600914508E+02 -0.48604324238E+02 -0.10858560000E+03  0.12507295256E+03  0.51100000000E-03 0.  1.
         11    1    3    3    0    0  0.38600914508E+02  0.48604324238E+02 -0.14147726245E+03  0.15449345205E+03  0.51100000000E-03 0.  1.
<mgrwt>
<rscale>  0 0.12500376E+03</rscale>
<asrwt>0</asrwt>
<pdfrwt beam="1">  1       21 0.22695033E-02 0.12500376E+03</pdfrwt>
<pdfrwt beam="2">  1       21 0.40740711E-01 0.12500376E+03</pdfrwt>
<totfact> 0.57192812E+06</totfact>
</mgrwt>
</event>
<event>
 5    1  0.1829803E-009  0.1249969E+03  0.7818608E-02  0.1235074E+00
         21   -1    0    0  502  501  0.00000000000E+00  0.00000000000E+00  0.16196799538E+03  0.16196799538E+03  0.00000000000E+00 0.  1.
         21   -1    0    0  501  502 -0.00000000000E+00 -0.00000000000E+00 -0.24116204223E+02  0.24116204223E+02  0.00000000000E+00 0.  1.
         25    2    1    2    0    0  0.00000000000E+00  0.00000000000E+00  0.13785179116E+03  0.18608419960E+03  0.12499685203E+03 0.  0.
        -11    1    3    3    0    0 -0.43826400703E+01 -0.37143803692E+02 -0.56165246810E+01  0.37820828077E+02  0.51100000000E-03 0.  1.
         11    1    3    3    0    0  0.43826400703E+01  0.37143803692E+02  0.14346831584E+03  0.14826337153E+03  0.51100000000E-03 0.  1.
<mgrwt>
<rscale>  0 0.12499685E+03</rscale>
<asrwt>0</asrwt>
<pdfrwt beam="1">  1       21 0.24918152E-01 0.12499685E+03</pdfrwt>
<pdfrwt beam="2">  1       21 0.37101854E-02 0.12499685E+03</pdfrwt>
<totfact> 0.66465641E+06</totfact>
</mgrwt>
</event>
<event>
 5    1  0.1829803E-009  0.1250001E+03  0.7818608E-02  0.1235069E+00
         21   -1    0    0  502  501  0.00000000000E+00  0.00000000000E+00  0.27025099531E+03  0.27025099531E+03  0.00000000000E+00 0.  1.
         21   -1    0    0  501  502 -0.00000000000E+00 -0.00000000000E+00 -0.14454183671E+02  0.14454183671E+02  0.00000000000E+00 0.  1.
         25    2    1    2    0    0  0.00000000000E+00  0.00000000000E+00  0.25579681163E+03  0.28470517898E+03  0.12500012037E+03 0.  0.
        -11    1    3    3    0    0 -0.51848601061E+02  0.96306890221E+01  0.20430055439E+03  0.21099702397E+03  0.51100000000E-03 0. -1.
         11    1    3    3    0    0  0.51848601061E+02 -0.96306890221E+01  0.51496257247E+02  0.73708155002E+02  0.51100000000E-03 0. -1.
<mgrwt>
<rscale>  0 0.12500012E+03</rscale>
<asrwt>0</asrwt>
<pdfrwt beam="1">  1       21 0.41577072E-01 0.12500012E+03</pdfrwt>
<pdfrwt beam="2">  1       21 0.22237208E-02 0.12500012E+03</pdfrwt>
<totfact> 0.56751508E+06</totfact>
</mgrwt>
</event>
<event>
 5    1  0.1829803E-009  0.1250006E+03  0.7818608E-02  0.1235068E+00
         21   -1    0    0  502  501  0.00000000000E+00  0.00000000000E+00  0.21363795022E+02  0.21363795022E+02  0.00000000000E+00 0. -1.
         21   -1    0    0  501  502 -0.00000000000E+00 -0.00000000000E+00 -0.18284620993E+03  0.18284620993E+03  0.00000000000E+00 0. -1.
         25    2    1    2    0    0  0.00000000000E+00  0.00000000000E+00 -0.16148241490E+03  0.20421000495E+03  0.12500062319E+03 0.  0.
        -11    1    3    3    0    0  0.15401606335E+02  0.57070314396E+02 -0.47578928027E+02  0.75881385435E+02  0.51100000000E-03 0. -1.
         11    1    3    3    0    0 -0.15401606335E+02 -0.57070314396E+02 -0.11390348688E+03  0.12832861951E+03  0.51100000000E-03 0. -1.
<mgrwt>
<rscale>  0 0.12500062E+03</rscale>
<asrwt>0</asrwt>
<pdfrwt beam="1">  1       21 0.32867377E-02 0.12500062E+03</pdfrwt>
<pdfrwt beam="2">  1       21 0.28130186E-01 0.12500062E+03</pdfrwt>
<totfact> 0.64472889E+06</totfact>
</mgrwt>
</event>
<event>
 5    1  0.1829803E-009  0.1250027E+03  0.7818608E-02  0.1235065E+00
         21   -1    0    0  502  501  0.00000000000E+00  0.00000000000E+00  0.24796469022E+02  0.24796469022E+02  0.00000000000E+00 0. -1.
         21   -1    0    0  501  502 -0.00000000000E+00 -0.00000000000E+00 -0.15753924769E+03  0.15753924769E+03  0.00000000000E+00 0. -1.
         25    2    1    2    0    0  0.00000000000E+00  0.00000000000E+00 -0.13274277867E+03  0.18233571671E+03  0.12500267317E+03 0.  0.
        -11    1    3    3    0    0 -0.99554385344E+01 -0.57743601602E+02 -0.34648325982E+02  0.68073054699E+02  0.51100000000E-03 0.  1.
         11    1    3    3    0    0  0.99554385344E+01  0.57743601602E+02 -0.98094452688E+02  0.11426266202E+03  0.51100000000E-03 0.  1.
<mgrwt>
<rscale>  0 0.12500267E+03</rscale>
<asrwt>0</asrwt>
<pdfrwt beam="1">  1       21 0.38148415E-02 0.12500267E+03</pdfrwt>
<pdfrwt beam="2">  1       21 0.24236806E-01 0.12500267E+03</pdfrwt>
<totfact> 0.66880063E+06</totfact>
</mgrwt>
</event>
<event>
 5    1  0.1829803E-009  0.1249999E+03  0.7818608E-02  0.1235069E+00
         21   -1    0    0  502  501  0.00000000000E+00  0.00000000000E+00  0.71278185543E+02  0.71278185543E+02  0.00000000000E+00 0. -1.
         21   -1    0    0  501  502 -0.00000000000E+00 -0.00000000000E+00 -0.54802827777E+02  0.54802827777E+02  0.00000000000E+00 0. -1.
         25    2    1    2    0    0  0.00000000000E+00  0.00000000000E+00  0.16475357766E+02  0.12608101332E+03  0.12499993803E+03 0.  0.
        -11    1    3    3    0    0  0.36065806320E+02  0.14641470249E+02  0.57559781910E+02  0.69485563467E+02  0.51100000000E-03 0.  1.
         11    1    3    3    0    0 -0.36065806320E+02 -0.14641470249E+02 -0.41084424144E+02  0.56595449853E+02  0.51100000000E-03 0.  1.
<mgrwt>
<rscale>  0 0.12499994E+03</rscale>
<asrwt>0</asrwt>
<pdfrwt beam="1">  1       21 0.10965875E-01 0.12499994E+03</pdfrwt>
<pdfrwt beam="2">  1       21 0.84312042E-02 0.12499994E+03</pdfrwt>
<totfact> 0.73894993E+06</totfact>
</mgrwt>
</event>
<event>
 5    1  0.1829803E-009  0.1249988E+03  0.7818608E-02  0.1235071E+00
         21   -1    0    0  502  501  0.00000000000E+00  0.00000000000E+00  0.24301856743E+03  0.24301856743E+03  0.00000000000E+00 0. -1.
         21   -1    0    0  501  502 -0.00000000000E+00 -0.00000000000E+00 -0.16073564592E+02  0.16073564592E+02  0.00000000000E+00 0. -1.
         25    2    1    2    0    0  0.00000000000E+00  0.00000000000E+00  0.22694500284E+03  0.25909213202E+03  0.12499879425E+03 0.  0.
        -11    1    3    3    0    0  0.50544496588E+02 -0.15368028041E+02  0.18269303601E+03  0.19017798986E+03  0.51100000000E-03 0. -1.
         11    1    3    3    0    0 -0.50544496588E+02  0.15368028041E+02  0.44251966827E+02  0.68914142159E+02  0.51100000000E-03 0. -1.
<mgrwt>
<rscale>  0 0.12499879E+03</rscale>
<asrwt>0</asrwt>
<pdfrwt beam="1">  1       21 0.37387469E-01 0.12499879E+03</pdfrwt>
<pdfrwt beam="2">  1       21 0.24728563E-02 0.12499879E+03</pdfrwt>
<totfact> 0.59034377E+06</totfact>
</mgrwt>
</event>
<event>
 5    1  0.1829803E-009  0.1250329E+03  0.7818608E-02  0.1235018E+00
         21   -1    0    0  502  501  0.00000000000E+00  0.00000000000E+00  0.35381829049E+02  0.35381829049E+02  0.00000000000E+00 0. -1.
         21   -1    0    0  501  502 -0.00000000000E+00 -0.00000000000E+00 -0.11046088939E+03  0.11046088939E+03  0.00000000000E+00 0. -1.
         25    2    1    2    0    0  0.00000000000E+00  0.00000000000E+00 -0.75079060341E+02  0.14584271844E+03  0.12503292854E+03 0.  0.
        -11    1    3    3    0    0  0.60519771243E+02  0.12128419260E+02 -0.49120000651E+02  0.78882924193E+02  0.51100000000E-03 0. -1.
         11    1    3    3    0    0 -0.60519771243E+02 -0.12128419260E+02 -0.25959059691E+02  0.66959794245E+02  0.51100000000E-03 0. -1.
<mgrwt>
<rscale>  0 0.12503293E+03</rscale>
<asrwt>0</asrwt>
<pdfrwt beam="1">  1       21 0.54433583E-02 0.12503293E+03</pdfrwt>
<pdfrwt beam="2">  1       21 0.16993983E-01 0.12503293E+03</pdfrwt>
<totfact> 0.71225683E+06</totfact>
</mgrwt>
</event>
<event>
 5    1  0.1829803E-009  0.1249916E+03  0.7818608E-02  0.1235082E+00
         21   -1    0    0  502  501  0.00000000000E+00  0.00000000000E+00  0.36351758671E+02  0.36351758671E+02  0.00000000000E+00 0. -1.
         21   -1    0    0  501  502 -0.00000000000E+00 -0.00000000000E+00 -0.10744252619E+03  0.10744252619E+03  0.00000000000E+00 0. -1.
         25    2    1    2    0    0  0.00000000000E+00  0.00000000000E+00 -0.71090767514E+02  0.14379428486E+03  0.12499159624E+03 0.  0.
        -11    1    3    3    0    0 -0.34325887994E+02  0.25973184295E+02  0.16578842307E+02  0.46127333561E+02  0.51100000000E-03 0.  1.
         11    1    3    3    0    0  0.34325887994E+02 -0.25973184295E+02 -0.87669609821E+02  0.97666951295E+02  0.51100000000E-03 0.  1.
<mgrwt>
<rscale>  0 0.12499160E+03</rscale>
<asrwt>0</asrwt>
<pdfrwt beam="1">  1       21 0.55925783E-02 0.12499160E+03</pdfrwt>
<pdfrwt beam="2">  1       21 0.16529619E-01 0.12499160E+03</pdfrwt>
<totfact> 0.71563076E+06</totfact>
</mgrwt>
</event>
<event>
 5    1  0.5364534E-009  0.1250003E+03  0.7818608E-02  0.1235069E+00
         21   -1    0    0  502  501  0.00000000000E+00  0.00000000000E+00  0.75564561777E+03  0.75564561777E+03  0.00000000000E+00 0.  1.
         21   -1    0    0  501  502 -0.00000000000E+00 -0.00000000000E+00 -0.51694467940E+01  0.51694467940E+01  0.00000000000E+00 0.  1.
         25    2    1    2    0    0  0.00000000000E+00  0.00000000000E+00  0.75047617098E+03  0.76081506457E+03  0.12500031706E+03 0.  0.
        -11    1    3    3    0    0 -0.95510363426E+00  0.62492167985E+02  0.37702852680E+03  0.38217364287E+03  0.51100000000E-03 0.  1.
         11    1    3    3    0    0  0.95510363426E+00 -0.62492167985E+02  0.37344764418E+03  0.37864142170E+03  0.51100000000E-03 0.  1.
<mgrwt>
<rscale>  0 0.12500032E+03</rscale>
<asrwt>0</asrwt>
<pdfrwt beam="1">  1       21 0.11625308E+00 0.12500032E+03</pdfrwt>
<pdfrwt beam="2">  1       21 0.79530011E-03 0.12500032E+03</pdfrwt>
<totfact> 0.30691861E+06</totfact>
</mgrwt>
</event>
<event>
 5    1  0.1829803E-009  0.1249979E+03  0.7818608E-02  0.1235073E+00
         21   -1    0    0  502  501  0.00000000000E+00  0.00000000000E+00  0.39305480775E+02  0.39305480775E+02  0.00000000000E+00 0. -1.
         21   -1    0    0  501  502 -0.00000000000E+00 -0.00000000000E+00 -0.99378511159E+02  0.99378511159E+02  0.00000000000E+00 0. -1.
         25    2    1    2    0    0  0.00000000000E+00  0.00000000000E+00 -0.60073030383E+02  0.13868399193E+03  0.12499792254E+03 0.  0.
        -11    1    3    3    0    0 -0.37211577967E+02  0.37039488202E+01  0.25523361848E+02  0.45275410235E+02  0.51100000000E-03 0.  1.
         11    1    3    3    0    0  0.37211577967E+02 -0.37039488202E+01 -0.85596392231E+02  0.93408581699E+02  0.51100000000E-03 0.  1.
<mgrwt>
<rscale>  0 0.12499792E+03</rscale>
<asrwt>0</asrwt>
<pdfrwt beam="1">  1       21 0.60469970E-02 0.12499792E+03</pdfrwt>
<pdfrwt beam="2">  1       21 0.15289002E-01 0.12499792E+03</pdfrwt>
<totfact> 0.72215401E+06</totfact>
</mgrwt>
</event>
<event>
 5    1  0.1829803E-009  0.1249984E+03  0.7818608E-02  0.1235072E+00
         21   -1    0    0  502  501  0.00000000000E+00  0.00000000000E+00  0.14555338277E+02  0.14555338277E+02  0.00000000000E+00 0. -1.
         21   -1    0    0  501  502 -0.00000000000E+00 -0.00000000000E+00 -0.26836547396E+03  0.26836547396E+03  0.00000000000E+00 0. -1.
         25    2    1    2    0    0  0.00000000000E+00  0.00000000000E+00 -0.25381013568E+03  0.28292081223E+03  0.12499840408E+03 0.  0.
        -11    1    3    3    0    0  0.27389029419E+02 -0.33976821874E+02 -0.22816683055E+03  0.23230300454E+03  0.51100000000E-03 0.  1.
         11    1    3    3    0    0 -0.27389029419E+02  0.33976821874E+02 -0.25643305133E+02  0.50617807692E+02  0.51100000000E-03 0.  1.
<mgrwt>
<rscale>  0 0.12499840E+03</rscale>
<asrwt>0</asrwt>
<pdfrwt beam="1">  1       21 0.22392828E-02 0.12499840E+03</pdfrwt>
<pdfrwt beam="2">  1       21 0.41286996E-01 0.12499840E+03</pdfrwt>
<totfact> 0.56908359E+06</totfact>
</mgrwt>
</event>
<event>
 4    1  0.1829803E-009  0.1252672E+03  0.7818608E-02  0.1234652E+00
         21   -1    0    0  502  501  0.00000000000E+00  0.00000000000E+00  0.11485306596E+02  0.11485306596E+02  0.00000000000E+00 0.  1.
         21   -1    0    0  501  502 -0.00000000000E+00 -0.00000000000E+00 -0.34156429289E+03  0.34156429289E+03  0.00000000000E+00 0.  1.
        -11    1    1    2    0    0  0.51170760423E+01  0.61433440512E+02 -0.13381802662E+03  0.14733470850E+03  0.51100000000E-03 0. -1.
         11    1    1    2    0    0 -0.51170760423E+01 -0.61433440512E+02 -0.19626095968E+03  0.20571489099E+03  0.51100000000E-03 0. -1.
<mgrwt>
<rscale>  0 0.12526724E+03</rscale>
<asrwt>0</asrwt>
<pdfrwt beam="1">  1       21 0.17669705E-02 0.12526724E+03</pdfrwt>
<pdfrwt beam="2">  1       21 0.52548345E-01 0.12526724E+03</pdfrwt>
<totfact> 0.50971995E+06</totfact>
</mgrwt>
</event>
<event>
 5    1  0.1829803E-009  0.1250001E+03  0.7818608E-02  0.1235069E+00
         21   -1    0    0  502  501  0.00000000000E+00  0.00000000000E+00  0.13546214961E+03  0.13546214961E+03  0.00000000000E+00 0.  1.
         21   -1    0    0  501  502 -0.00000000000E+00 -0.00000000000E+00 -0.28836526268E+02  0.28836526268E+02  0.00000000000E+00 0.  1.
         25    2    1    2    0    0  0.00000000000E+00  0.00000000000E+00  0.10662562334E+03  0.16429867588E+03  0.12500012537E+03 0.  0.
        -11    1    3    3    0    0 -0.25576824518E+02  0.55304221046E+02  0.35027834750E+02  0.70282857265E+02  0.51100000000E-03 0. -1.
         11    1    3    3    0    0  0.25576824518E+02 -0.55304221046E+02  0.71597788592E+02  0.94015818613E+02  0.51100000000E-03 0. -1.
<mgrwt>
<rscale>  0 0.12500013E+03</rscale>
<asrwt>0</asrwt>
<pdfrwt beam="1">  1       21 0.20840330E-01 0.12500013E+03</pdfrwt>
<pdfrwt beam="2">  1       21 0.44363887E-02 0.12500013E+03</pdfrwt>
<totfact> 0.68997802E+06</totfact>
</mgrwt>
</event>
<event>
 5    1  0.1829803E-009  0.1249980E+03  0.7818608E-02  0.1235072E+00
         21   -1    0    0  502  501  0.00000000000E+00  0.00000000000E+00  0.37888272516E+03  0.37888272516E+03  0.00000000000E+00 0. -1.
         21   -1    0    0  501  502 -0.00000000000E+00 -0.00000000000E+00 -0.10309590661E+02  0.10309590661E+02  0.00000000000E+00 0. -1.
         25    2    1    2    0    0  0.00000000000E+00  0.00000000000E+00  0.36857313450E+03  0.38919231582E+03  0.12499801286E+03 0.  0.
        -11    1    3    3    0    0  0.20394256878E+02  0.53924537203E+02  0.10915004461E+03  0.12344032431E+03  0.51100000000E-03 0.  1.
         11    1    3    3    0    0 -0.20394256878E+02 -0.53924537203E+02  0.25942308988E+03  0.26575199151E+03  0.51100000000E-03 0.  1.
<mgrwt>
<rscale>  0 0.12499801E+03</rscale>
<asrwt>0</asrwt>
<pdfrwt beam="1">  1       21 0.58289639E-01 0.12499801E+03</pdfrwt>
<pdfrwt beam="2">  1       21 0.15860912E-02 0.12499801E+03</pdfrwt>
<totfact> 0.48769000E+06</totfact>
</mgrwt>
</event>
<event>
 5    1  0.1829803E-009  0.1250083E+03  0.7818608E-02  0.1235056E+00
         21   -1    0    0  502  501  0.00000000000E+00  0.00000000000E+00  0.18046173575E+03  0.18046173575E+03  0.00000000000E+00 0. -1.
         21   -1    0    0  501  502 -0.00000000000E+00 -0.00000000000E+00 -0.21648733547E+02  0.21648733547E+02  0.00000000000E+00 0. -1.
         25    2    1    2    0    0  0.00000000000E+00  0.00000000000E+00  0.15881300220E+03  0.20211046930E+03  0.12500828825E+03 0.  0.
        -11    1    3    3    0    0 -0.30476084528E+02 -0.52572454630E+02  0.10306416423E+03  0.11964479371E+03  0.51100000000E-03 0.  1.
         11    1    3    3    0    0  0.30476084528E+02  0.52572454630E+02  0.55748837975E+02  0.82465675586E+02  0.51100000000E-03 0.  1.
<mgrwt>
<rscale>  0 0.12500829E+03</rscale>
<asrwt>0</asrwt>
<pdfrwt beam="1">  1       21 0.27763343E-01 0.12500829E+03</pdfrwt>
<pdfrwt beam="2">  1       21 0.33305745E-02 0.12500829E+03</pdfrwt>
<totfact> 0.64685713E+06</totfact>
</mgrwt>
</event>
<event>
 5    1  0.1829803E-009  0.1250072E+03  0.7818608E-02  0.1235058E+00
         21   -1    0    0  502  501  0.00000000000E+00  0.00000000000E+00  0.20714621624E+02  0.20714621624E+02  0.00000000000E+00 0.  1.
         21   -1    0    0  501  502 -0.00000000000E+00 -0.00000000000E+00 -0.18859617659E+03  0.18859617659E+03  0.00000000000E+00 0.  1.
         25    2    1    2    0    0  0.00000000000E+00  0.00000000000E+00 -0.16788155497E+03  0.20931079822E+03  0.12500717480E+03 0.  0.
        -11    1    3    3    0    0  0.57827685166E+02 -0.28249617145E+01 -0.44506243141E+02  0.73026209398E+02  0.51100000000E-03 0. -1.
         11    1    3    3    0    0 -0.57827685166E+02  0.28249617145E+01 -0.12337531183E+03  0.13628458882E+03  0.51100000000E-03 0. -1.
<mgrwt>
<rscale>  0 0.12500717E+03</rscale>
<asrwt>0</asrwt>
<pdfrwt beam="1">  1       21 0.31868649E-02 0.12500717E+03</pdfrwt>
<pdfrwt beam="2">  1       21 0.29014796E-01 0.12500717E+03</pdfrwt>
<totfact> 0.63920518E+06</totfact>
</mgrwt>
</event>
<event>
 5    1  0.1829803E-009  0.1249983E+03  0.7818608E-02  0.1235072E+00
         21   -1    0    0  502  501  0.00000000000E+00  0.00000000000E+00  0.13637939231E+03  0.13637939231E+03  0.00000000000E+00 0. -1.
         21   -1    0    0  501  502 -0.00000000000E+00 -0.00000000000E+00 -0.28641723502E+02  0.28641723502E+02  0.00000000000E+00 0. -1.
         25    2    1    2    0    0  0.00000000000E+00  0.00000000000E+00  0.10773766881E+03  0.16502111581E+03  0.12499825352E+03 0.  0.
        -11    1    3    3    0    0  0.62088270013E+02  0.69502961026E+01  0.56109638713E+02  0.83973516336E+02  0.51100000000E-03 0. -1.
         11    1    3    3    0    0 -0.62088270013E+02 -0.69502961026E+01  0.51628030093E+02  0.81047599474E+02  0.51100000000E-03 0. -1.
<mgrwt>
<rscale>  0 0.12499825E+03</rscale>
<asrwt>0</asrwt>
<pdfrwt beam="1">  1       21 0.20981445E-01 0.12499825E+03</pdfrwt>
<pdfrwt beam="2">  1       21 0.44064191E-02 0.12499825E+03</pdfrwt>
<totfact> 0.68914174E+06</totfact>
</mgrwt>
</event>
<event>
 5    1  0.1829803E-009  0.1249950E+03  0.7818608E-02  0.1235077E+00
         21   -1    0    0  502  501  0.00000000000E+00  0.00000000000E+00  0.11779470591E+03  0.11779470591E+03  0.00000000000E+00 0.  1.
         21   -1    0    0  501  502 -0.00000000000E+00 -0.00000000000E+00 -0.33158866894E+02  0.33158866894E+02  0.00000000000E+00 0.  1.
         25    2    1    2    0    0  0.00000000000E+00  0.00000000000E+00  0.84635839020E+02  0.15095357281E+03  0.12499502349E+03 0.  0.
        -11    1    3    3    0    0  0.36957618206E+02  0.22050520614E+02  0.97049100651E+02  0.10616317130E+03  0.51100000000E-03 0.  1.
         11    1    3    3    0    0 -0.36957618206E+02 -0.22050520614E+02 -0.12413261630E+02  0.44790401509E+02  0.51100000000E-03 0.  1.
<mgrwt>
<rscale>  0 0.12499502E+03</rscale>
<asrwt>0</asrwt>
<pdfrwt beam="1">  1       21 0.18122262E-01 0.12499502E+03</pdfrwt>
<pdfrwt beam="2">  1       21 0.51013642E-02 0.12499502E+03</pdfrwt>
<totfact> 0.70648568E+06</totfact>
</mgrwt>
</event>
<event>
 5    1  0.1829803E-009  0.1249996E+03  0.7818608E-02  0.1235070E+00
         21   -1    0    0  502  501  0.00000000000E+00  0.00000000000E+00  0.47139736826E+03  0.47139736826E+03  0.00000000000E+00 0.  1.
         21   -1    0    0  501  502 -0.00000000000E+00 -0.00000000000E+00 -0.82864786661E+01  0.82864786661E+01  0.00000000000E+00 0.  1.
         25    2    1    2    0    0  0.00000000000E+00  0.00000000000E+00  0.46311088959E+03  0.47968384692E+03  0.12499958776E+03 0.  0.
        -11    1    3    3    0    0  0.29527978179E+02  0.54455755244E+02  0.26340735725E+03  0.27059336028E+03  0.51100000000E-03 0. -1.
         11    1    3    3    0    0 -0.29527978179E+02 -0.54455755244E+02  0.19970353235E+03  0.20909048665E+03  0.51100000000E-03 0. -1.
<mgrwt>
<rscale>  0 0.12499959E+03</rscale>
<asrwt>0</asrwt>
<pdfrwt beam="1">  1       21 0.72522651E-01 0.12499959E+03</pdfrwt>
<pdfrwt beam="2">  1       21 0.12748432E-02 0.12499959E+03</pdfrwt>
<totfact> 0.43168185E+06</totfact>
</mgrwt>
</event>
<event>
 5    1  0.1829803E-009  0.1249987E+03  0.7818608E-02  0.1235071E+00
         21   -1    0    0  502  501  0.00000000000E+00  0.00000000000E+00  0.69645249626E+01  0.69645249626E+01  0.00000000000E+00 0. -1.
         21   -1    0    0  501  502 -0.00000000000E+00 -0.00000000000E+00 -0.56086636616E+03  0.56086636616E+03  0.00000000000E+00 0. -1.
         25    2    1    2    0    0  0.00000000000E+00  0.00000000000E+00 -0.55390184120E+03  0.56783089113E+03  0.12499868492E+03 0.  0.
        -11    1    3    3    0    0  0.15593435270E+02  0.60060153698E+02 -0.24302014531E+03  0.25081700164E+03  0.51100000000E-03 0. -1.
         11    1    3    3    0    0 -0.15593435270E+02 -0.60060153698E+02 -0.31088169589E+03  0.31701388949E+03  0.51100000000E-03 0. -1.
<mgrwt>
<rscale>  0 0.12499868E+03</rscale>
<asrwt>0</asrwt>
<pdfrwt beam="1">  1       21 0.10714654E-02 0.12499868E+03</pdfrwt>
<pdfrwt beam="2">  1       21 0.86287130E-01 0.12499868E+03</pdfrwt>
<totfact> 0.38590322E+06</totfact>
</mgrwt>
</event>
<event>
 5    1  0.1829803E-009  0.1249990E+03  0.7818608E-02  0.1235071E+00
         21   -1    0    0  502  501  0.00000000000E+00  0.00000000000E+00  0.42627422685E+02  0.42627422685E+02  0.00000000000E+00 0. -1.
         21   -1    0    0  501  502 -0.00000000000E+00 -0.00000000000E+00 -0.91635482534E+02  0.91635482534E+02  0.00000000000E+00 0. -1.
         25    2    1    2    0    0  0.00000000000E+00  0.00000000000E+00 -0.49008059849E+02  0.13426290522E+03  0.12499895115E+03 0.  0.
        -11    1    3    3    0    0 -0.34496303153E+02  0.17338837067E+02 -0.77294808692E+02  0.86400912339E+02  0.51100000000E-03 0.  1.
         11    1    3    3    0    0  0.34496303153E+02 -0.17338837067E+02  0.28286748843E+02  0.47861992880E+02  0.51100000000E-03 0.  1.
<mgrwt>
<rscale>  0 0.12499895E+03</rscale>
<asrwt>0</asrwt>
<pdfrwt beam="1">  1       21 0.65580650E-02 0.12499895E+03</pdfrwt>
<pdfrwt beam="2">  1       21 0.14097767E-01 0.12499895E+03</pdfrwt>
<totfact> 0.72796164E+06</totfact>
</mgrwt>
</event>
<event>
 5    1  0.1829803E-009  0.1250168E+03  0.7818608E-02  0.1235043E+00
         21   -1    0    0  502  501  0.00000000000E+00  0.00000000000E+00  0.48375105424E+03  0.48375105424E+03  0.00000000000E+00 0.  1.
         21   -1    0    0  501  502 -0.00000000000E+00 -0.00000000000E+00 -0.80770894892E+01  0.80770894892E+01  0.00000000000E+00 0.  1.
         25    2    1    2    0    0  0.00000000000E+00  0.00000000000E+00  0.47567396475E+03  0.49182814373E+03  0.12501680776E+03 0.  0.
        -11    1    3    3    0    0  0.54527586875E+02 -0.28600237227E+02  0.28022114143E+03  0.28690611601E+03  0.51100000000E-03 0. -1.
         11    1    3    3    0    0 -0.54527586875E+02  0.28600237227E+02  0.19545282331E+03  0.20492202771E+03  0.51100000000E-03 0. -1.
<mgrwt>
<rscale>  0 0.12501681E+03</rscale>
<asrwt>0</asrwt>
<pdfrwt beam="1">  1       21 0.74423217E-01 0.12501681E+03</pdfrwt>
<pdfrwt beam="2">  1       21 0.12426295E-02 0.12501681E+03</pdfrwt>
<totfact> 0.42472970E+06</totfact>
</mgrwt>
</event>
<event>
 5    1  0.1829803E-009  0.1250028E+03  0.7818608E-02  0.1235065E+00
         21   -1    0    0  502  501  0.00000000000E+00  0.00000000000E+00  0.11439800465E+02  0.11439800465E+02  0.00000000000E+00 0.  1.
         21   -1    0    0  501  502 -0.00000000000E+00 -0.00000000000E+00 -0.34147693834E+03  0.34147693834E+03  0.00000000000E+00 0.  1.
         25    2    1    2    0    0  0.00000000000E+00  0.00000000000E+00 -0.33003713787E+03  0.35291673880E+03  0.12500284857E+03 0.  0.
        -11    1    3    3    0    0 -0.42723008575E+02 -0.29996201254E+02 -0.26205859850E+03  0.26720729144E+03  0.51100000000E-03 0. -1.
         11    1    3    3    0    0  0.42723008575E+02  0.29996201254E+02 -0.67978539373E+02  0.85709447361E+02  0.51100000000E-03 0. -1.
<mgrwt>
<rscale>  0 0.12500285E+03</rscale>
<asrwt>0</asrwt>
<pdfrwt beam="1">  1       21 0.17599691E-02 0.12500285E+03</pdfrwt>
<pdfrwt beam="2">  1       21 0.52534920E-01 0.12500285E+03</pdfrwt>
<totfact> 0.51320077E+06</totfact>
</mgrwt>
</event>
<event>
 5    1  0.1829803E-009  0.1250004E+03  0.7818608E-02  0.1235069E+00
         21   -1    0    0  502  501  0.00000000000E+00  0.00000000000E+00  0.27242965869E+02  0.27242965869E+02  0.00000000000E+00 0.  1.
         21   -1    0    0  501  502 -0.00000000000E+00 -0.00000000000E+00 -0.14338661032E+03  0.14338661032E+03  0.00000000000E+00 0.  1.
         25    2    1    2    0    0  0.00000000000E+00  0.00000000000E+00 -0.11614364445E+03  0.17062957619E+03  0.12500042449E+03 0.  0.
        -11    1    3    3    0    0  0.54807893962E+02 -0.16163102341E+02 -0.23508592326E+02  0.61788389130E+02  0.51100000000E-03 0. -1.
         11    1    3    3    0    0 -0.54807893962E+02  0.16163102341E+02 -0.92635052122E+02  0.10884118706E+03  0.51100000000E-03 0. -1.
<mgrwt>
<rscale>  0 0.12500042E+03</rscale>
<asrwt>0</asrwt>
<pdfrwt beam="1">  1       21 0.41912255E-02 0.12500042E+03</pdfrwt>
<pdfrwt beam="2">  1       21 0.22059478E-01 0.12500042E+03</pdfrwt>
<totfact> 0.68242346E+06</totfact>
</mgrwt>
</event>
<event>
 5    1  0.1829803E-009  0.1250067E+03  0.7818608E-02  0.1235059E+00
         21   -1    0    0  502  501  0.00000000000E+00  0.00000000000E+00  0.19392586517E+02  0.19392586517E+02  0.00000000000E+00 0. -1.
         21   -1    0    0  501  502 -0.00000000000E+00 -0.00000000000E+00 -0.20145167349E+03  0.20145167349E+03  0.00000000000E+00 0. -1.
         25    2    1    2    0    0  0.00000000000E+00  0.00000000000E+00 -0.18205908697E+03  0.22084426000E+03  0.12500670393E+03 0.  0.
        -11    1    3    3    0    0 -0.34478036710E+02  0.45269675889E+02 -0.13671025836E+03  0.14808029346E+03  0.51100000000E-03 0.  1.
         11    1    3    3    0    0  0.34478036710E+02 -0.45269675889E+02 -0.45348828611E+02  0.72763966543E+02  0.51100000000E-03 0.  1.
<mgrwt>
<rscale>  0 0.12500670E+03</rscale>
<asrwt>0</asrwt>
<pdfrwt beam="1">  1       21 0.29834750E-02 0.12500670E+03</pdfrwt>
<pdfrwt beam="2">  1       21 0.30992564E-01 0.12500670E+03</pdfrwt>
<totfact> 0.62725718E+06</totfact>
</mgrwt>
</event>
<event>
 5    1  0.1829803E-009  0.1249984E+03  0.7818608E-02  0.1235072E+00
         21   -1    0    0  502  501  0.00000000000E+00  0.00000000000E+00  0.35500280109E+02  0.35500280109E+02  0.00000000000E+00 0.  1.
         21   -1    0    0  501  502 -0.00000000000E+00 -0.00000000000E+00 -0.11003153810E+03  0.11003153810E+03  0.00000000000E+00 0.  1.
         25    2    1    2    0    0  0.00000000000E+00  0.00000000000E+00 -0.74531257988E+02  0.14553181821E+03  0.12499840676E+03 0.  0.
        -11    1    3    3    0    0  0.28694559092E+02  0.36601684701E+02  0.11342992618E+02  0.47871959707E+02  0.51100000000E-03 0. -1.
         11    1    3    3    0    0 -0.28694559092E+02 -0.36601684701E+02 -0.85874250606E+02  0.97659858498E+02  0.51100000000E-03 0. -1.
<mgrwt>
<rscale>  0 0.12499841E+03</rscale>
<asrwt>0</asrwt>
<pdfrwt beam="1">  1       21 0.54615817E-02 0.12499841E+03</pdfrwt>
<pdfrwt beam="2">  1       21 0.16927929E-01 0.12499841E+03</pdfrwt>
<totfact> 0.71328003E+06</totfact>
</mgrwt>
</event>
<event>
 5    1  0.1829803E-009  0.1249953E+03  0.7818608E-02  0.1235077E+00
         21   -1    0    0  502  501  0.00000000000E+00  0.00000000000E+00  0.15171619430E+03  0.15171619430E+03  0.00000000000E+00 0.  1.
         21   -1    0    0  501  502 -0.00000000000E+00 -0.00000000000E+00 -0.25745130363E+02  0.25745130363E+02  0.00000000000E+00 0.  1.
         25    2    1    2    0    0  0.00000000000E+00  0.00000000000E+00  0.12597106394E+03  0.17746132466E+03  0.12499525112E+03 0.  0.
        -11    1    3    3    0    0  0.57721739490E+02  0.19844987147E+02  0.43920182528E+02  0.75197108709E+02  0.51100000000E-03 0.  1.
         11    1    3    3    0    0 -0.57721739490E+02 -0.19844987147E+02  0.82050881409E+02  0.10226421595E+03  0.51100000000E-03 0.  1.
<mgrwt>
<rscale>  0 0.12499525E+03</rscale>
<asrwt>0</asrwt>
<pdfrwt beam="1">  1       21 0.23340952E-01 0.12499525E+03</pdfrwt>
<pdfrwt beam="2">  1       21 0.39607894E-02 0.12499525E+03</pdfrwt>
<totfact> 0.67452091E+06</totfact>
</mgrwt>
</event>
<event>
 5    1  0.1829803E-009  0.1250004E+03  0.7818608E-02  0.1235069E+00
         21   -1    0    0  502  501  0.00000000000E+00  0.00000000000E+00  0.32199340069E+02  0.32199340069E+02  0.00000000000E+00 0.  1.
         21   -1    0    0  501  502 -0.00000000000E+00 -0.00000000000E+00 -0.12131531578E+03  0.12131531578E+03  0.00000000000E+00 0.  1.
         25    2    1    2    0    0  0.00000000000E+00  0.00000000000E+00 -0.89115975713E+02  0.15351465585E+03  0.12500036973E+03 0.  0.
        -11    1    3    3    0    0 -0.26204249467E+02  0.56461716932E+02 -0.37645012893E+02  0.72744313626E+02  0.51100000000E-03 0.  1.
         11    1    3    3    0    0  0.26204249467E+02 -0.56461716932E+02 -0.51470962820E+02  0.80770342224E+02  0.51100000000E-03 0.  1.
<mgrwt>
<rscale>  0 0.12500037E+03</rscale>
<asrwt>0</asrwt>
<pdfrwt beam="1">  1       21 0.49537446E-02 0.12500037E+03</pdfrwt>
<pdfrwt beam="2">  1       21 0.18663895E-01 0.12500037E+03</pdfrwt>
<totfact> 0.70319776E+06</totfact>
</mgrwt>
</event>
<event>
 5    1  0.1829803E-009  0.1250099E+03  0.7818608E-02  0.1235054E+00
         21   -1    0    0  502  501  0.00000000000E+00  0.00000000000E+00  0.30709196560E+03  0.30709196560E+03  0.00000000000E+00 0. -1.
         21   -1    0    0  501  502 -0.00000000000E+00 -0.00000000000E+00 -0.12722149816E+02  0.12722149816E+02  0.00000000000E+00 0. -1.
         25    2    1    2    0    0  0.00000000000E+00  0.00000000000E+00  0.29436981579E+03  0.31981411542E+03  0.12500991951E+03 0.  0.
        -11    1    3    3    0    0 -0.18055697319E+02  0.57306159072E+02  0.19126406940E+03  0.20047929648E+03  0.51100000000E-03 0. -1.
         11    1    3    3    0    0  0.18055697319E+02 -0.57306159072E+02  0.10310574639E+03  0.11933481894E+03  0.51100000000E-03 0. -1.
<mgrwt>
<rscale>  0 0.12500992E+03</rscale>
<asrwt>0</asrwt>
<pdfrwt beam="1">  1       21 0.47244912E-01 0.12500992E+03</pdfrwt>
<pdfrwt beam="2">  1       21 0.19572541E-02 0.12500992E+03</pdfrwt>
<totfact> 0.53834680E+06</totfact>
</mgrwt>
</event>
<event>
 5    1  0.1829803E-009  0.1249998E+03  0.7818608E-02  0.1235070E+00
         21   -1    0    0  502  501  0.00000000000E+00  0.00000000000E+00  0.21497738542E+02  0.21497738542E+02  0.00000000000E+00 0.  1.
         21   -1    0    0  501  502 -0.00000000000E+00 -0.00000000000E+00 -0.18170455877E+03  0.18170455877E+03  0.00000000000E+00 0.  1.
         25    2    1    2    0    0  0.00000000000E+00  0.00000000000E+00 -0.16020682023E+03  0.20320229731E+03  0.12499979354E+03 0.  0.
        -11    1    3    3    0    0 -0.43249673761E+02 -0.36242003794E+02 -0.36416224646E+02  0.67157713906E+02  0.51100000000E-03 0. -1.
         11    1    3    3    0    0  0.43249673761E+02  0.36242003794E+02 -0.12379059558E+03  0.13604458341E+03  0.51100000000E-03 0. -1.
<mgrwt>
<rscale>  0 0.12499979E+03</rscale>
<asrwt>0</asrwt>
<pdfrwt beam="1">  1       21 0.33073444E-02 0.12499979E+03</pdfrwt>
<pdfrwt beam="2">  1       21 0.27954547E-01 0.12499979E+03</pdfrwt>
<totfact> 0.64582243E+06</totfact>
</mgrwt>
</event>
<event>
 5    1  0.1829803E-009  0.1249963E+03  0.7818608E-02  0.1235075E+00
         21   -1    0    0  502  501  0.00000000000E+00  0.00000000000E+00  0.44622290183E+02  0.44622290183E+02  0.00000000000E+00 0.  1.
         21   -1    0    0  501  502 -0.00000000000E+00 -0.00000000000E+00 -0.87535153036E+02  0.87535153036E+02  0.00000000000E+00 0.  1.
         25    2    1    2    0    0  0.00000000000E+00  0.00000000000E+00 -0.42912862853E+02  0.13215744322E+03  0.12499630394E+03 0.  0.
        -11    1    3    3    0    0  0.21760771130E+01  0.61921339029E+02 -0.30112761321E+02  0.68889519765E+02  0.51100000000E-03 0. -1.
         11    1    3    3    0    0 -0.21760771130E+01 -0.61921339029E+02 -0.12800101531E+02  0.63267923454E+02  0.51100000000E-03 0. -1.
<mgrwt>
<rscale>  0 0.12499630E+03</rscale>
<asrwt>0</asrwt>
<pdfrwt beam="1">  1       21 0.68649678E-02 0.12499630E+03</pdfrwt>
<pdfrwt beam="2">  1       21 0.13466946E-01 0.12499630E+03</pdfrwt>
<totfact> 0.73082009E+06</totfact>
</mgrwt>
</event>
<event>
 5    1  0.1829803E-009  0.1249995E+03  0.7818608E-02  0.1235070E+00
         21   -1    0    0  502  501  0.00000000000E+00  0.00000000000E+00  0.26033073778E+02  0.26033073778E+02  0.00000000000E+00 0.  1.
         21   -1    0    0  501  502 -0.00000000000E+00 -0.00000000000E+00 -0.15004829061E+03  0.15004829061E+03  0.00000000000E+00 0.  1.
         25    2    1    2    0    0  0.00000000000E+00  0.00000000000E+00 -0.12401521684E+03  0.17608136439E+03  0.12499949152E+03 0.  0.
        -11    1    3    3    0    0 -0.62481867525E+01 -0.61516893074E+02 -0.74829498681E+02  0.97071220474E+02  0.51100000000E-03 0. -1.
         11    1    3    3    0    0  0.62481867525E+01  0.61516893074E+02 -0.49185718156E+02  0.79010143918E+02  0.51100000000E-03 0. -1.
<mgrwt>
<rscale>  0 0.12499949E+03</rscale>
<asrwt>0</asrwt>
<pdfrwt beam="1">  1       21 0.40050882E-02 0.12499949E+03</pdfrwt>
<pdfrwt beam="2">  1       21 0.23084353E-01 0.12499949E+03</pdfrwt>
<totfact> 0.67604810E+06</totfact>
</mgrwt>
</event>
<event>
 5    1  0.1829803E-009  0.1250020E+03  0.7818608E-02  0.1235066E+00
         21   -1    0    0  502  501  0.00000000000E+00  0.00000000000E+00  0.32555655619E+03  0.32555655619E+03  0.00000000000E+00 0.  1.
         21   -1    0    0  501  502 -0.00000000000E+00 -0.00000000000E+00 -0.11999060579E+02  0.11999060579E+02  0.00000000000E+00 0.  1.
         25    2    1    2    0    0  0.00000000000E+00  0.00000000000E+00  0.31355749561E+03  0.33755561677E+03  0.12500196542E+03 0.  0.
        -11    1    3    3    0    0 -0.55214044443E+02  0.15985984322E+02  0.90509834447E+02  0.10722020579E+03  0.51100000000E-03 0. -1.
         11    1    3    3    0    0  0.55214044443E+02 -0.15985984322E+02  0.22304766116E+03  0.23033541098E+03  0.51100000000E-03 0. -1.
<mgrwt>
<rscale>  0 0.12500197E+03</rscale>
<asrwt>0</asrwt>
<pdfrwt beam="1">  1       21 0.50085617E-01 0.12500197E+03</pdfrwt>
<pdfrwt beam="2">  1       21 0.18460096E-02 0.12500197E+03</pdfrwt>
<totfact> 0.52468244E+06</totfact>
</mgrwt>
</event>
<event>
 5    1  0.1829803E-009  0.1250072E+03  0.7818608E-02  0.1235058E+00
         21   -1    0    0  502  501  0.00000000000E+00  0.00000000000E+00  0.84160990582E+02  0.84160990582E+02  0.00000000000E+00 0.  1.
         21   -1    0    0  501  502 -0.00000000000E+00 -0.00000000000E+00 -0.46419358009E+02  0.46419358009E+02  0.00000000000E+00 0.  1.
         25    2    1    2    0    0  0.00000000000E+00  0.00000000000E+00  0.37741632573E+02  0.13058034859E+03  0.12500718623E+03 0.  0.
        -11    1    3    3    0    0 -0.88458859702E+01 -0.61429798899E+02  0.11136017174E+02  0.63054585639E+02  0.51100000000E-03 0. -1.
         11    1    3    3    0    0  0.88458859702E+01  0.61429798899E+02  0.26605615399E+02  0.67525762953E+02  0.51100000000E-03 0. -1.
<mgrwt>
<rscale>  0 0.12500719E+03</rscale>
<asrwt>0</asrwt>
<pdfrwt beam="1">  1       21 0.12947845E-01 0.12500719E+03</pdfrwt>
<pdfrwt beam="2">  1       21 0.71414397E-02 0.12500719E+03</pdfrwt>
<totfact> 0.73273845E+06</totfact>
</mgrwt>
</event>
<event>
 5    1  0.1829803E-009  0.1250002E+03  0.7818608E-02  0.1235069E+00
         21   -1    0    0  502  501  0.00000000000E+00  0.00000000000E+00  0.28903554693E+02  0.28903554693E+02  0.00000000000E+00 0.  1.
         21   -1    0    0  501  502 -0.00000000000E+00 -0.00000000000E+00 -0.13514822868E+03  0.13514822868E+03  0.00000000000E+00 0.  1.
         25    2    1    2    0    0  0.00000000000E+00  0.00000000000E+00 -0.10624467399E+03  0.16405178337E+03  0.12500022751E+03 0.  0.
        -11    1    3    3    0    0  0.17535226825E+02 -0.59975330079E+02 -0.51391235855E+02  0.80904780581E+02  0.51100000000E-03 0.  1.
         11    1    3    3    0    0 -0.17535226825E+02  0.59975330079E+02 -0.54853438132E+02  0.83147002791E+02  0.51100000000E-03 0.  1.
<mgrwt>
<rscale>  0 0.12500023E+03</rscale>
<asrwt>0</asrwt>
<pdfrwt beam="1">  1       21 0.44467007E-02 0.12500023E+03</pdfrwt>
<pdfrwt beam="2">  1       21 0.20792035E-01 0.12500023E+03</pdfrwt>
<totfact> 0.69027371E+06</totfact>
</mgrwt>
</event>
<event>
 5    1  0.1829803E-009  0.1250010E+03  0.7818608E-02  0.1235068E+00
         21   -1    0    0  502  501  0.00000000000E+00  0.00000000000E+00  0.67260776898E+02  0.67260776898E+02  0.00000000000E+00 0. -1.
         21   -1    0    0  501  502 -0.00000000000E+00 -0.00000000000E+00 -0.58077094408E+02  0.58077094408E+02  0.00000000000E+00 0. -1.
         25    2    1    2    0    0  0.00000000000E+00  0.00000000000E+00  0.91836824896E+01  0.12533787131E+03  0.12500096783E+03 0.  0.
        -11    1    3    3    0    0 -0.43169691444E+02  0.24369167528E+02  0.42757954910E+02  0.65465420595E+02  0.51100000000E-03 0. -1.
         11    1    3    3    0    0  0.43169691444E+02 -0.24369167528E+02 -0.33574272420E+02  0.59872450711E+02  0.51100000000E-03 0. -1.
<mgrwt>
<rscale>  0 0.12500097E+03</rscale>
<asrwt>0</asrwt>
<pdfrwt beam="1">  1       21 0.10347812E-01 0.12500097E+03</pdfrwt>
<pdfrwt beam="2">  1       21 0.89349375E-02 0.12500097E+03</pdfrwt>
<totfact> 0.73996129E+06</totfact>
</mgrwt>
</event>
<event>
 5    1  0.1829803E-009  0.1250007E+03  0.7818608E-02  0.1235068E+00
         21   -1    0    0  502  501  0.00000000000E+00  0.00000000000E+00  0.15530851502E+03  0.15530851502E+03  0.00000000000E+00 0. -1.
         21   -1    0    0  501  502 -0.00000000000E+00 -0.00000000000E+00 -0.25151822880E+02  0.25151822880E+02  0.00000000000E+00 0. -1.
         25    2    1    2    0    0  0.00000000000E+00  0.00000000000E+00  0.13015669214E+03  0.18046033790E+03  0.12500067618E+03 0.  0.
        -11    1    3    3    0    0  0.27784436821E+02  0.44662066564E+02  0.11381423485E+03  0.12538084054E+03  0.51100000000E-03 0. -1.
         11    1    3    3    0    0 -0.27784436821E+02 -0.44662066564E+02  0.16342457291E+02  0.55079497363E+02  0.51100000000E-03 0. -1.
<mgrwt>
<rscale>  0 0.12500068E+03</rscale>
<asrwt>0</asrwt>
<pdfrwt beam="1">  1       21 0.23893617E-01 0.12500068E+03</pdfrwt>
<pdfrwt beam="2">  1       21 0.38695113E-02 0.12500068E+03</pdfrwt>
<totfact> 0.67097617E+06</totfact>
</mgrwt>
</event>
<event>
 5    1  0.1829803E-009  0.1250003E+03  0.7818608E-02  0.1235069E+00
         21   -1    0    0  502  501  0.00000000000E+00  0.00000000000E+00  0.34193340879E+02  0.34193340879E+02  0.00000000000E+00 0.  1.
         21   -1    0    0  501  502 -0.00000000000E+00 -0.00000000000E+00 -0.11424056911E+03  0.11424056911E+03  0.00000000000E+00 0.  1.
         25    2    1    2    0    0  0.00000000000E+00  0.00000000000E+00 -0.80047228230E+02  0.14843390999E+03  0.12500026755E+03 0.  0.
        -11    1    3    3    0    0  0.50263249929E+02  0.35747510886E+02 -0.52015748752E+02  0.80684056334E+02  0.51100000000E-03 0.  1.
         11    1    3    3    0    0 -0.50263249929E+02 -0.35747510886E+02 -0.28031479477E+02  0.67749853653E+02  0.51100000000E-03 0.  1.
<mgrwt>
<rscale>  0 0.12500027E+03</rscale>
<asrwt>0</asrwt>
<pdfrwt beam="1">  1       21 0.52605139E-02 0.12500027E+03</pdfrwt>
<pdfrwt beam="2">  1       21 0.17575472E-01 0.12500027E+03</pdfrwt>
<totfact> 0.70956005E+06</totfact>
</mgrwt>
</event>
<event>
 5    1  0.1829803E-009  0.1249980E+03  0.7818608E-02  0.1235072E+00
         21   -1    0    0  502  501  0.00000000000E+00  0.00000000000E+00  0.28376473999E+02  0.28376473999E+02  0.00000000000E+00 0. -1.
         21   -1    0    0  501  502 -0.00000000000E+00 -0.00000000000E+00 -0.13765357549E+03  0.13765357549E+03  0.00000000000E+00 0. -1.
         25    2    1    2    0    0  0.00000000000E+00  0.00000000000E+00 -0.10927710149E+03  0.16603004949E+03  0.12499796968E+03 0.  0.
        -11    1    3    3    0    0  0.10189640664E+02  0.60551568118E+02 -0.39159771554E+02  0.72827253737E+02  0.51100000000E-03 0.  1.
         11    1    3    3    0    0 -0.10189640664E+02 -0.60551568118E+02 -0.70117329935E+02  0.93202795751E+02  0.51100000000E-03 0.  1.
<mgrwt>
<rscale>  0 0.12499797E+03</rscale>
<asrwt>0</asrwt>
<pdfrwt beam="1">  1       21 0.43656115E-02 0.12499797E+03</pdfrwt>
<pdfrwt beam="2">  1       21 0.21177473E-01 0.12499797E+03</pdfrwt>
<totfact> 0.68793642E+06</totfact>
</mgrwt>
</event>
<event>
 5    1  0.1829803E-009  0.1250092E+03  0.7818608E-02  0.1235055E+00
         21   -1    0    0  502  501  0.00000000000E+00  0.00000000000E+00  0.19680858068E+02  0.19680858068E+02  0.00000000000E+00 0.  1.
         21   -1    0    0  501  502 -0.00000000000E+00 -0.00000000000E+00 -0.19850885392E+03  0.19850885392E+03  0.00000000000E+00 0.  1.
         25    2    1    2    0    0  0.00000000000E+00  0.00000000000E+00 -0.17882799585E+03  0.21818971199E+03  0.12500919293E+03 0.  0.
        -11    1    3    3    0    0  0.55224110475E+02 -0.27536934005E+02 -0.72061679251E+02  0.94872918838E+02  0.51100000000E-03 0. -1.
         11    1    3    3    0    0 -0.55224110475E+02  0.27536934005E+02 -0.10676631660E+03  0.12331679315E+03  0.51100000000E-03 0. -1.
<mgrwt>
<rscale>  0 0.12500919E+03</rscale>
<asrwt>0</asrwt>
<pdfrwt beam="1">  1       21 0.30278244E-02 0.12500919E+03</pdfrwt>
<pdfrwt beam="2">  1       21 0.30539823E-01 0.12500919E+03</pdfrwt>
<totfact> 0.62993413E+06</totfact>
</mgrwt>
</event>
<event>
 5    1  0.1829803E-009  0.1250003E+03  0.7818608E-02  0.1235069E+00
         21   -1    0    0  502  501  0.00000000000E+00  0.00000000000E+00  0.21904674917E+03  0.21904674917E+03  0.00000000000E+00 0. -1.
         21   -1    0    0  501  502 -0.00000000000E+00 -0.00000000000E+00 -0.17833036106E+02  0.17833036106E+02  0.00000000000E+00 0. -1.
         25    2    1    2    0    0  0.00000000000E+00  0.00000000000E+00  0.20121371307E+03  0.23687978528E+03  0.12500029739E+03 0.  0.
        -11    1    3    3    0    0  0.60125962394E+02  0.14771916683E+02  0.84423699665E+02  0.10469337105E+03  0.51100000000E-03 0.  1.
         11    1    3    3    0    0 -0.60125962394E+02 -0.14771916683E+02  0.11679001340E+03  0.13218641423E+03  0.51100000000E-03 0.  1.
<mgrwt>
<rscale>  0 0.12500030E+03</rscale>
<asrwt>0</asrwt>
<pdfrwt beam="1">  1       21 0.33699498E-01 0.12500030E+03</pdfrwt>
<pdfrwt beam="2">  1       21 0.27435442E-02 0.12500030E+03</pdfrwt>
<totfact> 0.61135454E+06</totfact>
</mgrwt>
</event>
<event>
 5    1  0.1829803E-009  0.1249990E+03  0.7818608E-02  0.1235071E+00
         21   -1    0    0  502  501  0.00000000000E+00  0.00000000000E+00  0.35303351075E+02  0.35303351075E+02  0.00000000000E+00 0. -1.
         21   -1    0    0  501  502 -0.00000000000E+00 -0.00000000000E+00 -0.11064642408E+03  0.11064642408E+03  0.00000000000E+00 0. -1.
         25    2    1    2    0    0  0.00000000000E+00  0.00000000000E+00 -0.75343073006E+02  0.14594977516E+03  0.12499903287E+03 0.  0.
        -11    1    3    3    0    0 -0.45910971474E+02  0.42295225064E+02 -0.34075346120E+02  0.71118440494E+02  0.51100000000E-03 0. -1.
         11    1    3    3    0    0  0.45910971474E+02 -0.42295225064E+02 -0.41267726886E+02  0.74831334663E+02  0.51100000000E-03 0. -1.
<mgrwt>
<rscale>  0 0.12499903E+03</rscale>
<asrwt>0</asrwt>
<pdfrwt beam="1">  1       21 0.54312849E-02 0.12499903E+03</pdfrwt>
<pdfrwt beam="2">  1       21 0.17022527E-01 0.12499903E+03</pdfrwt>
<totfact> 0.71273527E+06</totfact>
</mgrwt>
</event>
<event>
 5    1  0.1829803E-009  0.1250078E+03  0.7818608E-02  0.1235057E+00
         21   -1    0    0  502  501  0.00000000000E+00  0.00000000000E+00  0.15293479681E+02  0.15293479681E+02  0.00000000000E+00 0.  1.
         21   -1    0    0  501  502 -0.00000000000E+00 -0.00000000000E+00 -0.25545131847E+03  0.25545131847E+03  0.00000000000E+00 0.  1.
         25    2    1    2    0    0  0.00000000000E+00  0.00000000000E+00 -0.24015783879E+03  0.27074479815E+03  0.12500783253E+03 0.  0.
        -11    1    3    3    0    0  0.64285476501E+01 -0.59678903662E+02 -0.15783149993E+03  0.16885994237E+03  0.51100000000E-03 0. -1.
         11    1    3    3    0    0 -0.64285476501E+01  0.59678903662E+02 -0.82326338859E+02  0.10188485578E+03  0.51100000000E-03 0. -1.
<mgrwt>
<rscale>  0 0.12500783E+03</rscale>
<asrwt>0</asrwt>
<pdfrwt beam="1">  1       21 0.23528430E-02 0.12500783E+03</pdfrwt>
<pdfrwt beam="2">  1       21 0.39300203E-01 0.12500783E+03</pdfrwt>
<totfact> 0.57966799E+06</totfact>
</mgrwt>
</event>
<event>
 5    1  0.1829803E-009  0.1249981E+03  0.7818608E-02  0.1235072E+00
         21   -1    0    0  502  501  0.00000000000E+00  0.00000000000E+00  0.18842582785E+03  0.18842582785E+03  0.00000000000E+00 0. -1.
         21   -1    0    0  501  502 -0.00000000000E+00 -0.00000000000E+00 -0.20730333385E+02  0.20730333385E+02  0.00000000000E+00 0. -1.
         25    2    1    2    0    0  0.00000000000E+00  0.00000000000E+00  0.16769549447E+03  0.20915616124E+03  0.12499808366E+03 0.  0.
        -11    1    3    3    0    0  0.20175951115E+01  0.55987504038E+02  0.37492929296E+02  0.67412098661E+02  0.51100000000E-03 0. -1.
         11    1    3    3    0    0 -0.20175951115E+01 -0.55987504038E+02  0.13020256517E+03  0.14174406258E+03  0.51100000000E-03 0. -1.
<mgrwt>
<rscale>  0 0.12499808E+03</rscale>
<asrwt>0</asrwt>
<pdfrwt beam="1">  1       21 0.28988588E-01 0.12499808E+03</pdfrwt>
<pdfrwt beam="2">  1       21 0.31892822E-02 0.12499808E+03</pdfrwt>
<totfact> 0.63951527E+06</totfact>
</mgrwt>
</event>
<event>
 5    1  0.1829803E-009  0.1249986E+03  0.7818608E-02  0.1235072E+00
         21   -1    0    0  502  501  0.00000000000E+00  0.00000000000E+00  0.68685164410E+02  0.68685164410E+02  0.00000000000E+00 0.  1.
         21   -1    0    0  501  502 -0.00000000000E+00 -0.00000000000E+00 -0.56870510076E+02  0.56870510076E+02  0.00000000000E+00 0.  1.
         25    2    1    2    0    0  0.00000000000E+00  0.00000000000E+00  0.11814654334E+02  0.12555567449E+03  0.12499856535E+03 0.  0.
        -11    1    3    3    0    0 -0.13920897932E+02 -0.57439504189E+02  0.26322090522E+02  0.64698844584E+02  0.51100000000E-03 0.  1.
         11    1    3    3    0    0  0.13920897932E+02  0.57439504189E+02 -0.14507436188E+02  0.60856829902E+02  0.51100000000E-03 0.  1.
<mgrwt>
<rscale>  0 0.12499857E+03</rscale>
<asrwt>0</asrwt>
<pdfrwt beam="1">  1       21 0.10566948E-01 0.12499857E+03</pdfrwt>
<pdfrwt beam="2">  1       21 0.87493093E-02 0.12499857E+03</pdfrwt>
<totfact> 0.73970327E+06</totfact>
</mgrwt>
</event>
<event>
 5    1  0.1829803E-009  0.1250005E+03  0.7818608E-02  0.1235069E+00
         21   -1    0    0  502  501  0.00000000000E+00  0.00000000000E+00  0.77744205207E+02  0.77744205207E+02  0.00000000000E+00 0.  1.
         21   -1    0    0  501  502 -0.00000000000E+00 -0.00000000000E+00 -0.50245298985E+02  0.50245298985E+02  0.00000000000E+00 0.  1.
         25    2    1    2    0    0  0.00000000000E+00  0.00000000000E+00  0.27498906222E+02  0.12798950419E+03  0.12500049336E+03 0.  0.
        -11    1    3    3    0    0  0.31505721974E+02  0.15126020149E+02  0.66804239540E+02  0.75393722705E+02  0.51100000000E-03 0. -1.
         11    1    3    3    0    0 -0.31505721974E+02 -0.15126020149E+02 -0.39305333318E+02  0.52595781486E+02  0.51100000000E-03 0. -1.
<mgrwt>
<rscale>  0 0.12500049E+03</rscale>
<asrwt>0</asrwt>
<pdfrwt beam="1">  1       21 0.11960647E-01 0.12500049E+03</pdfrwt>
<pdfrwt beam="2">  1       21 0.77300460E-02 0.12500049E+03</pdfrwt>
<totfact> 0.73634050E+06</totfact>
</mgrwt>
</event>
<event>
 5    1  0.1829803E-009  0.1249992E+03  0.7818608E-02  0.1235070E+00
         21   -1    0    0  502  501  0.00000000000E+00  0.00000000000E+00  0.54770285164E+02  0.54770285164E+02  0.00000000000E+00 0.  1.
         21   -1    0    0  501  502 -0.00000000000E+00 -0.00000000000E+00 -0.71319720994E+02  0.71319720994E+02  0.00000000000E+00 0.  1.
         25    2    1    2    0    0  0.00000000000E+00  0.00000000000E+00 -0.16549435830E+02  0.12609000616E+03  0.12499922330E+03 0.  0.
        -11    1    3    3    0    0  0.73339826816E+01 -0.39948885102E+02 -0.56191880233E+02  0.69334177195E+02  0.51100000000E-03 0. -1.
         11    1    3    3    0    0 -0.73339826816E+01  0.39948885102E+02  0.39642444403E+02  0.56755828964E+02  0.51100000000E-03 0. -1.
<mgrwt>
<rscale>  0 0.12499922E+03</rscale>
<asrwt>0</asrwt>
<pdfrwt beam="1">  1       21 0.84261978E-02 0.12499922E+03</pdfrwt>
<pdfrwt beam="2">  1       21 0.10972265E-01 0.12499922E+03</pdfrwt>
<totfact> 0.73895102E+06</totfact>
</mgrwt>
</event>
<event>
 5    1  0.1829803E-009  0.1250056E+03  0.7818608E-02  0.1235061E+00
         21   -1    0    0  502  501  0.00000000000E+00  0.00000000000E+00  0.10586263378E+02  0.10586263378E+02  0.00000000000E+00 0.  1.
         21   -1    0    0  501  502 -0.00000000000E+00 -0.00000000000E+00 -0.36902529924E+03  0.36902529924E+03  0.00000000000E+00 0.  1.
         25    2    1    2    0    0  0.00000000000E+00  0.00000000000E+00 -0.35843903586E+03  0.37961156261E+03  0.12500558405E+03 0.  0.
        -11    1    3    3    0    0 -0.46474009294E+01  0.62184503994E+02 -0.19213489087E+03  0.20200080981E+03  0.51100000000E-03 0. -1.
         11    1    3    3    0    0  0.46474009294E+01 -0.62184503994E+02 -0.16630414498E+03  0.17761075280E+03  0.51100000000E-03 0. -1.
<mgrwt>
<rscale>  0 0.12500558E+03</rscale>
<asrwt>0</asrwt>
<pdfrwt beam="1">  1       21 0.16286559E-02 0.12500558E+03</pdfrwt>
<pdfrwt beam="2">  1       21 0.56773122E-01 0.12500558E+03</pdfrwt>
<totfact> 0.49416265E+06</totfact>
</mgrwt>
</event>
<event>
 5    1  0.1829803E-009  0.1250140E+03  0.7818608E-02  0.1235047E+00
         21   -1    0    0  502  501  0.00000000000E+00  0.00000000000E+00  0.12748077588E+02  0.12748077588E+02  0.00000000000E+00 0.  1.
         21   -1    0    0  501  502 -0.00000000000E+00 -0.00000000000E+00 -0.30648759046E+03  0.30648759046E+03  0.00000000000E+00 0.  1.
         25    2    1    2    0    0  0.00000000000E+00  0.00000000000E+00 -0.29373951287E+03  0.31923566804E+03  0.12501404054E+03 0.  0.
        -11    1    3    3    0    0  0.11957629239E+02 -0.58225157145E+02 -0.97487243876E+02  0.11417931748E+03  0.51100000000E-03 0. -1.
         11    1    3    3    0    0 -0.11957629239E+02  0.58225157145E+02 -0.19625226899E+03  0.20505635056E+03  0.51100000000E-03 0. -1.
<mgrwt>
<rscale>  0 0.12501404E+03</rscale>
<asrwt>0</asrwt>
<pdfrwt beam="1">  1       21 0.19612429E-02 0.12501404E+03</pdfrwt>
<pdfrwt beam="2">  1       21 0.47151933E-01 0.12501404E+03</pdfrwt>
<totfact> 0.53874988E+06</totfact>
</mgrwt>
</event>
<event>
 5    1  0.1829803E-009  0.1250001E+03  0.7818608E-02  0.1235069E+00
         21   -1    0    0  502  501  0.00000000000E+00  0.00000000000E+00  0.90491312458E+02  0.90491312458E+02  0.00000000000E+00 0.  1.
         21   -1    0    0  501  502 -0.00000000000E+00 -0.00000000000E+00 -0.43167194740E+02  0.43167194740E+02  0.00000000000E+00 0.  1.
         25    2    1    2    0    0  0.00000000000E+00  0.00000000000E+00  0.47324117718E+02  0.13365850720E+03  0.12500009771E+03 0.  0.
        -11    1    3    3    0    0  0.32771704287E+02 -0.12072875820E+02 -0.31759796990E+02  0.47206182196E+02  0.51100000000E-03 0. -1.
         11    1    3    3    0    0 -0.32771704287E+02  0.12072875820E+02  0.79083914708E+02  0.86452325002E+02  0.51100000000E-03 0. -1.
<mgrwt>
<rscale>  0 0.12500010E+03</rscale>
<asrwt>0</asrwt>
<pdfrwt beam="1">  1       21 0.13921740E-01 0.12500010E+03</pdfrwt>
<pdfrwt beam="2">  1       21 0.66411069E-02 0.12500010E+03</pdfrwt>
<totfact> 0.72874409E+06</totfact>
</mgrwt>
</event>
<event>
 5    1  0.1829803E-009  0.1250026E+03  0.7818608E-02  0.1235065E+00
         21   -1    0    0  502  501  0.00000000000E+00  0.00000000000E+00  0.35244955743E+02  0.35244955743E+02  0.00000000000E+00 0. -1.
         21   -1    0    0  501  502 -0.00000000000E+00 -0.00000000000E+00 -0.11083616186E+03  0.11083616186E+03  0.00000000000E+00 0. -1.
         25    2    1    2    0    0  0.00000000000E+00  0.00000000000E+00 -0.75591206113E+02  0.14608111760E+03  0.12500264988E+03 0.  0.
        -11    1    3    3    0    0 -0.15003075277E+02 -0.60526353218E+02 -0.32853563801E+02  0.70483248764E+02  0.51100000000E-03 0.  1.
         11    1    3    3    0    0  0.15003075277E+02  0.60526353218E+02 -0.42737642311E+02  0.75597868834E+02  0.51100000000E-03 0.  1.
<mgrwt>
<rscale>  0 0.12500265E+03</rscale>
<asrwt>0</asrwt>
<pdfrwt beam="1">  1       21 0.54223009E-02 0.12500265E+03</pdfrwt>
<pdfrwt beam="2">  1       21 0.17051717E-01 0.12500265E+03</pdfrwt>
<totfact> 0.71250221E+06</totfact>
</mgrwt>
</event>
<event>
 5    1  0.1829803E-009  0.1249975E+03  0.7818608E-02  0.1235073E+00
         21   -1    0    0  502  501  0.00000000000E+00  0.00000000000E+00  0.18858221718E+03  0.18858221718E+03  0.00000000000E+00 0.  1.
         21   -1    0    0  501  502 -0.00000000000E+00 -0.00000000000E+00 -0.20712938065E+02  0.20712938065E+02  0.00000000000E+00 0.  1.
         25    2    1    2    0    0  0.00000000000E+00  0.00000000000E+00  0.16786927911E+03  0.20929515524E+03  0.12499746853E+03 0.  0.
        -11    1    3    3    0    0 -0.58682178349E+02  0.16739720487E+02  0.10654055458E+03  0.12277909459E+03  0.51100000000E-03 0.  1.
         11    1    3    3    0    0  0.58682178349E+02 -0.16739720487E+02  0.61328724531E+02  0.86516060651E+02  0.51100000000E-03 0.  1.
<mgrwt>
<rscale>  0 0.12499747E+03</rscale>
<asrwt>0</asrwt>
<pdfrwt beam="1">  1       21 0.29012648E-01 0.12499747E+03</pdfrwt>
<pdfrwt beam="2">  1       21 0.31866060E-02 0.12499747E+03</pdfrwt>
<totfact> 0.63937864E+06</totfact>
</mgrwt>
</event>
<event>
 5    1  0.1829803E-009  0.1250000E+03  0.7818608E-02  0.1235069E+00
         21   -1    0    0  502  501  0.00000000000E+00  0.00000000000E+00  0.69740095940E+02  0.69740095940E+02  0.00000000000E+00 0.  1.
         21   -1    0    0  501  502 -0.00000000000E+00 -0.00000000000E+00 -0.56011525809E+02  0.56011525809E+02  0.00000000000E+00 0.  1.
         25    2    1    2    0    0  0.00000000000E+00  0.00000000000E+00  0.13728570131E+02  0.12575162175E+03  0.12499998694E+03 0.  0.
        -11    1    3    3    0    0  0.20227870784E+02 -0.44470453459E+02 -0.32350373115E+02  0.58594663821E+02  0.51100000000E-03 0. -1.
         11    1    3    3    0    0 -0.20227870784E+02  0.44470453459E+02  0.46078943246E+02  0.67156957929E+02  0.51100000000E-03 0. -1.
<mgrwt>
<rscale>  0 0.12499999E+03</rscale>
<asrwt>0</asrwt>
<pdfrwt beam="1">  1       21 0.10729246E-01 0.12499999E+03</pdfrwt>
<pdfrwt beam="2">  1       21 0.86171578E-02 0.12499999E+03</pdfrwt>
<totfact> 0.73940400E+06</totfact>
</mgrwt>
</event>
<event>
 5    1  0.1829803E-009  0.1250068E+03  0.7818608E-02  0.1235059E+00
         21   -1    0    0  502  501  0.00000000000E+00  0.00000000000E+00  0.62511362260E+02  0.62511362260E+02  0.00000000000E+00 0. -1.
         21   -1    0    0  501  502 -0.00000000000E+00 -0.00000000000E+00 -0.62495408611E+02  0.62495408611E+02  0.00000000000E+00 0. -1.
         25    2    1    2    0    0  0.00000000000E+00  0.00000000000E+00  0.15953649340E-01  0.12500677087E+03  0.12500676985E+03 0.  0.
        -11    1    3    3    0    0 -0.84571801378E+01  0.49552929292E+02 -0.37135750132E+02  0.62498645069E+02  0.51100000000E-03 0. -1.
         11    1    3    3    0    0  0.84571801378E+01 -0.49552929292E+02  0.37151703782E+02  0.62508125803E+02  0.51100000000E-03 0. -1.
<mgrwt>
<rscale>  0 0.12500677E+03</rscale>
<asrwt>0</asrwt>
<pdfrwt beam="1">  1       21 0.96171326E-02 0.12500677E+03</pdfrwt>
<pdfrwt beam="2">  1       21 0.96146783E-02 0.12500677E+03</pdfrwt>
<totfact> 0.74029853E+06</totfact>
</mgrwt>
</event>
<event>
 5    1  0.1829803E-009  0.1250000E+03  0.7818608E-02  0.1235069E+00
         21   -1    0    0  502  501  0.00000000000E+00  0.00000000000E+00  0.54895736631E+02  0.54895736631E+02  0.00000000000E+00 0. -1.
         21   -1    0    0  501  502 -0.00000000000E+00 -0.00000000000E+00 -0.71157628650E+02  0.71157628650E+02  0.00000000000E+00 0. -1.
         25    2    1    2    0    0  0.00000000000E+00  0.00000000000E+00 -0.16261892020E+02  0.12605336528E+03  0.12500000707E+03 0.  0.
        -11    1    3    3    0    0 -0.43907784867E+02  0.54421425794E+01 -0.52647480866E+02  0.68769671582E+02  0.51100000000E-03 0.  1.
         11    1    3    3    0    0  0.43907784867E+02 -0.54421425794E+01  0.36385588846E+02  0.57283693698E+02  0.51100000000E-03 0.  1.
<mgrwt>
<rscale>  0 0.12500001E+03</rscale>
<asrwt>0</asrwt>
<pdfrwt beam="1">  1       21 0.84454979E-02 0.12500001E+03</pdfrwt>
<pdfrwt beam="2">  1       21 0.10947328E-01 0.12500001E+03</pdfrwt>
<totfact> 0.73898670E+06</totfact>
</mgrwt>
</event>
<event>
 5    1  0.1829803E-009  0.1250160E+03  0.7818608E-02  0.1235044E+00
         21   -1    0    0  502  501  0.00000000000E+00  0.00000000000E+00  0.21698156224E+03  0.21698156224E+03  0.00000000000E+00 0. -1.
         21   -1    0    0  501  502 -0.00000000000E+00 -0.00000000000E+00 -0.18007281374E+02  0.18007281374E+02  0.00000000000E+00 0. -1.
         25    2    1    2    0    0  0.00000000000E+00  0.00000000000E+00  0.19897428086E+03  0.23498884361E+03  0.12501596769E+03 0.  0.
        -11    1    3    3    0    0  0.50172600395E+02 -0.22574088460E+02  0.15525886382E+03  0.16471852991E+03  0.51100000000E-03 0.  1.
         11    1    3    3    0    0 -0.50172600395E+02  0.22574088460E+02  0.43715417038E+02  0.70270313698E+02  0.51100000000E-03 0.  1.
<mgrwt>
<rscale>  0 0.12501597E+03</rscale>
<asrwt>0</asrwt>
<pdfrwt beam="1">  1       21 0.33381777E-01 0.12501597E+03</pdfrwt>
<pdfrwt beam="2">  1       21 0.27703511E-02 0.12501597E+03</pdfrwt>
<totfact> 0.61296277E+06</totfact>
</mgrwt>
</event>
<event>
 5    1  0.1829803E-009  0.1250005E+03  0.7818608E-02  0.1235069E+00
         21   -1    0    0  502  501  0.00000000000E+00  0.00000000000E+00  0.57710808923E+03  0.57710808923E+03  0.00000000000E+00 0.  1.
         21   -1    0    0  501  502 -0.00000000000E+00 -0.00000000000E+00 -0.67687156034E+01  0.67687156034E+01  0.00000000000E+00 0.  1.
         25    2    1    2    0    0  0.00000000000E+00  0.00000000000E+00  0.57033937362E+03  0.58387680483E+03  0.12500048845E+03 0.  0.
        -11    1    3    3    0    0  0.11267973382E+02  0.59443640433E+02  0.35839668353E+03  0.36346760018E+03  0.51100000000E-03 0. -1.
         11    1    3    3    0    0 -0.11267973382E+02 -0.59443640433E+02  0.21194269009E+03  0.22040920465E+03  0.51100000000E-03 0. -1.
<mgrwt>
<rscale>  0 0.12500049E+03</rscale>
<asrwt>0</asrwt>
<pdfrwt beam="1">  1       21 0.88785821E-01 0.12500049E+03</pdfrwt>
<pdfrwt beam="2">  1       21 0.10413413E-02 0.12500049E+03</pdfrwt>
<totfact> 0.37831634E+06</totfact>
</mgrwt>
</event>
<event>
 5    1  0.1829803E-009  0.1250022E+03  0.7818608E-02  0.1235066E+00
         21   -1    0    0  502  501  0.00000000000E+00  0.00000000000E+00  0.21620811255E+02  0.21620811255E+02  0.00000000000E+00 0.  1.
         21   -1    0    0  501  502 -0.00000000000E+00 -0.00000000000E+00 -0.18067708065E+03  0.18067708065E+03  0.00000000000E+00 0.  1.
         25    2    1    2    0    0  0.00000000000E+00  0.00000000000E+00 -0.15905626940E+03  0.20229789191E+03  0.12500216092E+03 0.  0.
        -11    1    3    3    0    0 -0.39880696733E+02  0.11914979822E+02 -0.15498494563E+03  0.16047669640E+03  0.51100000000E-03 0. -1.
         11    1    3    3    0    0  0.39880696733E+02 -0.11914979822E+02 -0.40713237693E+01  0.41821195506E+02  0.51100000000E-03 0. -1.
<mgrwt>
<rscale>  0 0.12500216E+03</rscale>
<asrwt>0</asrwt>
<pdfrwt beam="1">  1       21 0.33262787E-02 0.12500216E+03</pdfrwt>
<pdfrwt beam="2">  1       21 0.27796473E-01 0.12500216E+03</pdfrwt>
<totfact> 0.64675571E+06</totfact>
</mgrwt>
</event>
<event>
 5    1  0.1829803E-009  0.1249932E+03  0.7818608E-02  0.1235080E+00
         21   -1    0    0  502  501  0.00000000000E+00  0.00000000000E+00  0.22991206082E+02  0.22991206082E+02  0.00000000000E+00 0.  1.
         21   -1    0    0  501  502 -0.00000000000E+00 -0.00000000000E+00 -0.16988343911E+03  0.16988343911E+03  0.00000000000E+00 0.  1.
         25    2    1    2    0    0  0.00000000000E+00  0.00000000000E+00 -0.14689223303E+03  0.19287464520E+03  0.12499320235E+03 0.  0.
        -11    1    3    3    0    0 -0.44092620431E+02  0.36627801995E+02 -0.11187069759E+03  0.12570126505E+03  0.51100000000E-03 0.  1.
         11    1    3    3    0    0  0.44092620431E+02 -0.36627801995E+02 -0.35021535445E+02  0.67173380149E+02  0.51100000000E-03 0.  1.
<mgrwt>
<rscale>  0 0.12499320E+03</rscale>
<asrwt>0</asrwt>
<pdfrwt beam="1">  1       21 0.35371087E-02 0.12499320E+03</pdfrwt>
<pdfrwt beam="2">  1       21 0.26135913E-01 0.12499320E+03</pdfrwt>
<totfact> 0.65715707E+06</totfact>
</mgrwt>
</event>
<event>
 5    1  0.1829803E-009  0.1249990E+03  0.7818608E-02  0.1235071E+00
         21   -1    0    0  502  501  0.00000000000E+00  0.00000000000E+00  0.20090271948E+02  0.20090271948E+02  0.00000000000E+00 0.  1.
         21   -1    0    0  501  502 -0.00000000000E+00 -0.00000000000E+00 -0.19443163362E+03  0.19443163362E+03  0.00000000000E+00 0.  1.
         25    2    1    2    0    0  0.00000000000E+00  0.00000000000E+00 -0.17434136168E+03  0.21452190557E+03  0.12499895031E+03 0.  0.
        -11    1    3    3    0    0  0.84892019529E+01 -0.61075556987E+02 -0.10466354393E+03  0.12147735443E+03  0.51100000000E-03 0. -1.
         11    1    3    3    0    0 -0.84892019529E+01  0.61075556987E+02 -0.69677817747E+02  0.93044551142E+02  0.51100000000E-03 0. -1.
<mgrwt>
<rscale>  0 0.12499895E+03</rscale>
<asrwt>0</asrwt>
<pdfrwt beam="1">  1       21 0.30908110E-02 0.12499895E+03</pdfrwt>
<pdfrwt beam="2">  1       21 0.29912559E-01 0.12499895E+03</pdfrwt>
<totfact> 0.63388580E+06</totfact>
</mgrwt>
</event>
<event>
 5    1  0.1829803E-009  0.1250000E+03  0.7818608E-02  0.1235069E+00
         21   -1    0    0  502  501  0.00000000000E+00  0.00000000000E+00  0.45058155742E+02  0.45058155742E+02  0.00000000000E+00 0.  1.
         21   -1    0    0  501  502 -0.00000000000E+00 -0.00000000000E+00 -0.86693504082E+02  0.86693504082E+02  0.00000000000E+00 0.  1.
         25    2    1    2    0    0  0.00000000000E+00  0.00000000000E+00 -0.41635348340E+02  0.13175165982E+03  0.12499999054E+03 0.  0.
        -11    1    3    3    0    0 -0.33507805440E+02  0.18969446445E+02  0.31071870032E+02  0.49478015638E+02  0.51100000000E-03 0.  1.
         11    1    3    3    0    0  0.33507805440E+02 -0.18969446445E+02 -0.72707218372E+02  0.82273644186E+02  0.51100000000E-03 0.  1.
<mgrwt>
<rscale>  0 0.12499999E+03</rscale>
<asrwt>0</asrwt>
<pdfrwt beam="1">  1       21 0.69320240E-02 0.12499999E+03</pdfrwt>
<pdfrwt beam="2">  1       21 0.13337462E-01 0.12499999E+03</pdfrwt>
<totfact> 0.73129576E+06</totfact>
</mgrwt>
</event>
<event>
 5    1  0.1829803E-009  0.1249998E+03  0.7818608E-02  0.1235070E+00
         21   -1    0    0  502  501  0.00000000000E+00  0.00000000000E+00  0.14530243934E+02  0.14530243934E+02  0.00000000000E+00 0.  1.
         21   -1    0    0  501  502 -0.00000000000E+00 -0.00000000000E+00 -0.26883510114E+03  0.26883510114E+03  0.00000000000E+00 0.  1.
         25    2    1    2    0    0  0.00000000000E+00  0.00000000000E+00 -0.25430485721E+03  0.28336534508E+03  0.12499983356E+03 0.  0.
        -11    1    3    3    0    0  0.10953910617E+02 -0.61266390459E+02 -0.11419305814E+03  0.13005234825E+03  0.51100000000E-03 0.  1.
         11    1    3    3    0    0 -0.10953910617E+02  0.61266390459E+02 -0.14011179907E+03  0.15331299683E+03  0.51100000000E-03 0.  1.
<mgrwt>
<rscale>  0 0.12499983E+03</rscale>
<asrwt>0</asrwt>
<pdfrwt beam="1">  1       21 0.22354221E-02 0.12499983E+03</pdfrwt>
<pdfrwt beam="2">  1       21 0.41359247E-01 0.12499983E+03</pdfrwt>
<totfact> 0.56867783E+06</totfact>
</mgrwt>
</event>
<event>
 5    1  0.1829803E-009  0.1250008E+03  0.7818608E-02  0.1235068E+00
         21   -1    0    0  502  501  0.00000000000E+00  0.00000000000E+00  0.39038864553E+02  0.39038864553E+02  0.00000000000E+00 0. -1.
         21   -1    0    0  501  502 -0.00000000000E+00 -0.00000000000E+00 -0.10006185055E+03  0.10006185055E+03  0.00000000000E+00 0. -1.
         25    2    1    2    0    0  0.00000000000E+00  0.00000000000E+00 -0.61022986000E+02  0.13910071511E+03  0.12500081649E+03 0.  0.
        -11    1    3    3    0    0 -0.78138405365E+01 -0.54197197920E+02  0.30188188915E+01  0.54840729701E+02  0.51100000000E-03 0.  1.
         11    1    3    3    0    0  0.78138405365E+01  0.54197197920E+02 -0.64041804892E+02  0.84259985405E+02  0.51100000000E-03 0.  1.
<mgrwt>
<rscale>  0 0.12500082E+03</rscale>
<asrwt>0</asrwt>
<pdfrwt beam="1">  1       21 0.60059792E-02 0.12500082E+03</pdfrwt>
<pdfrwt beam="2">  1       21 0.15394131E-01 0.12500082E+03</pdfrwt>
<totfact> 0.72155425E+06</totfact>
</mgrwt>
</event>
<event>
 5    1  0.1829803E-009  0.1250007E+03  0.7818608E-02  0.1235068E+00
         21   -1    0    0  502  501  0.00000000000E+00  0.00000000000E+00  0.45017473758E+03  0.45017473758E+03  0.00000000000E+00 0.  1.
         21   -1    0    0  501  502 -0.00000000000E+00 -0.00000000000E+00 -0.86772810523E+01  0.86772810523E+01  0.00000000000E+00 0.  1.
         25    2    1    2    0    0  0.00000000000E+00  0.00000000000E+00  0.44149745653E+03  0.45885201863E+03  0.12500068353E+03 0.  0.
        -11    1    3    3    0    0  0.37342016151E+02  0.47601652918E+02  0.16318048766E+03  0.17403509728E+03  0.51100000000E-03 0. -1.
         11    1    3    3    0    0 -0.37342016151E+02 -0.47601652918E+02  0.27831696887E+03  0.28481692136E+03  0.51100000000E-03 0. -1.
<mgrwt>
<rscale>  0 0.12500068E+03</rscale>
<asrwt>0</asrwt>
<pdfrwt beam="1">  1       21 0.69257634E-01 0.12500068E+03</pdfrwt>
<pdfrwt beam="2">  1       21 0.13349667E-02 0.12500068E+03</pdfrwt>
<totfact> 0.44366529E+06</totfact>
</mgrwt>
</event>
<event>
 5    1  0.1829803E-009  0.1249817E+03  0.7818608E-02  0.1235098E+00
         21   -1    0    0  502  501  0.00000000000E+00  0.00000000000E+00  0.20335739702E+03  0.20335739702E+03  0.00000000000E+00 0. -1.
         21   -1    0    0  501  502 -0.00000000000E+00 -0.00000000000E+00 -0.19203153488E+02  0.19203153488E+02  0.00000000000E+00 0. -1.
         25    2    1    2    0    0  0.00000000000E+00  0.00000000000E+00  0.18415424353E+03  0.22256055051E+03  0.12498165158E+03 0.  0.
        -11    1    3    3    0    0  0.22124033653E+02 -0.54764869904E+02  0.12841653148E+03  0.14134875096E+03  0.51100000000E-03 0.  1.
         11    1    3    3    0    0 -0.22124033653E+02  0.54764869904E+02  0.55737712054E+02  0.81211799549E+02  0.51100000000E-03 0.  1.
<mgrwt>
<rscale>  0 0.12498165E+03</rscale>
<asrwt>0</asrwt>
<pdfrwt beam="1">  1       21 0.31285752E-01 0.12498165E+03</pdfrwt>
<pdfrwt beam="2">  1       21 0.29543314E-02 0.12498165E+03</pdfrwt>
<totfact> 0.62590783E+06</totfact>
</mgrwt>
</event>
<event>
 5    1  0.1829803E-009  0.1250047E+03  0.7818608E-02  0.1235062E+00
         21   -1    0    0  502  501  0.00000000000E+00  0.00000000000E+00  0.39691506337E+02  0.39691506337E+02  0.00000000000E+00 0. -1.
         21   -1    0    0  501  502 -0.00000000000E+00 -0.00000000000E+00 -0.98422687377E+02  0.98422687377E+02  0.00000000000E+00 0. -1.
         25    2    1    2    0    0  0.00000000000E+00  0.00000000000E+00 -0.58731181039E+02  0.13811419371E+03  0.12500471543E+03 0.  0.
        -11    1    3    3    0    0 -0.20191137768E+02  0.55134738522E+02 -0.56939000072E+01  0.58991032656E+02  0.51100000000E-03 0.  1.
         11    1    3    3    0    0  0.20191137768E+02 -0.55134738522E+02 -0.53037281032E+02  0.79123161058E+02  0.51100000000E-03 0.  1.
<mgrwt>
<rscale>  0 0.12500472E+03</rscale>
<asrwt>0</asrwt>
<pdfrwt beam="1">  1       21 0.61063856E-02 0.12500472E+03</pdfrwt>
<pdfrwt beam="2">  1       21 0.15141952E-01 0.12500472E+03</pdfrwt>
<totfact> 0.72277778E+06</totfact>
</mgrwt>
</event>
<event>
 5    1  0.1829803E-009  0.1249964E+03  0.7818608E-02  0.1235075E+00
         21   -1    0    0  502  501  0.00000000000E+00  0.00000000000E+00  0.44882748558E+02  0.44882748558E+02  0.00000000000E+00 0.  1.
         21   -1    0    0  501  502 -0.00000000000E+00 -0.00000000000E+00 -0.87027339387E+02  0.87027339387E+02  0.00000000000E+00 0.  1.
         25    2    1    2    0    0  0.00000000000E+00  0.00000000000E+00 -0.42144590829E+02  0.13191008795E+03  0.12499641901E+03 0.  0.
        -11    1    3    3    0    0  0.24181006721E+02 -0.54793490295E+02 -0.22244738141E+01  0.59933262457E+02  0.51100000000E-03 0.  1.
         11    1    3    3    0    0 -0.24181006721E+02  0.54793490295E+02 -0.39920117015E+02  0.71976825489E+02  0.51100000000E-03 0.  1.
<mgrwt>
<rscale>  0 0.12499642E+03</rscale>
<asrwt>0</asrwt>
<pdfrwt beam="1">  1       21 0.69050383E-02 0.12499642E+03</pdfrwt>
<pdfrwt beam="2">  1       21 0.13388821E-01 0.12499642E+03</pdfrwt>
<totfact> 0.73114970E+06</totfact>
</mgrwt>
</event>
<event>
 5    1  0.1829803E-009  0.1250010E+03  0.7818608E-02  0.1235068E+00
         21   -1    0    0  502  501  0.00000000000E+00  0.00000000000E+00  0.44419162533E+02  0.44419162533E+02  0.00000000000E+00 0. -1.
         21   -1    0    0  501  502 -0.00000000000E+00 -0.00000000000E+00 -0.87942030512E+02  0.87942030512E+02  0.00000000000E+00 0. -1.
         25    2    1    2    0    0  0.00000000000E+00  0.00000000000E+00 -0.43522867979E+02  0.13236119304E+03  0.12500098154E+03 0.  0.
        -11    1    3    3    0    0  0.25569117393E+02  0.56204191215E+02 -0.32006922323E+02  0.69549507197E+02  0.51100000000E-03 0.  1.
         11    1    3    3    0    0 -0.25569117393E+02 -0.56204191215E+02 -0.11515945655E+02  0.62811685848E+02  0.51100000000E-03 0.  1.
<mgrwt>
<rscale>  0 0.12500098E+03</rscale>
<asrwt>0</asrwt>
<pdfrwt beam="1">  1       21 0.68337173E-02 0.12500098E+03</pdfrwt>
<pdfrwt beam="2">  1       21 0.13529543E-01 0.12500098E+03</pdfrwt>
<totfact> 0.73045992E+06</totfact>
</mgrwt>
</event>
<event>
 5    1  0.1829803E-009  0.1250000E+03  0.7818608E-02  0.1235069E+00
         21   -1    0    0  502  501  0.00000000000E+00  0.00000000000E+00  0.22723810961E+02  0.22723810961E+02  0.00000000000E+00 0.  1.
         21   -1    0    0  501  502 -0.00000000000E+00 -0.00000000000E+00 -0.17190125297E+03  0.17190125297E+03  0.00000000000E+00 0.  1.
         25    2    1    2    0    0  0.00000000000E+00  0.00000000000E+00 -0.14917744201E+03  0.19462506393E+03  0.12500002522E+03 0.  0.
        -11    1    3    3    0    0  0.34137726485E+02 -0.29943982789E+02 -0.14145322572E+03  0.14856325771E+03  0.51100000000E-03 0. -1.
         11    1    3    3    0    0 -0.34137726485E+02  0.29943982789E+02 -0.77242162902E+01  0.46061806221E+02  0.51100000000E-03 0. -1.
<mgrwt>
<rscale>  0 0.12500003E+03</rscale>
<asrwt>0</asrwt>
<pdfrwt beam="1">  1       21 0.34959711E-02 0.12500003E+03</pdfrwt>
<pdfrwt beam="2">  1       21 0.26446345E-01 0.12500003E+03</pdfrwt>
<totfact> 0.65512040E+06</totfact>
</mgrwt>
</event>
<event>
 5    1  0.1829803E-009  0.1250024E+03  0.7818608E-02  0.1235066E+00
         21   -1    0    0  502  501  0.00000000000E+00  0.00000000000E+00  0.42925689162E+02  0.42925689162E+02  0.00000000000E+00 0. -1.
         21   -1    0    0  501  502 -0.00000000000E+00 -0.00000000000E+00 -0.91003750311E+02  0.91003750311E+02  0.00000000000E+00 0. -1.
         25    2    1    2    0    0  0.00000000000E+00  0.00000000000E+00 -0.48078061149E+02  0.13392943947E+03  0.12500237915E+03 0.  0.
        -11    1    3    3    0    0  0.10100379768E+01 -0.61603909448E+02 -0.12784740967E+02  0.62924648889E+02  0.51100000000E-03 0. -1.
         11    1    3    3    0    0 -0.10100379768E+01  0.61603909448E+02 -0.35293320182E+02  0.71004790583E+02  0.51100000000E-03 0. -1.
<mgrwt>
<rscale>  0 0.12500238E+03</rscale>
<asrwt>0</asrwt>
<pdfrwt beam="1">  1       21 0.66039522E-02 0.12500238E+03</pdfrwt>
<pdfrwt beam="2">  1       21 0.14000577E-01 0.12500238E+03</pdfrwt>
<totfact> 0.72834116E+06</totfact>
</mgrwt>
</event>
<event>
 5    1  0.1829803E-009  0.1250005E+03  0.7818608E-02  0.1235069E+00
         21   -1    0    0  502  501  0.00000000000E+00  0.00000000000E+00  0.63622166927E+02  0.63622166927E+02  0.00000000000E+00 0. -1.
         21   -1    0    0  501  502 -0.00000000000E+00 -0.00000000000E+00 -0.61398093947E+02  0.61398093947E+02  0.00000000000E+00 0. -1.
         25    2    1    2    0    0  0.00000000000E+00  0.00000000000E+00  0.22240729803E+01  0.12502026087E+03  0.12500047651E+03 0.  0.
        -11    1    3    3    0    0 -0.56645163270E+02  0.16755880866E+02 -0.19307994821E+02  0.62146864199E+02  0.51100000000E-03 0. -1.
         11    1    3    3    0    0  0.56645163270E+02 -0.16755880866E+02  0.21532067801E+02  0.62873396675E+02  0.51100000000E-03 0. -1.
<mgrwt>
<rscale>  0 0.12500048E+03</rscale>
<asrwt>0</asrwt>
<pdfrwt beam="1">  1       21 0.97880256E-02 0.12500048E+03</pdfrwt>
<pdfrwt beam="2">  1       21 0.94458606E-02 0.12500048E+03</pdfrwt>
<totfact> 0.74039943E+06</totfact>
</mgrwt>
</event>
<event>
 5    1  0.1829803E-009  0.1249873E+03  0.7818608E-02  0.1235089E+00
         21   -1    0    0  502  501  0.00000000000E+00  0.00000000000E+00  0.15797592199E+02  0.15797592199E+02  0.00000000000E+00 0. -1.
         21   -1    0    0  501  502 -0.00000000000E+00 -0.00000000000E+00 -0.24721842714E+03  0.24721842714E+03  0.00000000000E+00 0. -1.
         25    2    1    2    0    0  0.00000000000E+00  0.00000000000E+00 -0.23142083494E+03  0.26301601934E+03  0.12498729369E+03 0.  0.
        -11    1    3    3    0    0 -0.44071118126E+02  0.43977443141E+02 -0.12707716438E+03  0.14150930947E+03  0.51100000000E-03 0.  1.
         11    1    3    3    0    0  0.44071118126E+02 -0.43977443141E+02 -0.10434367056E+03  0.12150670988E+03  0.51100000000E-03 0.  1.
<mgrwt>
<rscale>  0 0.12498729E+03</rscale>
<asrwt>0</asrwt>
<pdfrwt beam="1">  1       21 0.24303989E-02 0.12498729E+03</pdfrwt>
<pdfrwt beam="2">  1       21 0.38033603E-01 0.12498729E+03</pdfrwt>
<totfact> 0.58692716E+06</totfact>
</mgrwt>
</event>
<event>
 5    1  0.1829803E-009  0.1249976E+03  0.7818608E-02  0.1235073E+00
         21   -1    0    0  502  501  0.00000000000E+00  0.00000000000E+00  0.13504731457E+02  0.13504731457E+02  0.00000000000E+00 0. -1.
         21   -1    0    0  501  502 -0.00000000000E+00 -0.00000000000E+00 -0.28923924877E+03  0.28923924877E+03  0.00000000000E+00 0. -1.
         25    2    1    2    0    0  0.00000000000E+00  0.00000000000E+00 -0.27573451732E+03  0.30274398023E+03  0.12499757408E+03 0.  0.
        -11    1    3    3    0    0 -0.42251161397E+02 -0.27809648479E+02 -0.22677676110E+03  0.23234938469E+03  0.51100000000E-03 0.  1.
         11    1    3    3    0    0  0.42251161397E+02  0.27809648479E+02 -0.48957756212E+02  0.70394595542E+02  0.51100000000E-03 0.  1.
<mgrwt>
<rscale>  0 0.12499757E+03</rscale>
<asrwt>0</asrwt>
<pdfrwt beam="1">  1       21 0.20776512E-02 0.12499757E+03</pdfrwt>
<pdfrwt beam="2">  1       21 0.44498342E-01 0.12499757E+03</pdfrwt>
<totfact> 0.55232274E+06</totfact>
</mgrwt>
</event>
<event>
 5    1  0.1829803E-009  0.1249910E+03  0.7818608E-02  0.1235083E+00
         21   -1    0    0  502  501  0.00000000000E+00  0.00000000000E+00  0.86440992101E+02  0.86440992101E+02  0.00000000000E+00 0. -1.
         21   -1    0    0  501  502 -0.00000000000E+00 -0.00000000000E+00 -0.45183277106E+02  0.45183277106E+02  0.00000000000E+00 0. -1.
         25    2    1    2    0    0  0.00000000000E+00  0.00000000000E+00  0.41257714995E+02  0.13162426921E+03  0.12499099647E+03 0.  0.
        -11    1    3    3    0    0 -0.23305386030E+02 -0.18698223773E+02 -0.37174256814E+02  0.47693709860E+02  0.51100000000E-03 0. -1.
         11    1    3    3    0    0  0.23305386030E+02  0.18698223773E+02  0.78431971809E+02  0.83930559348E+02  0.51100000000E-03 0. -1.
<mgrwt>
<rscale>  0 0.12499100E+03</rscale>
<asrwt>0</asrwt>
<pdfrwt beam="1">  1       21 0.13298614E-01 0.12499100E+03</pdfrwt>
<pdfrwt beam="2">  1       21 0.69512734E-02 0.12499100E+03</pdfrwt>
<totfact> 0.73163473E+06</totfact>
</mgrwt>
</event>
<event>
 5    1  0.1829803E-009  0.1249966E+03  0.7818608E-02  0.1235075E+00
         21   -1    0    0  502  501  0.00000000000E+00  0.00000000000E+00  0.10940909180E+02  0.10940909180E+02  0.00000000000E+00 0.  1.
         21   -1    0    0  501  502 -0.00000000000E+00 -0.00000000000E+00 -0.35701223180E+03  0.35701223180E+03  0.00000000000E+00 0.  1.
         25    2    1    2    0    0  0.00000000000E+00  0.00000000000E+00 -0.34607132262E+03  0.36795314098E+03  0.12499661442E+03 0.  0.
        -11    1    3    3    0    0  0.52354928718E+02  0.31977698453E+02 -0.20816661065E+03  0.21701831616E+03  0.51100000000E-03 0.  1.
         11    1    3    3    0    0 -0.52354928718E+02 -0.31977698453E+02 -0.13790471196E+03  0.15093482481E+03  0.51100000000E-03 0.  1.
<mgrwt>
<rscale>  0 0.12499661E+03</rscale>
<asrwt>0</asrwt>
<pdfrwt beam="1">  1       21 0.16832168E-02 0.12499661E+03</pdfrwt>
<pdfrwt beam="2">  1       21 0.54924960E-01 0.12499661E+03</pdfrwt>
<totfact> 0.50243518E+06</totfact>
</mgrwt>
</event>
<event>
 5    1  0.1829803E-009  0.1249994E+03  0.7818608E-02  0.1235070E+00
         21   -1    0    0  502  501  0.00000000000E+00  0.00000000000E+00  0.91548769352E+02  0.91548769352E+02  0.00000000000E+00 0.  1.
         21   -1    0    0  501  502 -0.00000000000E+00 -0.00000000000E+00 -0.42668131897E+02  0.42668131897E+02  0.00000000000E+00 0.  1.
         25    2    1    2    0    0  0.00000000000E+00  0.00000000000E+00  0.48880637454E+02  0.13421690125E+03  0.12499943945E+03 0.  0.
        -11    1    3    3    0    0  0.48709550768E+02  0.21516259929E+02  0.59573860038E+02  0.79903783249E+02  0.51100000000E-03 0.  1.
         11    1    3    3    0    0 -0.48709550768E+02 -0.21516259929E+02 -0.10693222584E+02  0.54313118000E+02  0.51100000000E-03 0.  1.
<mgrwt>
<rscale>  0 0.12499944E+03</rscale>
<asrwt>0</asrwt>
<pdfrwt beam="1">  1       21 0.14084426E-01 0.12499944E+03</pdfrwt>
<pdfrwt beam="2">  1       21 0.65643280E-02 0.12499944E+03</pdfrwt>
<totfact> 0.72801368E+06</totfact>
</mgrwt>
</event>
<event>
 5    1  0.1829803E-009  0.1250007E+03  0.7818608E-02  0.1235068E+00
         21   -1    0    0  502  501  0.00000000000E+00  0.00000000000E+00  0.11870379111E+03  0.11870379111E+03  0.00000000000E+00 0. -1.
         21   -1    0    0  501  502 -0.00000000000E+00 -0.00000000000E+00 -0.32907904946E+02  0.32907904946E+02  0.00000000000E+00 0. -1.
         25    2    1    2    0    0  0.00000000000E+00  0.00000000000E+00  0.85795886164E+02  0.15161169606E+03  0.12500068919E+03 0.  0.
        -11    1    3    3    0    0  0.19384522237E+02  0.54641450983E+02  0.71209051039E+02  0.91826885050E+02  0.51100000000E-03 0. -1.
         11    1    3    3    0    0 -0.19384522237E+02 -0.54641450983E+02  0.14586835125E+02  0.59784811006E+02  0.51100000000E-03 0. -1.
<mgrwt>
<rscale>  0 0.12500069E+03</rscale>
<asrwt>0</asrwt>
<pdfrwt beam="1">  1       21 0.18262122E-01 0.12500069E+03</pdfrwt>
<pdfrwt beam="2">  1       21 0.50627547E-02 0.12500069E+03</pdfrwt>
<totfact> 0.70556088E+06</totfact>
</mgrwt>
</event>
<event>
 5    1  0.1829803E-009  0.1250007E+03  0.7818608E-02  0.1235068E+00
         21   -1    0    0  502  501  0.00000000000E+00  0.00000000000E+00  0.16840690858E+03  0.16840690858E+03  0.00000000000E+00 0. -1.
         21   -1    0    0  501  502 -0.00000000000E+00 -0.00000000000E+00 -0.23195553808E+02  0.23195553808E+02  0.00000000000E+00 0. -1.
         25    2    1    2    0    0  0.00000000000E+00  0.00000000000E+00  0.14521135477E+03  0.19160246239E+03  0.12500066415E+03 0.  0.
        -11    1    3    3    0    0 -0.53100126079E+02 -0.31924090621E+01  0.12289677003E+03  0.13391576065E+03  0.51100000000E-03 0. -1.
         11    1    3    3    0    0  0.53100126079E+02  0.31924090621E+01  0.22314584737E+02  0.57686701739E+02  0.51100000000E-03 0. -1.
<mgrwt>
<rscale>  0 0.12500066E+03</rscale>
<asrwt>0</asrwt>
<pdfrwt beam="1">  1       21 0.25908754E-01 0.12500066E+03</pdfrwt>
<pdfrwt beam="2">  1       21 0.35685468E-02 0.12500066E+03</pdfrwt>
<totfact> 0.65843699E+06</totfact>
</mgrwt>
</event>
<event>
 5    1  0.1829803E-009  0.1250004E+03  0.7818608E-02  0.1235069E+00
         21   -1    0    0  502  501  0.00000000000E+00  0.00000000000E+00  0.12971534691E+02  0.12971534691E+02  0.00000000000E+00 0. -1.
         21   -1    0    0  501  502 -0.00000000000E+00 -0.00000000000E+00 -0.30114230323E+03  0.30114230323E+03  0.00000000000E+00 0. -1.
         25    2    1    2    0    0  0.00000000000E+00  0.00000000000E+00 -0.28817076854E+03  0.31411383792E+03  0.12500044533E+03 0.  0.
        -11    1    3    3    0    0  0.19392811457E+02 -0.56456193830E+02 -0.19061784356E+03  0.19974620207E+03  0.51100000000E-03 0. -1.
         11    1    3    3    0    0 -0.19392811457E+02  0.56456193830E+02 -0.97552924983E+02  0.11436763585E+03  0.51100000000E-03 0. -1.
<mgrwt>
<rscale>  0 0.12500045E+03</rscale>
<asrwt>0</asrwt>
<pdfrwt beam="1">  1       21 0.19956210E-02 0.12500045E+03</pdfrwt>
<pdfrwt beam="2">  1       21 0.46329579E-01 0.12500045E+03</pdfrwt>
<totfact> 0.54302508E+06</totfact>
</mgrwt>
</event>
<event>
 5    1  0.1829803E-009  0.1250028E+03  0.7818608E-02  0.1235065E+00
         21   -1    0    0  502  501  0.00000000000E+00  0.00000000000E+00  0.11190485572E+03  0.11190485572E+03  0.00000000000E+00 0. -1.
         21   -1    0    0  501  502 -0.00000000000E+00 -0.00000000000E+00 -0.34908435419E+02  0.34908435419E+02  0.00000000000E+00 0. -1.
         25    2    1    2    0    0  0.00000000000E+00  0.00000000000E+00  0.76996420305E+02  0.14681329114E+03  0.12500277484E+03 0.  0.
        -11    1    3    3    0    0 -0.65226726115E+00  0.22726771097E+02  0.10687567862E+03  0.10926729729E+03  0.51100000000E-03 0.  1.
         11    1    3    3    0    0  0.65226726115E+00 -0.22726771097E+02 -0.29879258311E+02  0.37545993854E+02  0.51100000000E-03 0.  1.
<mgrwt>
<rscale>  0 0.12500277E+03</rscale>
<asrwt>0</asrwt>
<pdfrwt beam="1">  1       21 0.17216132E-01 0.12500277E+03</pdfrwt>
<pdfrwt beam="2">  1       21 0.53705286E-02 0.12500277E+03</pdfrwt>
<totfact> 0.71156816E+06</totfact>
</mgrwt>
</event>
<event>
 5    1  0.1829803E-009  0.1250000E+03  0.7818608E-02  0.1235069E+00
         21   -1    0    0  502  501  0.00000000000E+00  0.00000000000E+00  0.67809462742E+02  0.67809462742E+02  0.00000000000E+00 0.  1.
         21   -1    0    0  501  502 -0.00000000000E+00 -0.00000000000E+00 -0.57606264306E+02  0.57606264306E+02  0.00000000000E+00 0.  1.
         25    2    1    2    0    0  0.00000000000E+00  0.00000000000E+00  0.10203198436E+02  0.12541572705E+03  0.12499999733E+03 0.  0.
        -11    1    3    3    0    0  0.28084317421E+02  0.21366852464E+02 -0.46654636768E+02  0.58497234135E+02  0.51100000000E-03 0. -1.
         11    1    3    3    0    0 -0.28084317421E+02 -0.21366852464E+02  0.56857835204E+02  0.66918492912E+02  0.51100000000E-03 0. -1.
<mgrwt>
<rscale>  0 0.12500000E+03</rscale>
<asrwt>0</asrwt>
<pdfrwt beam="1">  1       21 0.10432225E-01 0.12500000E+03</pdfrwt>
<pdfrwt beam="2">  1       21 0.88625022E-02 0.12500000E+03</pdfrwt>
<totfact> 0.73987208E+06</totfact>
</mgrwt>
</event>
<event>
 5    1  0.1829803E-009  0.1249907E+03  0.7818608E-02  0.1235084E+00
         21   -1    0    0  502  501  0.00000000000E+00  0.00000000000E+00  0.83177045581E+02  0.83177045581E+02  0.00000000000E+00 0. -1.
         21   -1    0    0  501  502 -0.00000000000E+00 -0.00000000000E+00 -0.46956101025E+02  0.46956101025E+02  0.00000000000E+00 0. -1.
         25    2    1    2    0    0  0.00000000000E+00  0.00000000000E+00  0.36220944556E+02  0.13013314661E+03  0.12499071574E+03 0.  0.
        -11    1    3    3    0    0  0.75969666229E+01  0.50582509203E+02  0.55495544017E+02  0.75472243541E+02  0.51100000000E-03 0.  1.
         11    1    3    3    0    0 -0.75969666229E+01 -0.50582509203E+02 -0.19274599461E+02  0.54660903064E+02  0.51100000000E-03 0.  1.
<mgrwt>
<rscale>  0 0.12499072E+03</rscale>
<asrwt>0</asrwt>
<pdfrwt beam="1">  1       21 0.12796469E-01 0.12499072E+03</pdfrwt>
<pdfrwt beam="2">  1       21 0.72240156E-02 0.12499072E+03</pdfrwt>
<totfact> 0.73364513E+06</totfact>
</mgrwt>
</event>
<event>
 5    1  0.1829803E-009  0.1249993E+03  0.7818608E-02  0.1235070E+00
         21   -1    0    0  502  501  0.00000000000E+00  0.00000000000E+00  0.20977375112E+02  0.20977375112E+02  0.00000000000E+00 0. -1.
         21   -1    0    0  501  502 -0.00000000000E+00 -0.00000000000E+00 -0.18621041788E+03  0.18621041788E+03  0.00000000000E+00 0. -1.
         25    2    1    2    0    0  0.00000000000E+00  0.00000000000E+00 -0.16523304277E+03  0.20718779300E+03  0.12499929257E+03 0.  0.
        -11    1    3    3    0    0  0.49694208881E+02  0.37444149403E+02 -0.92370110321E+02  0.11137242029E+03  0.51100000000E-03 0.  1.
         11    1    3    3    0    0 -0.49694208881E+02 -0.37444149403E+02 -0.72862932449E+02  0.95815372703E+02  0.51100000000E-03 0.  1.
<mgrwt>
<rscale>  0 0.12499929E+03</rscale>
<asrwt>0</asrwt>
<pdfrwt beam="1">  1       21 0.32272884E-02 0.12499929E+03</pdfrwt>
<pdfrwt beam="2">  1       21 0.28647757E-01 0.12499929E+03</pdfrwt>
<totfact> 0.64157779E+06</totfact>
</mgrwt>
</event>
<event>
 5    1  0.1829803E-009  0.1249998E+03  0.7818608E-02  0.1235070E+00
         21   -1    0    0  502  501  0.00000000000E+00  0.00000000000E+00  0.75322310105E+02  0.75322310105E+02  0.00000000000E+00 0. -1.
         21   -1    0    0  501  502 -0.00000000000E+00 -0.00000000000E+00 -0.51860260090E+02  0.51860260090E+02  0.00000000000E+00 0. -1.
         25    2    1    2    0    0  0.00000000000E+00  0.00000000000E+00  0.23462050015E+02  0.12718257019E+03  0.12499975348E+03 0.  0.
        -11    1    3    3    0    0 -0.33489169446E+02 -0.49133577602E+00  0.65420556203E+02  0.73495680521E+02  0.51100000000E-03 0.  1.
         11    1    3    3    0    0  0.33489169446E+02  0.49133577602E+00 -0.41958506188E+02  0.53686889674E+02  0.51100000000E-03 0.  1.
<mgrwt>
<rscale>  0 0.12499975E+03</rscale>
<asrwt>0</asrwt>
<pdfrwt beam="1">  1       21 0.11588048E-01 0.12499975E+03</pdfrwt>
<pdfrwt beam="2">  1       21 0.79785015E-02 0.12499975E+03</pdfrwt>
<totfact> 0.73744767E+06</totfact>
</mgrwt>
</event>
<event>
 4    1  0.1829803E-009  0.1250529E+03  0.7818608E-02  0.1234987E+00
         21   -1    0    0  502  501  0.00000000000E+00  0.00000000000E+00  0.74296491566E+01  0.74296491566E+01  0.00000000000E+00 0. -1.
         21   -1    0    0  501  502 -0.00000000000E+00 -0.00000000000E+00 -0.52621014696E+03  0.52621014696E+03  0.00000000000E+00 0. -1.
        -11    1    1    2    0    0 -0.58011239217E+02  0.16345291268E+02 -0.33042329715E+03  0.33587501801E+03  0.51100000000E-03 0. -1.
         11    1    1    2    0    0  0.58011239217E+02 -0.16345291268E+02 -0.18835720065E+03  0.19776477810E+03  0.51100000000E-03 0. -1.
<mgrwt>
<rscale>  0 0.12505290E+03</rscale>
<asrwt>0</asrwt>
<pdfrwt beam="1">  1       21 0.11430230E-02 0.12505290E+03</pdfrwt>
<pdfrwt beam="2">  1       21 0.80955400E-01 0.12505290E+03</pdfrwt>
<totfact> 0.40223608E+06</totfact>
</mgrwt>
</event>
<event>
 5    1  0.1829803E-009  0.1249991E+03  0.7818608E-02  0.1235071E+00
         21   -1    0    0  502  501  0.00000000000E+00  0.00000000000E+00  0.11942810261E+03  0.11942810261E+03  0.00000000000E+00 0.  1.
         21   -1    0    0  501  502 -0.00000000000E+00 -0.00000000000E+00 -0.32707495073E+02  0.32707495073E+02  0.00000000000E+00 0.  1.
         25    2    1    2    0    0  0.00000000000E+00  0.00000000000E+00  0.86720607533E+02  0.15213559768E+03  0.12499910524E+03 0.  0.
        -11    1    3    3    0    0 -0.33800950848E+02 -0.51635740609E+02  0.31346161208E+02  0.69219475649E+02  0.51100000000E-03 0. -1.
         11    1    3    3    0    0  0.33800950848E+02  0.51635740609E+02  0.55374446326E+02  0.82916122031E+02  0.51100000000E-03 0. -1.
<mgrwt>
<rscale>  0 0.12499911E+03</rscale>
<asrwt>0</asrwt>
<pdfrwt beam="1">  1       21 0.18373554E-01 0.12499911E+03</pdfrwt>
<pdfrwt beam="2">  1       21 0.50319224E-02 0.12499911E+03</pdfrwt>
<totfact> 0.70493556E+06</totfact>
</mgrwt>
</event>
<event>
 5    1  0.1829803E-009  0.1249985E+03  0.7818608E-02  0.1235072E+00
         21   -1    0    0  502  501  0.00000000000E+00  0.00000000000E+00  0.86486565785E+02  0.86486565785E+02  0.00000000000E+00 0.  1.
         21   -1    0    0  501  502 -0.00000000000E+00 -0.00000000000E+00 -0.45164889034E+02  0.45164889034E+02  0.00000000000E+00 0.  1.
         25    2    1    2    0    0  0.00000000000E+00  0.00000000000E+00  0.41321676751E+02  0.13165145482E+03  0.12499849834E+03 0.  0.
        -11    1    3    3    0    0  0.13867429077E+01 -0.24611420661E+02  0.81150316765E+02  0.84811667795E+02  0.51100000000E-03 0.  1.
         11    1    3    3    0    0 -0.13867429077E+01  0.24611420661E+02 -0.39828640014E+02  0.46839787024E+02  0.51100000000E-03 0.  1.
<mgrwt>
<rscale>  0 0.12499850E+03</rscale>
<asrwt>0</asrwt>
<pdfrwt beam="1">  1       21 0.13305625E-01 0.12499850E+03</pdfrwt>
<pdfrwt beam="2">  1       21 0.69484445E-02 0.12499850E+03</pdfrwt>
<totfact> 0.73145819E+06</totfact>
</mgrwt>
</event>
<event>
 5    1  0.1829803E-009  0.1250017E+03  0.7818608E-02  0.1235067E+00
         21   -1    0    0  502  501  0.00000000000E+00  0.00000000000E+00  0.29660382064E+03  0.29660382064E+03  0.00000000000E+00 0.  1.
         21   -1    0    0  501  502 -0.00000000000E+00 -0.00000000000E+00 -0.13170290309E+02  0.13170290309E+02  0.00000000000E+00 0.  1.
         25    2    1    2    0    0  0.00000000000E+00  0.00000000000E+00  0.28343353033E+03  0.30977411095E+03  0.12500173478E+03 0.  0.
        -11    1    3    3    0    0  0.30951236465E+02  0.38064304670E+02  0.45754478057E+02  0.67084592801E+02  0.51100000000E-03 0.  1.
         11    1    3    3    0    0 -0.30951236465E+02 -0.38064304670E+02  0.23767905227E+03  0.24268951814E+03  0.51100000000E-03 0.  1.
<mgrwt>
<rscale>  0 0.12500173E+03</rscale>
<asrwt>0</asrwt>
<pdfrwt beam="1">  1       21 0.45631352E-01 0.12500173E+03</pdfrwt>
<pdfrwt beam="2">  1       21 0.20261987E-02 0.12500173E+03</pdfrwt>
<totfact> 0.54651185E+06</totfact>
</mgrwt>
</event>
<event>
 5    1  0.1829803E-009  0.1250010E+03  0.7818608E-02  0.1235068E+00
         21   -1    0    0  502  501  0.00000000000E+00  0.00000000000E+00  0.21490149454E+02  0.21490149454E+02  0.00000000000E+00 0.  1.
         21   -1    0    0  501  502 -0.00000000000E+00 -0.00000000000E+00 -0.18177214692E+03  0.18177214692E+03  0.00000000000E+00 0.  1.
         25    2    1    2    0    0  0.00000000000E+00  0.00000000000E+00 -0.16028199747E+03  0.20326229638E+03  0.12500096966E+03 0.  0.
        -11    1    3    3    0    0  0.53536329801E+01  0.38847902444E+02 -0.10040692876E+01  0.39227911821E+02  0.51100000000E-03 0.  1.
         11    1    3    3    0    0 -0.53536329801E+01 -0.38847902444E+02 -0.15927792818E+03  0.16403438456E+03  0.51100000000E-03 0.  1.
<mgrwt>
<rscale>  0 0.12500097E+03</rscale>
<asrwt>0</asrwt>
<pdfrwt beam="1">  1       21 0.33061768E-02 0.12500097E+03</pdfrwt>
<pdfrwt beam="2">  1       21 0.27964946E-01 0.12500097E+03</pdfrwt>
<totfact> 0.64573881E+06</totfact>
</mgrwt>
</event>
<event>
 5    1  0.1829803E-009  0.1249992E+03  0.7818608E-02  0.1235071E+00
         21   -1    0    0  502  501  0.00000000000E+00  0.00000000000E+00  0.33358114650E+02  0.33358114650E+02  0.00000000000E+00 0. -1.
         21   -1    0    0  501  502 -0.00000000000E+00 -0.00000000000E+00 -0.11709894925E+03  0.11709894925E+03  0.00000000000E+00 0. -1.
         25    2    1    2    0    0  0.00000000000E+00  0.00000000000E+00 -0.83740834603E+02  0.15045706390E+03  0.12499920279E+03 0.  0.
        -11    1    3    3    0    0 -0.17251557309E+02  0.94363928398E+01  0.29537800713E+02  0.35484410812E+02  0.51100000000E-03 0.  1.
         11    1    3    3    0    0  0.17251557309E+02 -0.94363928398E+01 -0.11327863532E+03  0.11497265309E+03  0.51100000000E-03 0.  1.
<mgrwt>
<rscale>  0 0.12499920E+03</rscale>
<asrwt>0</asrwt>
<pdfrwt beam="1">  1       21 0.51320177E-02 0.12499920E+03</pdfrwt>
<pdfrwt beam="2">  1       21 0.18015223E-01 0.12499920E+03</pdfrwt>
<totfact> 0.70703268E+06</totfact>
</mgrwt>
</event>
<event>
 5    1  0.1829803E-009  0.1250023E+03  0.7818608E-02  0.1235066E+00
         21   -1    0    0  502  501  0.00000000000E+00  0.00000000000E+00  0.11465440867E+03  0.11465440867E+03  0.00000000000E+00 0.  1.
         21   -1    0    0  501  502 -0.00000000000E+00 -0.00000000000E+00 -0.34071030259E+02  0.34071030259E+02  0.00000000000E+00 0.  1.
         25    2    1    2    0    0  0.00000000000E+00  0.00000000000E+00  0.80583378409E+02  0.14872543893E+03  0.12500230121E+03 0.  0.
        -11    1    3    3    0    0  0.17087250161E+02  0.60118697521E+02  0.39812933748E+02  0.74103317089E+02  0.51100000000E-03 0. -1.
         11    1    3    3    0    0 -0.17087250161E+02 -0.60118697521E+02  0.40770444661E+02  0.74622121839E+02  0.51100000000E-03 0. -1.
<mgrwt>
<rscale>  0 0.12500230E+03</rscale>
<asrwt>0</asrwt>
<pdfrwt beam="1">  1       21 0.17639140E-01 0.12500230E+03</pdfrwt>
<pdfrwt beam="2">  1       21 0.52416970E-02 0.12500230E+03</pdfrwt>
<totfact> 0.70915523E+06</totfact>
</mgrwt>
</event>
<event>
 5    1  0.1829803E-009  0.1249986E+03  0.7818608E-02  0.1235072E+00
         21   -1    0    0  502  501  0.00000000000E+00  0.00000000000E+00  0.25951874671E+02  0.25951874671E+02  0.00000000000E+00 0. -1.
         21   -1    0    0  501  502 -0.00000000000E+00 -0.00000000000E+00 -0.15051552557E+03  0.15051552557E+03  0.00000000000E+00 0. -1.
         25    2    1    2    0    0  0.00000000000E+00  0.00000000000E+00 -0.12456365090E+03  0.17646740024E+03  0.12499856088E+03 0.  0.
        -11    1    3    3    0    0  0.17318774402E+02  0.51082118487E+02 -0.17708851635E+02  0.56770821752E+02  0.51100000000E-03 0. -1.
         11    1    3    3    0    0 -0.17318774402E+02 -0.51082118487E+02 -0.10685479926E+03  0.11969657849E+03  0.51100000000E-03 0. -1.
<mgrwt>
<rscale>  0 0.12499856E+03</rscale>
<asrwt>0</asrwt>
<pdfrwt beam="1">  1       21 0.39925961E-02 0.12499856E+03</pdfrwt>
<pdfrwt beam="2">  1       21 0.23156235E-01 0.12499856E+03</pdfrwt>
<totfact> 0.67561581E+06</totfact>
</mgrwt>
</event>
<event>
 5    1  0.1829803E-009  0.1249979E+03  0.7818608E-02  0.1235073E+00
         21   -1    0    0  502  501  0.00000000000E+00  0.00000000000E+00  0.24160123271E+03  0.24160123271E+03  0.00000000000E+00 0.  1.
         21   -1    0    0  501  502 -0.00000000000E+00 -0.00000000000E+00 -0.16167625641E+02  0.16167625641E+02  0.00000000000E+00 0.  1.
         25    2    1    2    0    0  0.00000000000E+00  0.00000000000E+00  0.22543360707E+03  0.25776885835E+03  0.12499789254E+03 0.  0.
        -11    1    3    3    0    0 -0.23007366508E+02 -0.29116459677E+02  0.21642262334E+03  0.21958109898E+03  0.51100000000E-03 0. -1.
         11    1    3    3    0    0  0.23007366508E+02  0.29116459677E+02  0.90109837361E+01  0.38187759372E+02  0.51100000000E-03 0. -1.
<mgrwt>
<rscale>  0 0.12499789E+03</rscale>
<asrwt>0</asrwt>
<pdfrwt beam="1">  1       21 0.37169418E-01 0.12499789E+03</pdfrwt>
<pdfrwt beam="2">  1       21 0.24873272E-02 0.12499789E+03</pdfrwt>
<totfact> 0.59157518E+06</totfact>
</mgrwt>
</event>
<event>
 5    1  0.1829803E-009  0.1250014E+03  0.7818608E-02  0.1235067E+00
         21   -1    0    0  502  501  0.00000000000E+00  0.00000000000E+00  0.75117365250E+01  0.75117365250E+01  0.00000000000E+00 0.  1.
         21   -1    0    0  501  502 -0.00000000000E+00 -0.00000000000E+00 -0.52003146591E+03  0.52003146591E+03  0.00000000000E+00 0.  1.
         25    2    1    2    0    0  0.00000000000E+00  0.00000000000E+00 -0.51251972938E+03  0.52754320243E+03  0.12500142970E+03 0.  0.
        -11    1    3    3    0    0 -0.10985832398E+02  0.60721696991E+02 -0.21436900582E+03  0.22307371798E+03  0.51100000000E-03 0.  1.
         11    1    3    3    0    0  0.10985832398E+02 -0.60721696991E+02 -0.29815072357E+03  0.30446948445E+03  0.51100000000E-03 0.  1.
<mgrwt>
<rscale>  0 0.12500143E+03</rscale>
<asrwt>0</asrwt>
<pdfrwt beam="1">  1       21 0.11556515E-02 0.12500143E+03</pdfrwt>
<pdfrwt beam="2">  1       21 0.80004858E-01 0.12500143E+03</pdfrwt>
<totfact> 0.40587230E+06</totfact>
</mgrwt>
</event>
<event>
 4    1  0.1829803E-009  0.1251666E+03  0.7818608E-02  0.1234809E+00
         21   -1    0    0  502  501  0.00000000000E+00  0.00000000000E+00  0.17534860054E+02  0.17534860054E+02  0.00000000000E+00 0. -1.
         21   -1    0    0  501  502 -0.00000000000E+00 -0.00000000000E+00 -0.22336457006E+03  0.22336457006E+03  0.00000000000E+00 0. -1.
        -11    1    1    2    0    0 -0.11167969713E+01 -0.61188786938E+02 -0.77721178045E+02  0.98923689778E+02  0.51100000000E-03 0. -1.
         11    1    1    2    0    0  0.11167969713E+01  0.61188786938E+02 -0.12810853196E+03  0.14197574033E+03  0.51100000000E-03 0. -1.
<mgrwt>
<rscale>  0 0.12516655E+03</rscale>
<asrwt>0</asrwt>
<pdfrwt beam="1">  1       21 0.26976709E-02 0.12516655E+03</pdfrwt>
<pdfrwt beam="2">  1       21 0.34363778E-01 0.12516655E+03</pdfrwt>
<totfact> 0.60491223E+06</totfact>
</mgrwt>
</event>
<event>
 5    1  0.1829803E-009  0.1249988E+03  0.7818608E-02  0.1235071E+00
         21   -1    0    0  502  501  0.00000000000E+00  0.00000000000E+00  0.14467550071E+02  0.14467550071E+02  0.00000000000E+00 0. -1.
         21   -1    0    0  501  502 -0.00000000000E+00 -0.00000000000E+00 -0.26999569301E+03  0.26999569301E+03  0.00000000000E+00 0. -1.
         25    2    1    2    0    0  0.00000000000E+00  0.00000000000E+00 -0.25552814294E+03  0.28446324308E+03  0.12499881931E+03 0.  0.
        -11    1    3    3    0    0 -0.15639522160E+02 -0.43705133697E+02 -0.32524325016E+02  0.56679494377E+02  0.51100000000E-03 0. -1.
         11    1    3    3    0    0  0.15639522160E+02  0.43705133697E+02 -0.22300381793E+03  0.22778374871E+03  0.51100000000E-03 0. -1.
<mgrwt>
<rscale>  0 0.12499882E+03</rscale>
<asrwt>0</asrwt>
<pdfrwt beam="1">  1       21 0.22257772E-02 0.12499882E+03</pdfrwt>
<pdfrwt beam="2">  1       21 0.41537793E-01 0.12499882E+03</pdfrwt>
<totfact> 0.56774260E+06</totfact>
</mgrwt>
</event>
<event>
 5    1  0.1829803E-009  0.1249924E+03  0.7818608E-02  0.1235081E+00
         21   -1    0    0  502  501  0.00000000000E+00  0.00000000000E+00  0.35399562728E+02  0.35399562728E+02  0.00000000000E+00 0.  1.
         21   -1    0    0  501  502 -0.00000000000E+00 -0.00000000000E+00 -0.11033394701E+03  0.11033394701E+03  0.00000000000E+00 0.  1.
         25    2    1    2    0    0  0.00000000000E+00  0.00000000000E+00 -0.74934384286E+02  0.14573350974E+03  0.12499237542E+03 0.  0.
        -11    1    3    3    0    0 -0.51555252207E+02  0.16777372713E+02 -0.12226221875E+01  0.54230241292E+02  0.51100000000E-03 0. -1.
         11    1    3    3    0    0  0.51555252207E+02 -0.16777372713E+02 -0.73711762098E+02  0.91503268451E+02  0.51100000000E-03 0. -1.
<mgrwt>
<rscale>  0 0.12499238E+03</rscale>
<asrwt>0</asrwt>
<pdfrwt beam="1">  1       21 0.54460865E-02 0.12499238E+03</pdfrwt>
<pdfrwt beam="2">  1       21 0.16974453E-01 0.12499238E+03</pdfrwt>
<totfact> 0.71313205E+06</totfact>
</mgrwt>
</event>
<event>
 5    1  0.1829803E-009  0.1250009E+03  0.7818608E-02  0.1235068E+00
         21   -1    0    0  502  501  0.00000000000E+00  0.00000000000E+00  0.25315174565E+03  0.25315174565E+03  0.00000000000E+00 0.  1.
         21   -1    0    0  501  502 -0.00000000000E+00 -0.00000000000E+00 -0.15430702229E+02  0.15430702229E+02  0.00000000000E+00 0.  1.
         25    2    1    2    0    0  0.00000000000E+00  0.00000000000E+00  0.23772104342E+03  0.26858244788E+03  0.12500094729E+03 0.  0.
        -11    1    3    3    0    0 -0.39865256468E+02  0.48074008347E+02  0.11361490323E+03  0.12964835205E+03  0.51100000000E-03 0.  1.
         11    1    3    3    0    0  0.39865256468E+02 -0.48074008347E+02  0.12410614019E+03  0.13893409583E+03  0.51100000000E-03 0.  1.
<mgrwt>
<rscale>  0 0.12500095E+03</rscale>
<asrwt>0</asrwt>
<pdfrwt beam="1">  1       21 0.38946419E-01 0.12500095E+03</pdfrwt>
<pdfrwt beam="2">  1       21 0.23739544E-02 0.12500095E+03</pdfrwt>
<totfact> 0.58170078E+06</totfact>
</mgrwt>
</event>
<event>
 4    1  0.1829803E-009  0.1251335E+03  0.7818608E-02  0.1234861E+00
         21   -1    0    0  502  501  0.00000000000E+00  0.00000000000E+00  0.45135862342E+02  0.45135862342E+02  0.00000000000E+00 0.  1.
         21   -1    0    0  501  502 -0.00000000000E+00 -0.00000000000E+00 -0.86729200639E+02  0.86729200639E+02  0.00000000000E+00 0.  1.
        -11    1    1    2    0    0 -0.46338293727E+02 -0.38883736964E+02 -0.37638109526E+02  0.71244717381E+02  0.51100000000E-03 0.  1.
         11    1    1    2    0    0  0.46338293727E+02  0.38883736964E+02 -0.39552287718E+01  0.60620345600E+02  0.51100000000E-03 0.  1.
<mgrwt>
<rscale>  0 0.12513348E+03</rscale>
<asrwt>0</asrwt>
<pdfrwt beam="1">  1       21 0.69439789E-02 0.12513348E+03</pdfrwt>
<pdfrwt beam="2">  1       21 0.13342954E-01 0.12513348E+03</pdfrwt>
<totfact> 0.72865900E+06</totfact>
</mgrwt>
</event>
<event>
 4    1  0.1829803E-009  0.1250433E+03  0.7818608E-02  0.1235002E+00
         21   -1    0    0  502  501  0.00000000000E+00  0.00000000000E+00  0.12692981238E+03  0.12692981238E+03  0.00000000000E+00 0. -1.
         21   -1    0    0  501  502 -0.00000000000E+00 -0.00000000000E+00 -0.30796217260E+02  0.30796217260E+02  0.00000000000E+00 0. -1.
        -11    1    1    2    0    0 -0.31773337051E+01  0.50556145412E+02  0.94291165159E+02  0.10703664380E+03  0.51100000000E-03 0.  1.
         11    1    1    2    0    0  0.31773337051E+01 -0.50556145412E+02  0.18424299594E+01  0.50689385840E+02  0.51100000000E-03 0.  1.
<mgrwt>
<rscale>  0 0.12504332E+03</rscale>
<asrwt>0</asrwt>
<pdfrwt beam="1">  1       21 0.19527663E-01 0.12504332E+03</pdfrwt>
<pdfrwt beam="2">  1       21 0.47378796E-02 0.12504332E+03</pdfrwt>
<totfact> 0.69721583E+06</totfact>
</mgrwt>
</event>
<event>
 5    1  0.1829803E-009  0.1250010E+03  0.7818608E-02  0.1235068E+00
         21   -1    0    0  502  501  0.00000000000E+00  0.00000000000E+00  0.26356854431E+02  0.26356854431E+02  0.00000000000E+00 0. -1.
         21   -1    0    0  501  502 -0.00000000000E+00 -0.00000000000E+00 -0.14820858461E+03  0.14820858461E+03  0.00000000000E+00 0. -1.
         25    2    1    2    0    0  0.00000000000E+00  0.00000000000E+00 -0.12185173018E+03  0.17456543905E+03  0.12500099344E+03 0.  0.
        -11    1    3    3    0    0 -0.22691199462E+02 -0.57919385757E+02 -0.52458080039E+02  0.81371960411E+02  0.51100000000E-03 0. -1.
         11    1    3    3    0    0  0.22691199462E+02  0.57919385757E+02 -0.69393650144E+02  0.93193478635E+02  0.51100000000E-03 0. -1.
<mgrwt>
<rscale>  0 0.12500099E+03</rscale>
<asrwt>0</asrwt>
<pdfrwt beam="1">  1       21 0.40549008E-02 0.12500099E+03</pdfrwt>
<pdfrwt beam="2">  1       21 0.22801320E-01 0.12500099E+03</pdfrwt>
<totfact> 0.67778799E+06</totfact>
</mgrwt>
</event>
<event>
 5    1  0.1829803E-009  0.1249992E+03  0.7818608E-02  0.1235071E+00
         21   -1    0    0  502  501  0.00000000000E+00  0.00000000000E+00  0.26109053736E+03  0.26109053736E+03  0.00000000000E+00 0.  1.
         21   -1    0    0  501  502 -0.00000000000E+00 -0.00000000000E+00 -0.14961094028E+02  0.14961094028E+02  0.00000000000E+00 0.  1.
         25    2    1    2    0    0  0.00000000000E+00  0.00000000000E+00  0.24612944333E+03  0.27605163139E+03  0.12499920127E+03 0.  0.
        -11    1    3    3    0    0  0.19405844643E+02  0.50314458481E+02  0.19283384459E+03  0.20023242285E+03  0.51100000000E-03 0.  1.
         11    1    3    3    0    0 -0.19405844643E+02 -0.50314458481E+02  0.53295598737E+02  0.75819208539E+02  0.51100000000E-03 0.  1.
<mgrwt>
<rscale>  0 0.12499920E+03</rscale>
<asrwt>0</asrwt>
<pdfrwt beam="1">  1       21 0.40167772E-01 0.12499920E+03</pdfrwt>
<pdfrwt beam="2">  1       21 0.23017070E-02 0.12499920E+03</pdfrwt>
<totfact> 0.57508167E+06</totfact>
</mgrwt>
</event>
<event>
 5    1  0.1829803E-009  0.1249921E+03  0.7818608E-02  0.1235082E+00
         21   -1    0    0  502  501  0.00000000000E+00  0.00000000000E+00  0.13817997299E+02  0.13817997299E+02  0.00000000000E+00 0.  1.
         21   -1    0    0  501  502 -0.00000000000E+00 -0.00000000000E+00 -0.28265740634E+03  0.28265740634E+03  0.00000000000E+00 0.  1.
         25    2    1    2    0    0  0.00000000000E+00  0.00000000000E+00 -0.26883940904E+03  0.29647540364E+03  0.12499214819E+03 0.  0.
        -11    1    3    3    0    0  0.24665265329E+02  0.44831594572E+02 -0.21952990138E+03  0.22541434024E+03  0.51100000000E-03 0.  1.
         11    1    3    3    0    0 -0.24665265329E+02 -0.44831594572E+02 -0.49309507665E+02  0.71061063404E+02  0.51100000000E-03 0.  1.
<mgrwt>
<rscale>  0 0.12499215E+03</rscale>
<asrwt>0</asrwt>
<pdfrwt beam="1">  1       21 0.21258457E-02 0.12499215E+03</pdfrwt>
<pdfrwt beam="2">  1       21 0.43485756E-01 0.12499215E+03</pdfrwt>
<totfact> 0.55761360E+06</totfact>
</mgrwt>
</event>
<event>
 5    1  0.1829803E-009  0.1249992E+03  0.7818608E-02  0.1235071E+00
         21   -1    0    0  502  501  0.00000000000E+00  0.00000000000E+00  0.26019760813E+03  0.26019760813E+03  0.00000000000E+00 0. -1.
         21   -1    0    0  501  502 -0.00000000000E+00 -0.00000000000E+00 -0.15012436111E+02  0.15012436111E+02  0.00000000000E+00 0. -1.
         25    2    1    2    0    0  0.00000000000E+00  0.00000000000E+00  0.24518517202E+03  0.27521004424E+03  0.12499919949E+03 0.  0.
        -11    1    3    3    0    0 -0.45797512053E+02 -0.36638840591E+02  0.17014017563E+03  0.17996526363E+03  0.51100000000E-03 0. -1.
         11    1    3    3    0    0  0.45797512053E+02  0.36638840591E+02  0.75044996383E+02  0.95244780605E+02  0.51100000000E-03 0. -1.
<mgrwt>
<rscale>  0 0.12499920E+03</rscale>
<asrwt>0</asrwt>
<pdfrwt beam="1">  1       21 0.40030398E-01 0.12499920E+03</pdfrwt>
<pdfrwt beam="2">  1       21 0.23096058E-02 0.12499920E+03</pdfrwt>
<totfact> 0.57582520E+06</totfact>
</mgrwt>
</event>
<event>
 5    1  0.1829803E-009  0.1249982E+03  0.7818608E-02  0.1235072E+00
         21   -1    0    0  502  501  0.00000000000E+00  0.00000000000E+00  0.12145921280E+03  0.12145921280E+03  0.00000000000E+00 0. -1.
         21   -1    0    0  501  502 -0.00000000000E+00 -0.00000000000E+00 -0.32160065930E+02  0.32160065930E+02  0.00000000000E+00 0. -1.
         25    2    1    2    0    0  0.00000000000E+00  0.00000000000E+00  0.89299146869E+02  0.15361927873E+03  0.12499818065E+03 0.  0.
        -11    1    3    3    0    0 -0.96940956405E+01  0.60832004322E+02  0.31664969683E+02  0.69261667215E+02  0.51100000000E-03 0.  1.
         11    1    3    3    0    0  0.96940956405E+01 -0.60832004322E+02  0.57634177187E+02  0.84357611514E+02  0.51100000000E-03 0.  1.
<mgrwt>
<rscale>  0 0.12499818E+03</rscale>
<asrwt>0</asrwt>
<pdfrwt beam="1">  1       21 0.18686033E-01 0.12499818E+03</pdfrwt>
<pdfrwt beam="2">  1       21 0.49477025E-02 0.12499818E+03</pdfrwt>
<totfact> 0.70310714E+06</totfact>
</mgrwt>
</event>
<event>
 5    1  0.1829803E-009  0.1250017E+03  0.7818608E-02  0.1235067E+00
         21   -1    0    0  502  501  0.00000000000E+00  0.00000000000E+00  0.51939172737E+02  0.51939172737E+02  0.00000000000E+00 0. -1.
         21   -1    0    0  501  502 -0.00000000000E+00 -0.00000000000E+00 -0.75210177243E+02  0.75210177243E+02  0.00000000000E+00 0. -1.
         25    2    1    2    0    0  0.00000000000E+00  0.00000000000E+00 -0.23271004506E+02  0.12714934998E+03  0.12500167019E+03 0.  0.
        -11    1    3    3    0    0  0.59211827002E+02 -0.31499254984E-01  0.87160782330E+01  0.59849907846E+02  0.51100000000E-03 0. -1.
         11    1    3    3    0    0 -0.59211827002E+02  0.31499254984E-01 -0.31987082739E+02  0.67299442134E+02  0.51100000000E-03 0. -1.
<mgrwt>
<rscale>  0 0.12500167E+03</rscale>
<asrwt>0</asrwt>
<pdfrwt beam="1">  1       21 0.79906420E-02 0.12500167E+03</pdfrwt>
<pdfrwt beam="2">  1       21 0.11570796E-01 0.12500167E+03</pdfrwt>
<totfact> 0.73745675E+06</totfact>
</mgrwt>
</event>
<event>
 5    1  0.1829803E-009  0.1250008E+03  0.7818608E-02  0.1235068E+00
         21   -1    0    0  502  501  0.00000000000E+00  0.00000000000E+00  0.19952242447E+02  0.19952242447E+02  0.00000000000E+00 0. -1.
         21   -1    0    0  501  502 -0.00000000000E+00 -0.00000000000E+00 -0.19578252281E+03  0.19578252281E+03  0.00000000000E+00 0. -1.
         25    2    1    2    0    0  0.00000000000E+00  0.00000000000E+00 -0.17583028036E+03  0.21573476525E+03  0.12500080579E+03 0.  0.
        -11    1    3    3    0    0 -0.15729697833E+02  0.57347787124E+02 -0.12111771196E+03  0.13492847080E+03  0.51100000000E-03 0.  1.
         11    1    3    3    0    0  0.15729697833E+02 -0.57347787124E+02 -0.54712568394E+02  0.80806294448E+02  0.51100000000E-03 0.  1.
<mgrwt>
<rscale>  0 0.12500081E+03</rscale>
<asrwt>0</asrwt>
<pdfrwt beam="1">  1       21 0.30695757E-02 0.12500081E+03</pdfrwt>
<pdfrwt beam="2">  1       21 0.30120388E-01 0.12500081E+03</pdfrwt>
<totfact> 0.63259889E+06</totfact>
</mgrwt>
</event>
<event>
 5    1  0.1829803E-009  0.1249951E+03  0.7818608E-02  0.1235077E+00
         21   -1    0    0  502  501  0.00000000000E+00  0.00000000000E+00  0.66542320404E+01  0.66542320404E+01  0.00000000000E+00 0. -1.
         21   -1    0    0  501  502 -0.00000000000E+00 -0.00000000000E+00 -0.58698609901E+03  0.58698609901E+03  0.00000000000E+00 0. -1.
         25    2    1    2    0    0  0.00000000000E+00  0.00000000000E+00 -0.58033186697E+03  0.59364033105E+03  0.12499506722E+03 0.  0.
        -11    1    3    3    0    0 -0.36738809963E+02 -0.49015777684E+02 -0.23129458329E+03  0.23926861658E+03  0.51100000000E-03 0.  1.
         11    1    3    3    0    0  0.36738809963E+02  0.49015777684E+02 -0.34903728368E+03  0.35437171447E+03  0.51100000000E-03 0.  1.
<mgrwt>
<rscale>  0 0.12499507E+03</rscale>
<asrwt>0</asrwt>
<pdfrwt beam="1">  1       21 0.10237276E-02 0.12499507E+03</pdfrwt>
<pdfrwt beam="2">  1       21 0.90305589E-01 0.12499507E+03</pdfrwt>
<totfact> 0.37386397E+06</totfact>
</mgrwt>
</event>
<event>
 5    1  0.1829803E-009  0.1249999E+03  0.7818608E-02  0.1235069E+00
         21   -1    0    0  502  501  0.00000000000E+00  0.00000000000E+00  0.18470500462E+03  0.18470500462E+03  0.00000000000E+00 0.  1.
         21   -1    0    0  501  502 -0.00000000000E+00 -0.00000000000E+00 -0.21148570404E+02  0.21148570404E+02  0.00000000000E+00 0.  1.
         25    2    1    2    0    0  0.00000000000E+00  0.00000000000E+00  0.16355643422E+03  0.20585357502E+03  0.12499994871E+03 0.  0.
        -11    1    3    3    0    0  0.82187245373E+01  0.61941385465E+02  0.79470229772E+02  0.10109302689E+03  0.51100000000E-03 0. -1.
         11    1    3    3    0    0 -0.82187245373E+01 -0.61941385465E+02  0.84086204444E+02  0.10476054813E+03  0.51100000000E-03 0. -1.
<mgrwt>
<rscale>  0 0.12499995E+03</rscale>
<asrwt>0</asrwt>
<pdfrwt beam="1">  1       21 0.28416154E-01 0.12499995E+03</pdfrwt>
<pdfrwt beam="2">  1       21 0.32536263E-02 0.12499995E+03</pdfrwt>
<totfact> 0.64298529E+06</totfact>
</mgrwt>
</event>
<event>
 5    1  0.1829803E-009  0.1249995E+03  0.7818608E-02  0.1235070E+00
         21   -1    0    0  502  501  0.00000000000E+00  0.00000000000E+00  0.95287181696E+02  0.95287181696E+02  0.00000000000E+00 0.  1.
         21   -1    0    0  501  502 -0.00000000000E+00 -0.00000000000E+00 -0.40994169614E+02  0.40994169614E+02  0.00000000000E+00 0.  1.
         25    2    1    2    0    0  0.00000000000E+00  0.00000000000E+00  0.54293012081E+02  0.13628135131E+03  0.12499950221E+03 0.  0.
        -11    1    3    3    0    0 -0.43469720144E+02  0.34072185013E+02 -0.47458058241E+01  0.55435124552E+02  0.51100000000E-03 0.  1.
         11    1    3    3    0    0  0.43469720144E+02 -0.34072185013E+02  0.59038817906E+02  0.80846226757E+02  0.51100000000E-03 0.  1.
<mgrwt>
<rscale>  0 0.12499950E+03</rscale>
<asrwt>0</asrwt>
<pdfrwt beam="1">  1       21 0.14659566E-01 0.12499950E+03</pdfrwt>
<pdfrwt beam="2">  1       21 0.63067954E-02 0.12499950E+03</pdfrwt>
<totfact> 0.72528175E+06</totfact>
</mgrwt>
</event>
<event>
 5    1  0.1829803E-009  0.1250001E+03  0.7818608E-02  0.1235069E+00
         21   -1    0    0  502  501  0.00000000000E+00  0.00000000000E+00  0.13065739929E+03  0.13065739929E+03  0.00000000000E+00 0. -1.
         21   -1    0    0  501  502 -0.00000000000E+00 -0.00000000000E+00 -0.29896947964E+02  0.29896947964E+02  0.00000000000E+00 0. -1.
         25    2    1    2    0    0  0.00000000000E+00  0.00000000000E+00  0.10076045133E+03  0.16055434726E+03  0.12500011948E+03 0.  0.
        -11    1    3    3    0    0 -0.43384526326E+02 -0.18654485958E+02 -0.22039645968E+01  0.47276468048E+02  0.51100000000E-03 0.  1.
         11    1    3    3    0    0  0.43384526326E+02  0.18654485958E+02  0.10296441592E+03  0.11327787921E+03  0.51100000000E-03 0.  1.
<mgrwt>
<rscale>  0 0.12500012E+03</rscale>
<asrwt>0</asrwt>
<pdfrwt beam="1">  1       21 0.20101138E-01 0.12500012E+03</pdfrwt>
<pdfrwt beam="2">  1       21 0.45995305E-02 0.12500012E+03</pdfrwt>
<totfact> 0.69451613E+06</totfact>
</mgrwt>
</event>
<event>
 5    1  0.1829803E-009  0.1249978E+03  0.7818608E-02  0.1235073E+00
         21   -1    0    0  502  501  0.00000000000E+00  0.00000000000E+00  0.19733556928E+02  0.19733556928E+02  0.00000000000E+00 0. -1.
         21   -1    0    0  501  502 -0.00000000000E+00 -0.00000000000E+00 -0.19794274477E+03  0.19794274477E+03  0.00000000000E+00 0. -1.
         25    2    1    2    0    0  0.00000000000E+00  0.00000000000E+00 -0.17820918784E+03  0.21767630170E+03  0.12499783074E+03 0.  0.
        -11    1    3    3    0    0 -0.12615183397E+02  0.42330293481E+02 -0.16610537694E+03  0.17187784281E+03  0.51100000000E-03 0. -1.
         11    1    3    3    0    0  0.12615183397E+02 -0.42330293481E+02 -0.12103810899E+02  0.45798458891E+02  0.51100000000E-03 0. -1.
<mgrwt>
<rscale>  0 0.12499783E+03</rscale>
<asrwt>0</asrwt>
<pdfrwt beam="1">  1       21 0.30359319E-02 0.12499783E+03</pdfrwt>
<pdfrwt beam="2">  1       21 0.30452730E-01 0.12499783E+03</pdfrwt>
<totfact> 0.63064299E+06</totfact>
</mgrwt>
</event>
<event>
 5    1  0.1829803E-009  0.1250030E+03  0.7818608E-02  0.1235065E+00
         21   -1    0    0  502  501  0.00000000000E+00  0.00000000000E+00  0.26996317620E+02  0.26996317620E+02  0.00000000000E+00 0. -1.
         21   -1    0    0  501  502 -0.00000000000E+00 -0.00000000000E+00 -0.14470266180E+03  0.14470266180E+03  0.00000000000E+00 0. -1.
         25    2    1    2    0    0  0.00000000000E+00  0.00000000000E+00 -0.11770634418E+03  0.17169897942E+03  0.12500302426E+03 0.  0.
        -11    1    3    3    0    0  0.23300082013E+01  0.62394322784E+02 -0.54978235852E+02  0.83193069853E+02  0.51100000000E-03 0. -1.
         11    1    3    3    0    0 -0.23300082013E+01 -0.62394322784E+02 -0.62728108332E+02  0.88505909571E+02  0.51100000000E-03 0. -1.
<mgrwt>
<rscale>  0 0.12500302E+03</rscale>
<asrwt>0</asrwt>
<pdfrwt beam="1">  1       21 0.41532797E-02 0.12500302E+03</pdfrwt>
<pdfrwt beam="2">  1       21 0.22261947E-01 0.12500302E+03</pdfrwt>
<totfact> 0.68111571E+06</totfact>
</mgrwt>
</event>
<event>
 5    1  0.1829803E-009  0.1250002E+03  0.7818608E-02  0.1235069E+00
         21   -1    0    0  502  501  0.00000000000E+00  0.00000000000E+00  0.11573675476E+03  0.11573675476E+03  0.00000000000E+00 0. -1.
         21   -1    0    0  501  502 -0.00000000000E+00 -0.00000000000E+00 -0.33751265748E+02  0.33751265748E+02  0.00000000000E+00 0. -1.
         25    2    1    2    0    0  0.00000000000E+00  0.00000000000E+00  0.81985489009E+02  0.14948802051E+03  0.12500019147E+03 0.  0.
        -11    1    3    3    0    0 -0.30090251034E+02  0.15866114866E+02  0.10369618764E+03  0.10913320365E+03  0.51100000000E-03 0.  1.
         11    1    3    3    0    0  0.30090251034E+02 -0.15866114866E+02 -0.21710698628E+02  0.40354816855E+02  0.51100000000E-03 0.  1.
<mgrwt>
<rscale>  0 0.12500019E+03</rscale>
<asrwt>0</asrwt>
<pdfrwt beam="1">  1       21 0.17805654E-01 0.12500019E+03</pdfrwt>
<pdfrwt beam="2">  1       21 0.51925025E-02 0.12500019E+03</pdfrwt>
<totfact> 0.70823229E+06</totfact>
</mgrwt>
</event>
<event>
 5    1  0.1829803E-009  0.1249971E+03  0.7818608E-02  0.1235074E+00
         21   -1    0    0  502  501  0.00000000000E+00  0.00000000000E+00  0.47066588034E+02  0.47066588034E+02  0.00000000000E+00 0. -1.
         21   -1    0    0  501  502 -0.00000000000E+00 -0.00000000000E+00 -0.82990267336E+02  0.82990267336E+02  0.00000000000E+00 0. -1.
         25    2    1    2    0    0  0.00000000000E+00  0.00000000000E+00 -0.35923679302E+02  0.13005685537E+03  0.12499709954E+03 0.  0.
        -11    1    3    3    0    0  0.37343552218E+02  0.26539582467E+02  0.26269880188E+02  0.52810954688E+02  0.51100000000E-03 0. -1.
         11    1    3    3    0    0 -0.37343552218E+02 -0.26539582467E+02 -0.62193559490E+02  0.77245900681E+02  0.51100000000E-03 0. -1.
<mgrwt>
<rscale>  0 0.12499710E+03</rscale>
<asrwt>0</asrwt>
<pdfrwt beam="1">  1       21 0.72410136E-02 0.12499710E+03</pdfrwt>
<pdfrwt beam="2">  1       21 0.12767733E-01 0.12499710E+03</pdfrwt>
<totfact> 0.73362750E+06</totfact>
</mgrwt>
</event>
<event>
 5    1  0.1829803E-009  0.1250005E+03  0.7818608E-02  0.1235068E+00
         21   -1    0    0  502  501  0.00000000000E+00  0.00000000000E+00  0.24521157538E+02  0.24521157538E+02  0.00000000000E+00 0.  1.
         21   -1    0    0  501  502 -0.00000000000E+00 -0.00000000000E+00 -0.15930254867E+03  0.15930254867E+03  0.00000000000E+00 0.  1.
         25    2    1    2    0    0  0.00000000000E+00  0.00000000000E+00 -0.13478139113E+03  0.18382370621E+03  0.12500052627E+03 0.  0.
        -11    1    3    3    0    0  0.22835648305E+02  0.15027541795E+02 -0.15004466904E+03  0.15251457817E+03  0.51100000000E-03 0. -1.
         11    1    3    3    0    0 -0.22835648305E+02 -0.15027541795E+02  0.15263277908E+02  0.31309128041E+02  0.51100000000E-03 0. -1.
<mgrwt>
<rscale>  0 0.12500053E+03</rscale>
<asrwt>0</asrwt>
<pdfrwt beam="1">  1       21 0.37724858E-02 0.12500053E+03</pdfrwt>
<pdfrwt beam="2">  1       21 0.24508084E-01 0.12500053E+03</pdfrwt>
<totfact> 0.66714688E+06</totfact>
</mgrwt>
</event>
<event>
 5    1  0.1829803E-009  0.1250018E+03  0.7818608E-02  0.1235067E+00
         21   -1    0    0  502  501  0.00000000000E+00  0.00000000000E+00  0.97274079677E+02  0.97274079677E+02  0.00000000000E+00 0. -1.
         21   -1    0    0  501  502 -0.00000000000E+00 -0.00000000000E+00 -0.40158294664E+02  0.40158294664E+02  0.00000000000E+00 0. -1.
         25    2    1    2    0    0  0.00000000000E+00  0.00000000000E+00  0.57115785013E+02  0.13743237434E+03  0.12500177846E+03 0.  0.
        -11    1    3    3    0    0  0.33147300925E+02 -0.12464145212E+02 -0.28063575479E+02  0.45184762292E+02  0.51100000000E-03 0. -1.
         11    1    3    3    0    0 -0.33147300925E+02  0.12464145212E+02  0.85179360492E+02  0.92247612048E+02  0.51100000000E-03 0. -1.
<mgrwt>
<rscale>  0 0.12500178E+03</rscale>
<asrwt>0</asrwt>
<pdfrwt beam="1">  1       21 0.14965243E-01 0.12500178E+03</pdfrwt>
<pdfrwt beam="2">  1       21 0.61781992E-02 0.12500178E+03</pdfrwt>
<totfact> 0.72372701E+06</totfact>
</mgrwt>
</event>
<event>
 5    1  0.1829803E-009  0.1249983E+03  0.7818608E-02  0.1235072E+00
         21   -1    0    0  502  501  0.00000000000E+00  0.00000000000E+00  0.41124935471E+03  0.41124935471E+03  0.00000000000E+00 0. -1.
         21   -1    0    0  501  502 -0.00000000000E+00 -0.00000000000E+00 -0.94982355874E+01  0.94982355874E+01  0.00000000000E+00 0. -1.
         25    2    1    2    0    0  0.00000000000E+00  0.00000000000E+00  0.40175111912E+03  0.42074759029E+03  0.12499829209E+03 0.  0.
        -11    1    3    3    0    0  0.38602797709E+02  0.49147384433E+02  0.20326014243E+03  0.21265071570E+03  0.51100000000E-03 0.  1.
         11    1    3    3    0    0 -0.38602797709E+02 -0.49147384433E+02  0.19849097669E+03  0.20809687459E+03  0.51100000000E-03 0.  1.
<mgrwt>
<rscale>  0 0.12499829E+03</rscale>
<asrwt>0</asrwt>
<pdfrwt beam="1">  1       21 0.63269118E-01 0.12499829E+03</pdfrwt>
<pdfrwt beam="2">  1       21 0.14612673E-02 0.12499829E+03</pdfrwt>
<totfact> 0.46696957E+06</totfact>
</mgrwt>
</event>
<event>
 5    1  0.1829803E-009  0.1249994E+03  0.7818608E-02  0.1235070E+00
         21   -1    0    0  502  501  0.00000000000E+00  0.00000000000E+00  0.27573923282E+03  0.27573923282E+03  0.00000000000E+00 0. -1.
         21   -1    0    0  501  502 -0.00000000000E+00 -0.00000000000E+00 -0.14166319989E+02  0.14166319989E+02  0.00000000000E+00 0. -1.
         25    2    1    2    0    0  0.00000000000E+00  0.00000000000E+00  0.26157291283E+03  0.28990555281E+03  0.12499936329E+03 0.  0.
        -11    1    3    3    0    0  0.59084452085E+02 -0.20360257877E+02  0.13272359269E+03  0.14670059522E+03  0.51100000000E-03 0. -1.
         11    1    3    3    0    0 -0.59084452085E+02  0.20360257877E+02  0.12884932014E+03  0.14320495759E+03  0.51100000000E-03 0. -1.
<mgrwt>
<rscale>  0 0.12499936E+03</rscale>
<asrwt>0</asrwt>
<pdfrwt beam="1">  1       21 0.42421416E-01 0.12499936E+03</pdfrwt>
<pdfrwt beam="2">  1       21 0.21794340E-02 0.12499936E+03</pdfrwt>
<totfact> 0.56306538E+06</totfact>
</mgrwt>
</event>
<event>
 5    1  0.1829803E-009  0.1249986E+03  0.7818608E-02  0.1235071E+00
         21   -1    0    0  502  501  0.00000000000E+00  0.00000000000E+00  0.72657040075E+02  0.72657040075E+02  0.00000000000E+00 0. -1.
         21   -1    0    0  501  502 -0.00000000000E+00 -0.00000000000E+00 -0.53761641395E+02  0.53761641395E+02  0.00000000000E+00 0. -1.
         25    2    1    2    0    0  0.00000000000E+00  0.00000000000E+00  0.18895398680E+02  0.12641868147E+03  0.12499858773E+03 0.  0.
        -11    1    3    3    0    0 -0.61072746808E+02 -0.10225669801E+02  0.18012499419E+02  0.64489494192E+02  0.51100000000E-03 0.  1.
         11    1    3    3    0    0  0.61072746808E+02  0.10225669801E+02  0.88289926065E+00  0.61929187278E+02  0.51100000000E-03 0.  1.
<mgrwt>
<rscale>  0 0.12499859E+03</rscale>
<asrwt>0</asrwt>
<pdfrwt beam="1">  1       21 0.11178006E-01 0.12499859E+03</pdfrwt>
<pdfrwt beam="2">  1       21 0.82710217E-02 0.12499859E+03</pdfrwt>
<totfact> 0.73851169E+06</totfact>
</mgrwt>
</event>
<event>
 5    1  0.1829803E-009  0.1250121E+03  0.7818608E-02  0.1235050E+00
         21   -1    0    0  502  501  0.00000000000E+00  0.00000000000E+00  0.72018304598E+02  0.72018304598E+02  0.00000000000E+00 0.  1.
         21   -1    0    0  501  502 -0.00000000000E+00 -0.00000000000E+00 -0.54250166181E+02  0.54250166181E+02  0.00000000000E+00 0.  1.
         25    2    1    2    0    0  0.00000000000E+00  0.00000000000E+00  0.17768138418E+02  0.12626847078E+03  0.12501207930E+03 0.  0.
        -11    1    3    3    0    0  0.61513543808E+02  0.21670105508E+01 -0.21061392094E+01  0.61587724663E+02  0.51100000000E-03 0.  1.
         11    1    3    3    0    0 -0.61513543808E+02 -0.21670105508E+01  0.19874277627E+02  0.64680746115E+02  0.51100000000E-03 0.  1.
<mgrwt>
<rscale>  0 0.12501208E+03</rscale>
<asrwt>0</asrwt>
<pdfrwt beam="1">  1       21 0.11079739E-01 0.12501208E+03</pdfrwt>
<pdfrwt beam="2">  1       21 0.83461794E-02 0.12501208E+03</pdfrwt>
<totfact> 0.73846342E+06</totfact>
</mgrwt>
</event>
<event>
 5    1  0.1829803E-009  0.1249994E+03  0.7818608E-02  0.1235070E+00
         21   -1    0    0  502  501  0.00000000000E+00  0.00000000000E+00  0.11156943128E+02  0.11156943128E+02  0.00000000000E+00 0. -1.
         21   -1    0    0  501  502 -0.00000000000E+00 -0.00000000000E+00 -0.35011493485E+03  0.35011493485E+03  0.00000000000E+00 0. -1.
         25    2    1    2    0    0  0.00000000000E+00  0.00000000000E+00 -0.33895799173E+03  0.36127187798E+03  0.12499939866E+03 0.  0.
        -11    1    3    3    0    0  0.91641206013E+01  0.56678360148E+02 -0.24084938939E+03  0.24759815425E+03  0.51100000000E-03 0.  1.
         11    1    3    3    0    0 -0.91641206013E+01 -0.56678360148E+02 -0.98108602332E+02  0.11367372373E+03  0.51100000000E-03 0.  1.
<mgrwt>
<rscale>  0 0.12499940E+03</rscale>
<asrwt>0</asrwt>
<pdfrwt beam="1">  1       21 0.17164530E-02 0.12499940E+03</pdfrwt>
<pdfrwt beam="2">  1       21 0.53863830E-01 0.12499940E+03</pdfrwt>
<totfact> 0.50717361E+06</totfact>
</mgrwt>
</event>
<event>
 5    1  0.1829803E-009  0.1249980E+03  0.7818608E-02  0.1235072E+00
         21   -1    0    0  502  501  0.00000000000E+00  0.00000000000E+00  0.35524507023E+02  0.35524507023E+02  0.00000000000E+00 0.  1.
         21   -1    0    0  501  502 -0.00000000000E+00 -0.00000000000E+00 -0.10995580713E+03  0.10995580713E+03  0.00000000000E+00 0.  1.
         25    2    1    2    0    0  0.00000000000E+00  0.00000000000E+00 -0.74431300104E+02  0.14548031415E+03  0.12499801346E+03 0.  0.
        -11    1    3    3    0    0  0.52362336963E+02  0.22318923870E+02 -0.71759228502E+01  0.57371095196E+02  0.51100000000E-03 0. -1.
         11    1    3    3    0    0 -0.52362336963E+02 -0.22318923870E+02 -0.67255377254E+02  0.88109218955E+02  0.51100000000E-03 0. -1.
<mgrwt>
<rscale>  0 0.12499801E+03</rscale>
<asrwt>0</asrwt>
<pdfrwt beam="1">  1       21 0.54653088E-02 0.12499801E+03</pdfrwt>
<pdfrwt beam="2">  1       21 0.16916278E-01 0.12499801E+03</pdfrwt>
<totfact> 0.71335296E+06</totfact>
</mgrwt>
</event>
<event>
 5    1  0.1829803E-009  0.1250003E+03  0.7818608E-02  0.1235069E+00
         21   -1    0    0  502  501  0.00000000000E+00  0.00000000000E+00  0.52615557557E+02  0.52615557557E+02  0.00000000000E+00 0. -1.
         21   -1    0    0  501  502 -0.00000000000E+00 -0.00000000000E+00 -0.74241663172E+02  0.74241663172E+02  0.00000000000E+00 0. -1.
         25    2    1    2    0    0  0.00000000000E+00  0.00000000000E+00 -0.21626105615E+02  0.12685722073E+03  0.12500026403E+03 0.  0.
        -11    1    3    3    0    0 -0.54185534333E+02 -0.19198901767E+02  0.14078782992E+02  0.59185150932E+02  0.51100000000E-03 0. -1.
         11    1    3    3    0    0  0.54185534333E+02  0.19198901767E+02 -0.35704888607E+02  0.67672069798E+02  0.51100000000E-03 0. -1.
<mgrwt>
<rscale>  0 0.12500026E+03</rscale>
<asrwt>0</asrwt>
<pdfrwt beam="1">  1       21 0.80947012E-02 0.12500026E+03</pdfrwt>
<pdfrwt beam="2">  1       21 0.11421794E-01 0.12500026E+03</pdfrwt>
<totfact> 0.73788089E+06</totfact>
</mgrwt>
</event>
<event>
 5    1  0.1829803E-009  0.1249616E+03  0.7818608E-02  0.1235129E+00
         21   -1    0    0  502  501  0.00000000000E+00  0.00000000000E+00  0.97328160553E+02  0.97328160553E+02  0.00000000000E+00 0. -1.
         21   -1    0    0  501  502 -0.00000000000E+00 -0.00000000000E+00 -0.40110186155E+02  0.40110186155E+02  0.00000000000E+00 0. -1.
         25    2    1    2    0    0  0.00000000000E+00  0.00000000000E+00  0.57217974398E+02  0.13743834671E+03  0.12496160431E+03 0.  0.
        -11    1    3    3    0    0 -0.54398866131E+01  0.61660466696E+02  0.19260623880E+02  0.64827287095E+02  0.51100000000E-03 0. -1.
         11    1    3    3    0    0  0.54398866131E+01 -0.61660466696E+02  0.37957350518E+02  0.72611059613E+02  0.51100000000E-03 0. -1.
<mgrwt>
<rscale>  0 0.12496160E+03</rscale>
<asrwt>0</asrwt>
<pdfrwt beam="1">  1       21 0.14973563E-01 0.12496160E+03</pdfrwt>
<pdfrwt beam="2">  1       21 0.61707979E-02 0.12496160E+03</pdfrwt>
<totfact> 0.72446105E+06</totfact>
</mgrwt>
</event>
<event>
 5    1  0.1829803E-009  0.1250028E+03  0.7818608E-02  0.1235065E+00
         21   -1    0    0  502  501  0.00000000000E+00  0.00000000000E+00  0.69211087245E+02  0.69211087245E+02  0.00000000000E+00 0.  1.
         21   -1    0    0  501  502 -0.00000000000E+00 -0.00000000000E+00 -0.56442229642E+02  0.56442229642E+02  0.00000000000E+00 0.  1.
         25    2    1    2    0    0  0.00000000000E+00  0.00000000000E+00  0.12768857603E+02  0.12565331689E+03  0.12500284925E+03 0.  0.
        -11    1    3    3    0    0  0.14809813575E+02 -0.31691547370E+02  0.58449157136E+02  0.68117462688E+02  0.51100000000E-03 0. -1.
         11    1    3    3    0    0 -0.14809813575E+02  0.31691547370E+02 -0.45680299533E+02  0.57535854200E+02  0.51100000000E-03 0. -1.
<mgrwt>
<rscale>  0 0.12500285E+03</rscale>
<asrwt>0</asrwt>
<pdfrwt beam="1">  1       21 0.10647860E-01 0.12500285E+03</pdfrwt>
<pdfrwt beam="2">  1       21 0.86834199E-02 0.12500285E+03</pdfrwt>
<totfact> 0.73948650E+06</totfact>
</mgrwt>
</event>
<event>
 5    1  0.1829803E-009  0.1249955E+03  0.7818608E-02  0.1235076E+00
         21   -1    0    0  502  501  0.00000000000E+00  0.00000000000E+00  0.23092435112E+03  0.23092435112E+03  0.00000000000E+00 0. -1.
         21   -1    0    0  501  502 -0.00000000000E+00 -0.00000000000E+00 -0.16914507992E+02  0.16914507992E+02  0.00000000000E+00 0. -1.
         25    2    1    2    0    0  0.00000000000E+00  0.00000000000E+00  0.21400984313E+03  0.24783885911E+03  0.12499554844E+03 0.  0.
        -11    1    3    3    0    0  0.32611343365E+01  0.60955484790E+02  0.13358940467E+03  0.14687523673E+03  0.51100000000E-03 0.  1.
         11    1    3    3    0    0 -0.32611343365E+01 -0.60955484790E+02  0.80420438455E+02  0.10096362238E+03  0.51100000000E-03 0.  1.
<mgrwt>
<rscale>  0 0.12499555E+03</rscale>
<asrwt>0</asrwt>
<pdfrwt beam="1">  1       21 0.35526821E-01 0.12499555E+03</pdfrwt>
<pdfrwt beam="2">  1       21 0.26022322E-02 0.12499555E+03</pdfrwt>
<totfact> 0.60089000E+06</totfact>
</mgrwt>
</event>
<event>
 5    1  0.1829803E-009  0.1250055E+03  0.7818608E-02  0.1235061E+00
         21   -1    0    0  502  501  0.00000000000E+00  0.00000000000E+00  0.26922386480E+02  0.26922386480E+02  0.00000000000E+00 0. -1.
         21   -1    0    0  501  502 -0.00000000000E+00 -0.00000000000E+00 -0.14510579639E+03  0.14510579639E+03  0.00000000000E+00 0. -1.
         25    2    1    2    0    0  0.00000000000E+00  0.00000000000E+00 -0.11818340991E+03  0.17202818287E+03  0.12500550917E+03 0.  0.
        -11    1    3    3    0    0  0.60887553725E+01 -0.62142133400E+02 -0.62953961254E+02  0.88667462597E+02  0.51100000000E-03 0. -1.
         11    1    3    3    0    0 -0.60887553725E+01  0.62142133400E+02 -0.55229448657E+02  0.83360720275E+02  0.51100000000E-03 0. -1.
<mgrwt>
<rscale>  0 0.12500551E+03</rscale>
<asrwt>0</asrwt>
<pdfrwt beam="1">  1       21 0.41419056E-02 0.12500551E+03</pdfrwt>
<pdfrwt beam="2">  1       21 0.22323969E-01 0.12500551E+03</pdfrwt>
<totfact> 0.68068497E+06</totfact>
</mgrwt>
</event>
<event>
 5    1  0.1829803E-009  0.1250002E+03  0.7818608E-02  0.1235069E+00
         21   -1    0    0  502  501  0.00000000000E+00  0.00000000000E+00  0.20359987856E+02  0.20359987856E+02  0.00000000000E+00 0.  1.
         21   -1    0    0  501  502 -0.00000000000E+00 -0.00000000000E+00 -0.19185985154E+03  0.19185985154E+03  0.00000000000E+00 0.  1.
         25    2    1    2    0    0  0.00000000000E+00  0.00000000000E+00 -0.17149986368E+03  0.21221983939E+03  0.12500022796E+03 0.  0.
        -11    1    3    3    0    0  0.85313080801E+01  0.37805591533E+02 -0.16899569208E+03  0.17338278435E+03  0.51100000000E-03 0. -1.
         11    1    3    3    0    0 -0.85313080801E+01 -0.37805591533E+02 -0.25041716065E+01  0.38837055043E+02  0.51100000000E-03 0. -1.
<mgrwt>
<rscale>  0 0.12500023E+03</rscale>
<asrwt>0</asrwt>
<pdfrwt beam="1">  1       21 0.31323059E-02 0.12500023E+03</pdfrwt>
<pdfrwt beam="2">  1       21 0.29516899E-01 0.12500023E+03</pdfrwt>
<totfact> 0.63626371E+06</totfact>
</mgrwt>
</event>
<event>
 5    1  0.1829803E-009  0.1249919E+03  0.7818608E-02  0.1235082E+00
         21   -1    0    0  502  501  0.00000000000E+00  0.00000000000E+00  0.77633086343E+02  0.77633086343E+02  0.00000000000E+00 0.  1.
         21   -1    0    0  501  502 -0.00000000000E+00 -0.00000000000E+00 -0.50310258499E+02  0.50310258499E+02  0.00000000000E+00 0.  1.
         25    2    1    2    0    0  0.00000000000E+00  0.00000000000E+00  0.27322827844E+02  0.12794334484E+03  0.12499185001E+03 0.  0.
        -11    1    3    3    0    0  0.13758111201E+02 -0.39335165785E+02 -0.34013045485E+02  0.53790595410E+02  0.51100000000E-03 0. -1.
         11    1    3    3    0    0 -0.13758111201E+02  0.39335165785E+02  0.61335873329E+02  0.74152749433E+02  0.51100000000E-03 0. -1.
<mgrwt>
<rscale>  0 0.12499185E+03</rscale>
<asrwt>0</asrwt>
<pdfrwt beam="1">  1       21 0.11943552E-01 0.12499185E+03</pdfrwt>
<pdfrwt beam="2">  1       21 0.77400398E-02 0.12499185E+03</pdfrwt>
<totfact> 0.73656538E+06</totfact>
</mgrwt>
</event>
<event>
 5    1  0.1829803E-009  0.1249988E+03  0.7818608E-02  0.1235071E+00
         21   -1    0    0  502  501  0.00000000000E+00  0.00000000000E+00  0.36810574466E+02  0.36810574466E+02  0.00000000000E+00 0.  1.
         21   -1    0    0  501  502 -0.00000000000E+00 -0.00000000000E+00 -0.10611563265E+03  0.10611563265E+03  0.00000000000E+00 0.  1.
         25    2    1    2    0    0  0.00000000000E+00  0.00000000000E+00 -0.69305058183E+02  0.14292620712E+03  0.12499883836E+03 0.  0.
        -11    1    3    3    0    0  0.33899067621E+02  0.90674093240E+01 -0.93788615541E+02  0.10013824995E+03  0.51100000000E-03 0.  1.
         11    1    3    3    0    0 -0.33899067621E+02 -0.90674093240E+01  0.24483557358E+02  0.42787957167E+02  0.51100000000E-03 0.  1.
<mgrwt>
<rscale>  0 0.12499884E+03</rscale>
<asrwt>0</asrwt>
<pdfrwt beam="1">  1       21 0.56631653E-02 0.12499884E+03</pdfrwt>
<pdfrwt beam="2">  1       21 0.16325482E-01 0.12499884E+03</pdfrwt>
<totfact> 0.71661683E+06</totfact>
</mgrwt>
</event>
<event>
 5    1  0.1829803E-009  0.1250039E+03  0.7818608E-02  0.1235063E+00
         21   -1    0    0  502  501  0.00000000000E+00  0.00000000000E+00  0.26415168658E+02  0.26415168658E+02  0.00000000000E+00 0. -1.
         21   -1    0    0  501  502 -0.00000000000E+00 -0.00000000000E+00 -0.14788829268E+03  0.14788829268E+03  0.00000000000E+00 0. -1.
         25    2    1    2    0    0  0.00000000000E+00  0.00000000000E+00 -0.12147312403E+03  0.17430346134E+03  0.12500390704E+03 0.  0.
        -11    1    3    3    0    0  0.20812055156E+02 -0.45167913821E+02 -0.11352485999E+03  0.12394021105E+03  0.51100000000E-03 0.  1.
         11    1    3    3    0    0 -0.20812055156E+02  0.45167913821E+02 -0.79482640367E+01  0.50363250294E+02  0.51100000000E-03 0.  1.
<mgrwt>
<rscale>  0 0.12500391E+03</rscale>
<asrwt>0</asrwt>
<pdfrwt beam="1">  1       21 0.40638721E-02 0.12500391E+03</pdfrwt>
<pdfrwt beam="2">  1       21 0.22752045E-01 0.12500391E+03</pdfrwt>
<totfact> 0.67804388E+06</totfact>
</mgrwt>
</event>
<event>
 5    1  0.1829803E-009  0.1249998E+03  0.7818608E-02  0.1235070E+00
         21   -1    0    0  502  501  0.00000000000E+00  0.00000000000E+00  0.94689372133E+02  0.94689372133E+02  0.00000000000E+00 0.  1.
         21   -1    0    0  501  502 -0.00000000000E+00 -0.00000000000E+00 -0.41253151264E+02  0.41253151264E+02  0.00000000000E+00 0.  1.
         25    2    1    2    0    0  0.00000000000E+00  0.00000000000E+00  0.53436220869E+02  0.13594252340E+03  0.12499975987E+03 0.  0.
        -11    1    3    3    0    0 -0.21521084217E+02  0.44303114506E+02 -0.15124885672E+02  0.51523637174E+02  0.51100000000E-03 0.  1.
         11    1    3    3    0    0  0.21521084217E+02 -0.44303114506E+02  0.68561106540E+02  0.84418886223E+02  0.51100000000E-03 0.  1.
<mgrwt>
<rscale>  0 0.12499976E+03</rscale>
<asrwt>0</asrwt>
<pdfrwt beam="1">  1       21 0.14567596E-01 0.12499976E+03</pdfrwt>
<pdfrwt beam="2">  1       21 0.63466387E-02 0.12499976E+03</pdfrwt>
<totfact> 0.72572360E+06</totfact>
</mgrwt>
</event>
<event>
 5    1  0.1829803E-009  0.1250008E+03  0.7818608E-02  0.1235068E+00
         21   -1    0    0  502  501  0.00000000000E+00  0.00000000000E+00  0.32296978539E+02  0.32296978539E+02  0.00000000000E+00 0.  1.
         21   -1    0    0  501  502 -0.00000000000E+00 -0.00000000000E+00 -0.12094944610E+03  0.12094944610E+03  0.00000000000E+00 0.  1.
         25    2    1    2    0    0  0.00000000000E+00  0.00000000000E+00 -0.88652467560E+02  0.15324642464E+03  0.12500082664E+03 0.  0.
        -11    1    3    3    0    0 -0.16879244786E+02  0.49052209195E+02 -0.15882051445E+01  0.51899427042E+02  0.51100000000E-03 0. -1.
         11    1    3    3    0    0  0.16879244786E+02 -0.49052209195E+02 -0.87064262416E+02  0.10134699760E+03  0.51100000000E-03 0. -1.
<mgrwt>
<rscale>  0 0.12500083E+03</rscale>
<asrwt>0</asrwt>
<pdfrwt beam="1">  1       21 0.49687658E-02 0.12500083E+03</pdfrwt>
<pdfrwt beam="2">  1       21 0.18607608E-01 0.12500083E+03</pdfrwt>
<totfact> 0.70352253E+06</totfact>
</mgrwt>
</event>
<event>
 5    1  0.1829803E-009  0.1250004E+03  0.7818608E-02  0.1235069E+00
         21   -1    0    0  502  501  0.00000000000E+00  0.00000000000E+00  0.13349908374E+03  0.13349908374E+03  0.00000000000E+00 0. -1.
         21   -1    0    0  501  502 -0.00000000000E+00 -0.00000000000E+00 -0.29260690637E+02  0.29260690637E+02  0.00000000000E+00 0. -1.
         25    2    1    2    0    0  0.00000000000E+00  0.00000000000E+00  0.10423839310E+03  0.16275977437E+03  0.12500040623E+03 0.  0.
        -11    1    3    3    0    0 -0.28488839570E+01 -0.35862453873E+02  0.11866579633E+03  0.12399920547E+03  0.51100000000E-03 0. -1.
         11    1    3    3    0    0  0.28488839570E+01  0.35862453873E+02 -0.14427403232E+02  0.38760568906E+02  0.51100000000E-03 0. -1.
<mgrwt>
<rscale>  0 0.12500041E+03</rscale>
<asrwt>0</asrwt>
<pdfrwt beam="1">  1       21 0.20538320E-01 0.12500041E+03</pdfrwt>
<pdfrwt beam="2">  1       21 0.45016448E-02 0.12500041E+03</pdfrwt>
<totfact> 0.69183130E+06</totfact>
</mgrwt>
</event>
<event>
 5    1  0.1829803E-009  0.1249980E+03  0.7818608E-02  0.1235072E+00
         21   -1    0    0  502  501  0.00000000000E+00  0.00000000000E+00  0.90889342825E+02  0.90889342825E+02  0.00000000000E+00 0.  1.
         21   -1    0    0  501  502 -0.00000000000E+00 -0.00000000000E+00 -0.42976709397E+02  0.42976709397E+02  0.00000000000E+00 0.  1.
         25    2    1    2    0    0  0.00000000000E+00  0.00000000000E+00  0.47912633427E+02  0.13386605222E+03  0.12499799797E+03 0.  0.
        -11    1    3    3    0    0  0.43314181243E+02 -0.44749948165E+02  0.29567163587E+02  0.68941230917E+02  0.51100000000E-03 0. -1.
         11    1    3    3    0    0 -0.43314181243E+02  0.44749948165E+02  0.18345469840E+02  0.64924821305E+02  0.51100000000E-03 0. -1.
<mgrwt>
<rscale>  0 0.12499800E+03</rscale>
<asrwt>0</asrwt>
<pdfrwt beam="1">  1       21 0.13982976E-01 0.12499800E+03</pdfrwt>
<pdfrwt beam="2">  1       21 0.66118015E-02 0.12499800E+03</pdfrwt>
<totfact> 0.72850688E+06</totfact>
</mgrwt>
</event>
<event>
 5    1  0.1829803E-009  0.1250008E+03  0.7818608E-02  0.1235068E+00
         21   -1    0    0  502  501  0.00000000000E+00  0.00000000000E+00  0.45728848225E+03  0.45728848225E+03  0.00000000000E+00 0. -1.
         21   -1    0    0  501  502 -0.00000000000E+00 -0.00000000000E+00 -0.85423072824E+01  0.85423072824E+01  0.00000000000E+00 0. -1.
         25    2    1    2    0    0  0.00000000000E+00  0.00000000000E+00  0.44874617497E+03  0.46583078953E+03  0.12500077971E+03 0.  0.
        -11    1    3    3    0    0  0.48983157369E+02  0.38769556344E+02  0.21704145798E+03  0.22585265703E+03  0.51100000000E-03 0. -1.
         11    1    3    3    0    0 -0.48983157369E+02 -0.38769556344E+02  0.23170471699E+03  0.23997813250E+03  0.51100000000E-03 0. -1.
<mgrwt>
<rscale>  0 0.12500078E+03</rscale>
<asrwt>0</asrwt>
<pdfrwt beam="1">  1       21 0.70352055E-01 0.12500078E+03</pdfrwt>
<pdfrwt beam="2">  1       21 0.13142015E-02 0.12500078E+03</pdfrwt>
<totfact> 0.43959049E+06</totfact>
</mgrwt>
</event>
<event>
 5    1  0.1829803E-009  0.1250073E+03  0.7818608E-02  0.1235058E+00
         21   -1    0    0  502  501  0.00000000000E+00  0.00000000000E+00  0.18494445902E+03  0.18494445902E+03  0.00000000000E+00 0.  1.
         21   -1    0    0  501  502 -0.00000000000E+00 -0.00000000000E+00 -0.21123672804E+02  0.21123672804E+02  0.00000000000E+00 0.  1.
         25    2    1    2    0    0  0.00000000000E+00  0.00000000000E+00  0.16382078621E+03  0.20606813182E+03  0.12500729962E+03 0.  0.
        -11    1    3    3    0    0  0.57523033331E+02 -0.70345929511E+01  0.12051090368E+03  0.13372083894E+03  0.51100000000E-03 0. -1.
         11    1    3    3    0    0 -0.57523033331E+02  0.70345929511E+01  0.43309882533E+02  0.72347292879E+02  0.51100000000E-03 0. -1.
<mgrwt>
<rscale>  0 0.12500730E+03</rscale>
<asrwt>0</asrwt>
<pdfrwt beam="1">  1       21 0.28452993E-01 0.12500730E+03</pdfrwt>
<pdfrwt beam="2">  1       21 0.32497959E-02 0.12500730E+03</pdfrwt>
<totfact> 0.64263732E+06</totfact>
</mgrwt>
</event>
<event>
 5    1  0.1829803E-009  0.1249963E+03  0.7818608E-02  0.1235075E+00
         21   -1    0    0  502  501  0.00000000000E+00  0.00000000000E+00  0.18004709425E+02  0.18004709425E+02  0.00000000000E+00 0. -1.
         21   -1    0    0  501  502 -0.00000000000E+00 -0.00000000000E+00 -0.21694426658E+03  0.21694426658E+03  0.00000000000E+00 0. -1.
         25    2    1    2    0    0  0.00000000000E+00  0.00000000000E+00 -0.19893955716E+03  0.23494897601E+03  0.12499629565E+03 0.  0.
        -11    1    3    3    0    0 -0.38460209841E+02  0.38854639470E+02 -0.42545693100E+02  0.69274863774E+02  0.51100000000E-03 0. -1.
         11    1    3    3    0    0  0.38460209841E+02 -0.38854639470E+02 -0.15639386406E+03  0.16567411224E+03  0.51100000000E-03 0. -1.
<mgrwt>
<rscale>  0 0.12499630E+03</rscale>
<asrwt>0</asrwt>
<pdfrwt beam="1">  1       21 0.27699554E-02 0.12499630E+03</pdfrwt>
<pdfrwt beam="2">  1       21 0.33376040E-01 0.12499630E+03</pdfrwt>
<totfact> 0.61330625E+06</totfact>
</mgrwt>
</event>
<event>
 5    1  0.1829803E-009  0.1250004E+03  0.7818608E-02  0.1235069E+00
         21   -1    0    0  502  501  0.00000000000E+00  0.00000000000E+00  0.20386362462E+02  0.20386362462E+02  0.00000000000E+00 0. -1.
         21   -1    0    0  501  502 -0.00000000000E+00 -0.00000000000E+00 -0.19161206335E+03  0.19161206335E+03  0.00000000000E+00 0. -1.
         25    2    1    2    0    0  0.00000000000E+00  0.00000000000E+00 -0.17122570089E+03  0.21199842582E+03  0.12500036761E+03 0.  0.
        -11    1    3    3    0    0  0.12667345100E+01 -0.59997908635E+02 -0.55997708672E+02  0.82079821111E+02  0.51100000000E-03 0.  1.
         11    1    3    3    0    0 -0.12667345100E+01  0.59997908635E+02 -0.11522799222E+03  0.12991860470E+03  0.51100000000E-03 0.  1.
<mgrwt>
<rscale>  0 0.12500037E+03</rscale>
<asrwt>0</asrwt>
<pdfrwt beam="1">  1       21 0.31363634E-02 0.12500037E+03</pdfrwt>
<pdfrwt beam="2">  1       21 0.29478779E-01 0.12500037E+03</pdfrwt>
<totfact> 0.63649298E+06</totfact>
</mgrwt>
</event>
<event>
 5    1  0.1829803E-009  0.1249974E+03  0.7818608E-02  0.1235073E+00
         21   -1    0    0  502  501  0.00000000000E+00  0.00000000000E+00  0.11387138210E+02  0.11387138210E+02  0.00000000000E+00 0. -1.
         21   -1    0    0  501  502 -0.00000000000E+00 -0.00000000000E+00 -0.34302633715E+03  0.34302633715E+03  0.00000000000E+00 0. -1.
         25    2    1    2    0    0  0.00000000000E+00  0.00000000000E+00 -0.33163919894E+03  0.35441347536E+03  0.12499741295E+03 0.  0.
        -11    1    3    3    0    0  0.61555327440E+02 -0.10752361525E+02 -0.16919439554E+03  0.18036467253E+03  0.51100000000E-03 0.  1.
         11    1    3    3    0    0 -0.61555327440E+02  0.10752361525E+02 -0.16244480340E+03  0.17404880283E+03  0.51100000000E-03 0.  1.
<mgrwt>
<rscale>  0 0.12499741E+03</rscale>
<asrwt>0</asrwt>
<pdfrwt beam="1">  1       21 0.17518675E-02 0.12499741E+03</pdfrwt>
<pdfrwt beam="2">  1       21 0.52773281E-01 0.12499741E+03</pdfrwt>
<totfact> 0.51217446E+06</totfact>
</mgrwt>
</event>
<event>
 5    1  0.1829803E-009  0.1249999E+03  0.7818608E-02  0.1235069E+00
         21   -1    0    0  502  501  0.00000000000E+00  0.00000000000E+00  0.44153637833E+02  0.44153637833E+02  0.00000000000E+00 0. -1.
         21   -1    0    0  501  502 -0.00000000000E+00 -0.00000000000E+00 -0.88469411079E+02  0.88469411079E+02  0.00000000000E+00 0. -1.
         25    2    1    2    0    0  0.00000000000E+00  0.00000000000E+00 -0.44315773247E+02  0.13262304891E+03  0.12499994138E+03 0.  0.
        -11    1    3    3    0    0  0.47047955027E+02  0.17733361091E+01 -0.65769289986E+02  0.80884203023E+02  0.51100000000E-03 0.  1.
         11    1    3    3    0    0 -0.47047955027E+02 -0.17733361091E+01  0.21453516740E+02  0.51738845889E+02  0.51100000000E-03 0.  1.
<mgrwt>
<rscale>  0 0.12499994E+03</rscale>
<asrwt>0</asrwt>
<pdfrwt beam="1">  1       21 0.67928674E-02 0.12499994E+03</pdfrwt>
<pdfrwt beam="2">  1       21 0.13610679E-01 0.12499994E+03</pdfrwt>
<totfact> 0.73012885E+06</totfact>
</mgrwt>
</event>
<event>
 5    1  0.1829803E-009  0.1250000E+03  0.7818608E-02  0.1235069E+00
         21   -1    0    0  502  501  0.00000000000E+00  0.00000000000E+00  0.38112929147E+02  0.38112929147E+02  0.00000000000E+00 0. -1.
         21   -1    0    0  501  502 -0.00000000000E+00 -0.00000000000E+00 -0.10249144242E+03  0.10249144242E+03  0.00000000000E+00 0. -1.
         25    2    1    2    0    0  0.00000000000E+00  0.00000000000E+00 -0.64378513276E+02  0.14060437157E+03  0.12499998533E+03 0.  0.
        -11    1    3    3    0    0 -0.34088237191E+02  0.42518016247E+02 -0.66611038878E+02  0.86062884689E+02  0.51100000000E-03 0. -1.
         11    1    3    3    0    0  0.34088237191E+02 -0.42518016247E+02  0.22325256022E+01  0.54541486881E+02  0.51100000000E-03 0. -1.
<mgrwt>
<rscale>  0 0.12499999E+03</rscale>
<asrwt>0</asrwt>
<pdfrwt beam="1">  1       21 0.58635276E-02 0.12499999E+03</pdfrwt>
<pdfrwt beam="2">  1       21 0.15767914E-01 0.12499999E+03</pdfrwt>
<totfact> 0.71960534E+06</totfact>
</mgrwt>
</event>
<event>
 5    1  0.1829803E-009  0.1249999E+03  0.7818608E-02  0.1235069E+00
         21   -1    0    0  502  501  0.00000000000E+00  0.00000000000E+00  0.76985537922E+02  0.76985537922E+02  0.00000000000E+00 0. -1.
         21   -1    0    0  501  502 -0.00000000000E+00 -0.00000000000E+00 -0.50739982272E+02  0.50739982272E+02  0.00000000000E+00 0. -1.
         25    2    1    2    0    0  0.00000000000E+00  0.00000000000E+00  0.26245555649E+02  0.12772552019E+03  0.12499991727E+03 0.  0.
        -11    1    3    3    0    0 -0.14108602577E+02 -0.46989199230E+01 -0.48906013530E+02  0.51116833575E+02  0.51100000000E-03 0. -1.
         11    1    3    3    0    0  0.14108602577E+02  0.46989199230E+01  0.75151569179E+02  0.76608686619E+02  0.51100000000E-03 0. -1.
<mgrwt>
<rscale>  0 0.12499992E+03</rscale>
<asrwt>0</asrwt>
<pdfrwt beam="1">  1       21 0.11843929E-01 0.12499992E+03</pdfrwt>
<pdfrwt beam="2">  1       21 0.78061511E-02 0.12499992E+03</pdfrwt>
<totfact> 0.73670827E+06</totfact>
</mgrwt>
</event>
<event>
 5    1  0.1829803E-009  0.1250077E+03  0.7818608E-02  0.1235057E+00
         21   -1    0    0  502  501  0.00000000000E+00  0.00000000000E+00  0.11352268393E+03  0.11352268393E+03  0.00000000000E+00 0.  1.
         21   -1    0    0  501  502 -0.00000000000E+00 -0.00000000000E+00 -0.34413659442E+02  0.34413659442E+02  0.00000000000E+00 0.  1.
         25    2    1    2    0    0  0.00000000000E+00  0.00000000000E+00  0.79109024484E+02  0.14793634337E+03  0.12500769550E+03 0.  0.
        -11    1    3    3    0    0 -0.10139995903E+02  0.26810913685E+02 -0.26176723109E+02  0.38818364758E+02  0.51100000000E-03 0. -1.
         11    1    3    3    0    0  0.10139995903E+02 -0.26810913685E+02  0.10528574759E+03  0.10911797861E+03  0.51100000000E-03 0. -1.
<mgrwt>
<rscale>  0 0.12500770E+03</rscale>
<asrwt>0</asrwt>
<pdfrwt beam="1">  1       21 0.17465028E-01 0.12500770E+03</pdfrwt>
<pdfrwt beam="2">  1       21 0.52944092E-02 0.12500770E+03</pdfrwt>
<totfact> 0.71005493E+06</totfact>
</mgrwt>
</event>
<event>
 5    1  0.1829803E-009  0.1249998E+03  0.7818608E-02  0.1235070E+00
         21   -1    0    0  502  501  0.00000000000E+00  0.00000000000E+00  0.26644424969E+02  0.26644424969E+02  0.00000000000E+00 0.  1.
         21   -1    0    0  501  502 -0.00000000000E+00 -0.00000000000E+00 -0.14660622878E+03  0.14660622878E+03  0.00000000000E+00 0.  1.
         25    2    1    2    0    0  0.00000000000E+00  0.00000000000E+00 -0.11996180381E+03  0.17325065374E+03  0.12499981860E+03 0.  0.
        -11    1    3    3    0    0 -0.25703131336E+02 -0.50907158574E+02 -0.95427177651E+02  0.11116895245E+03  0.51100000000E-03 0.  1.
         11    1    3    3    0    0  0.25703131336E+02  0.50907158574E+02 -0.24534626156E+02  0.62081701293E+02  0.51100000000E-03 0.  1.
<mgrwt>
<rscale>  0 0.12499982E+03</rscale>
<asrwt>0</asrwt>
<pdfrwt beam="1">  1       21 0.40991423E-02 0.12499982E+03</pdfrwt>
<pdfrwt beam="2">  1       21 0.22554804E-01 0.12499982E+03</pdfrwt>
<totfact> 0.67934676E+06</totfact>
</mgrwt>
</event>
<event>
 5    1  0.1829803E-009  0.1249972E+03  0.7818608E-02  0.1235074E+00
         21   -1    0    0  502  501  0.00000000000E+00  0.00000000000E+00  0.82765365442E+02  0.82765365442E+02  0.00000000000E+00 0.  1.
         21   -1    0    0  501  502 -0.00000000000E+00 -0.00000000000E+00 -0.47194555485E+02  0.47194555485E+02  0.00000000000E+00 0.  1.
         25    2    1    2    0    0  0.00000000000E+00  0.00000000000E+00  0.35570809957E+02  0.12995992093E+03  0.12499719407E+03 0.  0.
        -11    1    3    3    0    0  0.25709370015E+02  0.27279204046E+02  0.69780395223E+02  0.79211301199E+02  0.51100000000E-03 0. -1.
         11    1    3    3    0    0 -0.25709370015E+02 -0.27279204046E+02 -0.34209585266E+02  0.50748619728E+02  0.51100000000E-03 0. -1.
<mgrwt>
<rscale>  0 0.12499719E+03</rscale>
<asrwt>0</asrwt>
<pdfrwt beam="1">  1       21 0.12733133E-01 0.12499719E+03</pdfrwt>
<pdfrwt beam="2">  1       21 0.72607008E-02 0.12499719E+03</pdfrwt>
<totfact> 0.73375528E+06</totfact>
</mgrwt>
</event>
<event>
 5    1  0.1829803E-009  0.1249684E+03  0.7818608E-02  0.1235119E+00
         21   -1    0    0  502  501  0.00000000000E+00  0.00000000000E+00  0.31333233585E+02  0.31333233585E+02  0.00000000000E+00 0.  1.
         21   -1    0    0  501  502 -0.00000000000E+00 -0.00000000000E+00 -0.12460494057E+03  0.12460494057E+03  0.00000000000E+00 0.  1.
         25    2    1    2    0    0  0.00000000000E+00  0.00000000000E+00 -0.93271706989E+02  0.15593817416E+03  0.12496840735E+03 0.  0.
        -11    1    3    3    0    0  0.22708930891E+02  0.56121727761E+02 -0.65923943463E+02  0.89505922660E+02  0.51100000000E-03 0.  1.
         11    1    3    3    0    0 -0.22708930891E+02 -0.56121727761E+02 -0.27347763525E+02  0.66432251499E+02  0.51100000000E-03 0.  1.
<mgrwt>
<rscale>  0 0.12496841E+03</rscale>
<asrwt>0</asrwt>
<pdfrwt beam="1">  1       21 0.48204975E-02 0.12496841E+03</pdfrwt>
<pdfrwt beam="2">  1       21 0.19169991E-01 0.12496841E+03</pdfrwt>
<totfact> 0.70075536E+06</totfact>
</mgrwt>
</event>
<event>
 5    1  0.1829803E-009  0.1249978E+03  0.7818608E-02  0.1235073E+00
         21   -1    0    0  502  501  0.00000000000E+00  0.00000000000E+00  0.81392500546E+02  0.81392500546E+02  0.00000000000E+00 0.  1.
         21   -1    0    0  501  502 -0.00000000000E+00 -0.00000000000E+00 -0.47991081086E+02  0.47991081086E+02  0.00000000000E+00 0.  1.
         25    2    1    2    0    0  0.00000000000E+00  0.00000000000E+00  0.33401419460E+02  0.12938358163E+03  0.12499782548E+03 0.  0.
        -11    1    3    3    0    0 -0.24266494984E+02 -0.18948607166E+02  0.72998402314E+02  0.79225496105E+02  0.51100000000E-03 0.  1.
         11    1    3    3    0    0  0.24266494984E+02  0.18948607166E+02 -0.39596982854E+02  0.50158085527E+02  0.51100000000E-03 0.  1.
<mgrwt>
<rscale>  0 0.12499783E+03</rscale>
<asrwt>0</asrwt>
<pdfrwt beam="1">  1       21 0.12521923E-01 0.12499783E+03</pdfrwt>
<pdfrwt beam="2">  1       21 0.73832432E-02 0.12499783E+03</pdfrwt>
<totfact> 0.73451494E+06</totfact>
</mgrwt>
</event>
<event>
 5    1  0.1829803E-009  0.1250000E+03  0.7818608E-02  0.1235069E+00
         21   -1    0    0  502  501  0.00000000000E+00  0.00000000000E+00  0.48432919376E+02  0.48432919376E+02  0.00000000000E+00 0.  1.
         21   -1    0    0  501  502 -0.00000000000E+00 -0.00000000000E+00 -0.80652768752E+02  0.80652768752E+02  0.00000000000E+00 0.  1.
         25    2    1    2    0    0  0.00000000000E+00  0.00000000000E+00 -0.32219849376E+02  0.12908568813E+03  0.12499998474E+03 0.  0.
        -11    1    3    3    0    0  0.56330081915E+02  0.61056867937E+00 -0.44064976951E+02  0.71520438453E+02  0.51100000000E-03 0. -1.
         11    1    3    3    0    0 -0.56330081915E+02 -0.61056867937E+00  0.11845127575E+02  0.57565249675E+02  0.51100000000E-03 0. -1.
<mgrwt>
<rscale>  0 0.12499998E+03</rscale>
<asrwt>0</asrwt>
<pdfrwt beam="1">  1       21 0.74512183E-02 0.12499998E+03</pdfrwt>
<pdfrwt beam="2">  1       21 0.12408118E-01 0.12499998E+03</pdfrwt>
<totfact> 0.73487404E+06</totfact>
</mgrwt>
</event>
<event>
 5    1  0.1829803E-009  0.1250009E+03  0.7818608E-02  0.1235068E+00
         21   -1    0    0  502  501  0.00000000000E+00  0.00000000000E+00  0.30598334142E+02  0.30598334142E+02  0.00000000000E+00 0. -1.
         21   -1    0    0  501  502 -0.00000000000E+00 -0.00000000000E+00 -0.12766393552E+03  0.12766393552E+03  0.00000000000E+00 0. -1.
         25    2    1    2    0    0  0.00000000000E+00  0.00000000000E+00 -0.97065601378E+02  0.15826226966E+03  0.12500086011E+03 0.  0.
        -11    1    3    3    0    0 -0.76420946228E+01  0.34511835861E+02  0.16727144914E+02  0.39105828235E+02  0.51100000000E-03 0.  1.
         11    1    3    3    0    0  0.76420946228E+01 -0.34511835861E+02 -0.11379274629E+03  0.11915644143E+03  0.51100000000E-03 0.  1.
<mgrwt>
<rscale>  0 0.12500086E+03</rscale>
<asrwt>0</asrwt>
<pdfrwt beam="1">  1       21 0.47074360E-02 0.12500086E+03</pdfrwt>
<pdfrwt beam="2">  1       21 0.19640606E-01 0.12500086E+03</pdfrwt>
<totfact> 0.69730928E+06</totfact>
</mgrwt>
</event>
<event>
 5    1  0.1829803E-009  0.1249927E+03  0.7818608E-02  0.1235081E+00
         21   -1    0    0  502  501  0.00000000000E+00  0.00000000000E+00  0.15944237733E+03  0.15944237733E+03  0.00000000000E+00 0. -1.
         21   -1    0    0  501  502 -0.00000000000E+00 -0.00000000000E+00 -0.24496586950E+02  0.24496586950E+02  0.00000000000E+00 0. -1.
         25    2    1    2    0    0  0.00000000000E+00  0.00000000000E+00  0.13494579038E+03  0.18393896427E+03  0.12499270474E+03 0.  0.
        -11    1    3    3    0    0 -0.29258717853E+02 -0.28026776854E+02 -0.25513608642E+01  0.40596579090E+02  0.51100000000E-03 0.  1.
         11    1    3    3    0    0  0.29258717853E+02  0.28026776854E+02  0.13749715124E+03  0.14334238519E+03  0.51100000000E-03 0.  1.
<mgrwt>
<rscale>  0 0.12499270E+03</rscale>
<asrwt>0</asrwt>
<pdfrwt beam="1">  1       21 0.24529596E-01 0.12499270E+03</pdfrwt>
<pdfrwt beam="2">  1       21 0.37687058E-02 0.12499270E+03</pdfrwt>
<totfact> 0.66714859E+06</totfact>
</mgrwt>
</event>
<event>
 5    1  0.1829803E-009  0.1250027E+03  0.7818608E-02  0.1235065E+00
         21   -1    0    0  502  501  0.00000000000E+00  0.00000000000E+00  0.16093528476E+02  0.16093528476E+02  0.00000000000E+00 0. -1.
         21   -1    0    0  501  502 -0.00000000000E+00 -0.00000000000E+00 -0.24273238826E+03  0.24273238826E+03  0.00000000000E+00 0. -1.
         25    2    1    2    0    0  0.00000000000E+00  0.00000000000E+00 -0.22663885978E+03  0.25882591673E+03  0.12500272961E+03 0.  0.
        -11    1    3    3    0    0  0.60564966670E+02  0.15242255415E+02 -0.10825646544E+03  0.12497961373E+03  0.51100000000E-03 0. -1.
         11    1    3    3    0    0 -0.60564966670E+02 -0.15242255415E+02 -0.11838239434E+03  0.13384630300E+03  0.51100000000E-03 0. -1.
<mgrwt>
<rscale>  0 0.12500273E+03</rscale>
<asrwt>0</asrwt>
<pdfrwt beam="1">  1       21 0.24759277E-02 0.12500273E+03</pdfrwt>
<pdfrwt beam="2">  1       21 0.37343440E-01 0.12500273E+03</pdfrwt>
<totfact> 0.59052992E+06</totfact>
</mgrwt>
</event>
<event>
 5    1  0.1829803E-009  0.1250012E+03  0.7818608E-02  0.1235067E+00
         21   -1    0    0  502  501  0.00000000000E+00  0.00000000000E+00  0.57381968064E+02  0.57381968064E+02  0.00000000000E+00 0.  1.
         21   -1    0    0  501  502 -0.00000000000E+00 -0.00000000000E+00 -0.68075824491E+02  0.68075824491E+02  0.00000000000E+00 0.  1.
         25    2    1    2    0    0  0.00000000000E+00  0.00000000000E+00 -0.10693856427E+02  0.12545779255E+03  0.12500119658E+03 0.  0.
        -11    1    3    3    0    0 -0.21462345641E+02 -0.57768913088E+02 -0.15798668562E+02  0.63619788811E+02  0.51100000000E-03 0. -1.
         11    1    3    3    0    0  0.21462345641E+02  0.57768913088E+02  0.51048121349E+01  0.61838003743E+02  0.51100000000E-03 0. -1.
<mgrwt>
<rscale>  0 0.12500120E+03</rscale>
<asrwt>0</asrwt>
<pdfrwt beam="1">  1       21 0.88279951E-02 0.12500120E+03</pdfrwt>
<pdfrwt beam="2">  1       21 0.10473204E-01 0.12500120E+03</pdfrwt>
<totfact> 0.73979047E+06</totfact>
</mgrwt>
</event>
<event>
 5    1  0.1829803E-009  0.1250008E+03  0.7818608E-02  0.1235068E+00
         21   -1    0    0  502  501  0.00000000000E+00  0.00000000000E+00  0.23118815342E+03  0.23118815342E+03  0.00000000000E+00 0. -1.
         21   -1    0    0  501  502 -0.00000000000E+00 -0.00000000000E+00 -0.16896613672E+02  0.16896613672E+02  0.00000000000E+00 0. -1.
         25    2    1    2    0    0  0.00000000000E+00  0.00000000000E+00  0.21429153975E+03  0.24808476709E+03  0.12500075062E+03 0.  0.
        -11    1    3    3    0    0 -0.12281651941E+02  0.58277362679E+02  0.69530876412E+02  0.91551257502E+02  0.51100000000E-03 0. -1.
         11    1    3    3    0    0  0.12281651941E+02 -0.58277362679E+02  0.14476066334E+03  0.15653350959E+03  0.51100000000E-03 0. -1.
<mgrwt>
<rscale>  0 0.12500075E+03</rscale>
<asrwt>0</asrwt>
<pdfrwt beam="1">  1       21 0.35567406E-01 0.12500075E+03</pdfrwt>
<pdfrwt beam="2">  1       21 0.25994792E-02 0.12500075E+03</pdfrwt>
<totfact> 0.60057840E+06</totfact>
</mgrwt>
</event>
<event>
 5    1  0.1829803E-009  0.1249999E+03  0.7818608E-02  0.1235069E+00
         21   -1    0    0  502  501  0.00000000000E+00  0.00000000000E+00  0.26951553862E+03  0.26951553862E+03  0.00000000000E+00 0.  1.
         21   -1    0    0  501  502 -0.00000000000E+00 -0.00000000000E+00 -0.14493570032E+02  0.14493570032E+02  0.00000000000E+00 0.  1.
         25    2    1    2    0    0  0.00000000000E+00  0.00000000000E+00  0.25502196859E+03  0.28400910865E+03  0.12499987734E+03 0.  0.
        -11    1    3    3    0    0 -0.16029033492E+02 -0.58525051001E+02  0.93495749278E+02  0.11146105438E+03  0.51100000000E-03 0. -1.
         11    1    3    3    0    0  0.16029033492E+02  0.58525051001E+02  0.16152621931E+03  0.17254805427E+03  0.51100000000E-03 0. -1.
<mgrwt>
<rscale>  0 0.12499988E+03</rscale>
<asrwt>0</asrwt>
<pdfrwt beam="1">  1       21 0.41463925E-01 0.12499988E+03</pdfrwt>
<pdfrwt beam="2">  1       21 0.22297802E-02 0.12499988E+03</pdfrwt>
<totfact> 0.56812002E+06</totfact>
</mgrwt>
</event>
<event>
 5    1  0.1829803E-009  0.1250014E+03  0.7818608E-02  0.1235067E+00
         21   -1    0    0  502  501  0.00000000000E+00  0.00000000000E+00  0.39661692476E+02  0.39661692476E+02  0.00000000000E+00 0. -1.
         21   -1    0    0  501  502 -0.00000000000E+00 -0.00000000000E+00 -0.98491462808E+02  0.98491462808E+02  0.00000000000E+00 0. -1.
         25    2    1    2    0    0  0.00000000000E+00  0.00000000000E+00 -0.58829770333E+02  0.13815315528E+03  0.12500140974E+03 0.  0.
        -11    1    3    3    0    0  0.20402256460E+02  0.59027142405E+02 -0.26734316951E+02  0.67935111042E+02  0.51100000000E-03 0.  1.
         11    1    3    3    0    0 -0.20402256460E+02 -0.59027142405E+02 -0.32095453382E+02  0.70218044242E+02  0.51100000000E-03 0.  1.
<mgrwt>
<rscale>  0 0.12500141E+03</rscale>
<asrwt>0</asrwt>
<pdfrwt beam="1">  1       21 0.61017988E-02 0.12500141E+03</pdfrwt>
<pdfrwt beam="2">  1       21 0.15152533E-01 0.12500141E+03</pdfrwt>
<totfact> 0.72278740E+06</totfact>
</mgrwt>
</event>
<event>
 5    1  0.1829803E-009  0.1250060E+03  0.7818608E-02  0.1235060E+00
         21   -1    0    0  502  501  0.00000000000E+00  0.00000000000E+00  0.26883169979E+03  0.26883169979E+03  0.00000000000E+00 0. -1.
         21   -1    0    0  501  502 -0.00000000000E+00 -0.00000000000E+00 -0.14531865944E+02  0.14531865944E+02  0.00000000000E+00 0. -1.
         25    2    1    2    0    0  0.00000000000E+00  0.00000000000E+00  0.25429983385E+03  0.28336356573E+03  0.12500601942E+03 0.  0.
        -11    1    3    3    0    0 -0.25342549309E+02 -0.52661176980E+02  0.76911697230E+02  0.96596343292E+02  0.51100000000E-03 0.  1.
         11    1    3    3    0    0  0.25342549309E+02  0.52661176980E+02  0.17738813662E+03  0.18676722244E+03  0.51100000000E-03 0.  1.
<mgrwt>
<rscale>  0 0.12500602E+03</rscale>
<asrwt>0</asrwt>
<pdfrwt beam="1">  1       21 0.41358719E-01 0.12500602E+03</pdfrwt>
<pdfrwt beam="2">  1       21 0.22356719E-02 0.12500602E+03</pdfrwt>
<totfact> 0.56859093E+06</totfact>
</mgrwt>
</event>
<event>
 5    1  0.1829803E-009  0.1250016E+03  0.7818608E-02  0.1235067E+00
         21   -1    0    0  502  501  0.00000000000E+00  0.00000000000E+00  0.10229868898E+02  0.10229868898E+02  0.00000000000E+00 0. -1.
         21   -1    0    0  501  502 -0.00000000000E+00 -0.00000000000E+00 -0.38185704842E+03  0.38185704842E+03  0.00000000000E+00 0. -1.
         25    2    1    2    0    0  0.00000000000E+00  0.00000000000E+00 -0.37162717952E+03  0.39208691731E+03  0.12500156068E+03 0.  0.
        -11    1    3    3    0    0 -0.18974086608E+02  0.49755758905E+02 -0.28844965960E+03  0.29332381020E+03  0.51100000000E-03 0.  1.
         11    1    3    3    0    0  0.18974086608E+02 -0.49755758905E+02 -0.83177519917E+02  0.98763107113E+02  0.51100000000E-03 0.  1.
<mgrwt>
<rscale>  0 0.12500156E+03</rscale>
<asrwt>0</asrwt>
<pdfrwt beam="1">  1       21 0.15738262E-02 0.12500156E+03</pdfrwt>
<pdfrwt beam="2">  1       21 0.58747230E-01 0.12500156E+03</pdfrwt>
<totfact> 0.48568792E+06</totfact>
</mgrwt>
</event>
<event>
 5    1  0.1829803E-009  0.1250013E+03  0.7818608E-02  0.1235067E+00
         21   -1    0    0  502  501  0.00000000000E+00  0.00000000000E+00  0.21764149667E+02  0.21764149667E+02  0.00000000000E+00 0.  1.
         21   -1    0    0  501  502 -0.00000000000E+00 -0.00000000000E+00 -0.17948463100E+03  0.17948463100E+03  0.00000000000E+00 0.  1.
         25    2    1    2    0    0  0.00000000000E+00  0.00000000000E+00 -0.15772048133E+03  0.20124878066E+03  0.12500128594E+03 0.  0.
        -11    1    3    3    0    0 -0.34730672574E+02  0.61587260573E+01 -0.16192896750E+03  0.16572609946E+03  0.51100000000E-03 0. -1.
         11    1    3    3    0    0  0.34730672574E+02 -0.61587260573E+01  0.42084861727E+01  0.35522681208E+02  0.51100000000E-03 0. -1.
<mgrwt>
<rscale>  0 0.12500129E+03</rscale>
<asrwt>0</asrwt>
<pdfrwt beam="1">  1       21 0.33483308E-02 0.12500129E+03</pdfrwt>
<pdfrwt beam="2">  1       21 0.27613019E-01 0.12500129E+03</pdfrwt>
<totfact> 0.64790081E+06</totfact>
</mgrwt>
</event>
<event>
 5    1  0.1829803E-009  0.1250084E+03  0.7818608E-02  0.1235056E+00
         21   -1    0    0  502  501  0.00000000000E+00  0.00000000000E+00  0.15869254962E+03  0.15869254962E+03  0.00000000000E+00 0. -1.
         21   -1    0    0  501  502 -0.00000000000E+00 -0.00000000000E+00 -0.24618527912E+02  0.24618527912E+02  0.00000000000E+00 0. -1.
         25    2    1    2    0    0  0.00000000000E+00  0.00000000000E+00  0.13407402171E+03  0.18331107753E+03  0.12500843111E+03 0.  0.
        -11    1    3    3    0    0  0.31466463465E+02  0.51927993876E+02  0.45280902135E+02  0.75743085291E+02  0.51100000000E-03 0.  1.
         11    1    3    3    0    0 -0.31466463465E+02 -0.51927993876E+02  0.88793119570E+02  0.10756799224E+03  0.51100000000E-03 0.  1.
<mgrwt>
<rscale>  0 0.12500843E+03</rscale>
<asrwt>0</asrwt>
<pdfrwt beam="1">  1       21 0.24414238E-01 0.12500843E+03</pdfrwt>
<pdfrwt beam="2">  1       21 0.37874659E-02 0.12500843E+03</pdfrwt>
<totfact> 0.66759443E+06</totfact>
</mgrwt>
</event>
<event>
 4    1  0.1829803E-009  0.1253924E+03  0.7818608E-02  0.1234457E+00
         21   -1    0    0  502  501  0.00000000000E+00  0.00000000000E+00  0.58834340868E+02  0.58834340868E+02  0.00000000000E+00 0.  1.
         21   -1    0    0  501  502 -0.00000000000E+00 -0.00000000000E+00 -0.66811541491E+02  0.66811541491E+02  0.00000000000E+00 0.  1.
        -11    1    1    2    0    0 -0.29402858614E+02  0.37184471578E+02  0.37126043223E+02  0.60212590933E+02  0.51100000000E-03 0. -1.
         11    1    1    2    0    0  0.29402858614E+02 -0.37184471578E+02 -0.45103243846E+02  0.65433291426E+02  0.51100000000E-03 0. -1.
<mgrwt>
<rscale>  0 0.12539239E+03</rscale>
<asrwt>0</asrwt>
<pdfrwt beam="1">  1       21 0.90514371E-02 0.12539239E+03</pdfrwt>
<pdfrwt beam="2">  1       21 0.10278699E-01 0.12539239E+03</pdfrwt>
<totfact> 0.73219292E+06</totfact>
</mgrwt>
</event>
<event>
 5    1  0.1829803E-009  0.1249957E+03  0.7818608E-02  0.1235076E+00
         21   -1    0    0  502  501  0.00000000000E+00  0.00000000000E+00  0.86734642943E+01  0.86734642943E+01  0.00000000000E+00 0.  1.
         21   -1    0    0  501  502 -0.00000000000E+00 -0.00000000000E+00 -0.45033717436E+03  0.45033717436E+03  0.00000000000E+00 0.  1.
         25    2    1    2    0    0  0.00000000000E+00  0.00000000000E+00 -0.44166371006E+03  0.45901063865E+03  0.12499573436E+03 0.  0.
        -11    1    3    3    0    0  0.59115099414E+02  0.18872655615E+02 -0.19354575173E+03  0.20325041236E+03  0.51100000000E-03 0.  1.
         11    1    3    3    0    0 -0.59115099414E+02 -0.18872655615E+02 -0.24811795833E+03  0.25576022629E+03  0.51100000000E-03 0.  1.
<mgrwt>
<rscale>  0 0.12499573E+03</rscale>
<asrwt>0</asrwt>
<pdfrwt beam="1">  1       21 0.13343793E-02 0.12499573E+03</pdfrwt>
<pdfrwt beam="2">  1       21 0.69282635E-01 0.12499573E+03</pdfrwt>
<totfact> 0.44362676E+06</totfact>
</mgrwt>
</event>
<event>
 5    1  0.1829803E-009  0.1249975E+03  0.7818608E-02  0.1235073E+00
         21   -1    0    0  502  501  0.00000000000E+00  0.00000000000E+00  0.41038412859E+02  0.41038412859E+02  0.00000000000E+00 0.  1.
         21   -1    0    0  501  502 -0.00000000000E+00 -0.00000000000E+00 -0.95181389060E+02  0.95181389060E+02  0.00000000000E+00 0.  1.
         25    2    1    2    0    0  0.00000000000E+00  0.00000000000E+00 -0.54142976201E+02  0.13621980192E+03  0.12499749023E+03 0.  0.
        -11    1    3    3    0    0 -0.42304239738E+01  0.37248713039E+02  0.27425481855E+02  0.46449113719E+02  0.51100000000E-03 0. -1.
         11    1    3    3    0    0  0.42304239738E+01 -0.37248713039E+02 -0.81568458056E+02  0.89770688200E+02  0.51100000000E-03 0. -1.
<mgrwt>
<rscale>  0 0.12499749E+03</rscale>
<asrwt>0</asrwt>
<pdfrwt beam="1">  1       21 0.63136021E-02 0.12499749E+03</pdfrwt>
<pdfrwt beam="2">  1       21 0.14643290E-01 0.12499749E+03</pdfrwt>
<totfact> 0.72540006E+06</totfact>
</mgrwt>
</event>
<event>
 5    1  0.1829803E-009  0.1249985E+03  0.7818608E-02  0.1235072E+00
         21   -1    0    0  502  501  0.00000000000E+00  0.00000000000E+00  0.18494302717E+03  0.18494302717E+03  0.00000000000E+00 0.  1.
         21   -1    0    0  501  502 -0.00000000000E+00 -0.00000000000E+00 -0.21120861908E+02  0.21120861908E+02  0.00000000000E+00 0.  1.
         25    2    1    2    0    0  0.00000000000E+00  0.00000000000E+00  0.16382216526E+03  0.20606388908E+03  0.12499849820E+03 0.  0.
        -11    1    3    3    0    0  0.32689912668E+02 -0.50804801626E+02  0.10830806675E+03  0.12401772285E+03  0.51100000000E-03 0.  1.
         11    1    3    3    0    0 -0.32689912668E+02  0.50804801626E+02  0.55514098517E+02  0.82046166229E+02  0.51100000000E-03 0.  1.
<mgrwt>
<rscale>  0 0.12499850E+03</rscale>
<asrwt>0</asrwt>
<pdfrwt beam="1">  1       21 0.28452772E-01 0.12499850E+03</pdfrwt>
<pdfrwt beam="2">  1       21 0.32493635E-02 0.12499850E+03</pdfrwt>
<totfact> 0.64278497E+06</totfact>
</mgrwt>
</event>
<event>
 5    1  0.1829803E-009  0.1249805E+03  0.7818608E-02  0.1235100E+00
         21   -1    0    0  502  501  0.00000000000E+00  0.00000000000E+00  0.89972960828E+02  0.89972960828E+02  0.00000000000E+00 0. -1.
         21   -1    0    0  501  502 -0.00000000000E+00 -0.00000000000E+00 -0.43402272383E+02  0.43402272383E+02  0.00000000000E+00 0. -1.
         25    2    1    2    0    0  0.00000000000E+00  0.00000000000E+00  0.46570688445E+02  0.13337523321E+03  0.12498049373E+03 0.  0.
        -11    1    3    3    0    0 -0.41319906234E+02  0.38073700612E+02 -0.59030209593E+01  0.56495902384E+02  0.51100000000E-03 0.  1.
         11    1    3    3    0    0  0.41319906234E+02 -0.38073700612E+02  0.52473709404E+02  0.76879330827E+02  0.51100000000E-03 0.  1.
<mgrwt>
<rscale>  0 0.12498049E+03</rscale>
<asrwt>0</asrwt>
<pdfrwt beam="1">  1       21 0.13841994E-01 0.12498049E+03</pdfrwt>
<pdfrwt beam="2">  1       21 0.66772727E-02 0.12498049E+03</pdfrwt>
<totfact> 0.72948624E+06</totfact>
</mgrwt>
</event>
<event>
 5    1  0.1829803E-009  0.1249976E+03  0.7818608E-02  0.1235073E+00
         21   -1    0    0  502  501  0.00000000000E+00  0.00000000000E+00  0.81126612445E+02  0.81126612445E+02  0.00000000000E+00 0. -1.
         21   -1    0    0  501  502 -0.00000000000E+00 -0.00000000000E+00 -0.48148232559E+02  0.48148232559E+02  0.00000000000E+00 0. -1.
         25    2    1    2    0    0  0.00000000000E+00  0.00000000000E+00  0.32978379887E+02  0.12927484500E+03  0.12499764802E+03 0.  0.
        -11    1    3    3    0    0  0.34008002485E+02  0.89709655300E+01  0.69920155745E+02  0.78267813534E+02  0.51100000000E-03 0.  1.
         11    1    3    3    0    0 -0.34008002485E+02 -0.89709655300E+01 -0.36941775859E+02  0.51007031471E+02  0.51100000000E-03 0.  1.
<mgrwt>
<rscale>  0 0.12499765E+03</rscale>
<asrwt>0</asrwt>
<pdfrwt beam="1">  1       21 0.12481017E-01 0.12499765E+03</pdfrwt>
<pdfrwt beam="2">  1       21 0.74074204E-02 0.12499765E+03</pdfrwt>
<totfact> 0.73466407E+06</totfact>
</mgrwt>
</event>
<event>
 5    1  0.1829803E-009  0.1249996E+03  0.7818608E-02  0.1235070E+00
         21   -1    0    0  502  501  0.00000000000E+00  0.00000000000E+00  0.21160375840E+02  0.21160375840E+02  0.00000000000E+00 0.  1.
         21   -1    0    0  501  502 -0.00000000000E+00 -0.00000000000E+00 -0.18460086375E+03  0.18460086375E+03  0.00000000000E+00 0.  1.
         25    2    1    2    0    0  0.00000000000E+00  0.00000000000E+00 -0.16344048791E+03  0.20576123959E+03  0.12499957852E+03 0.  0.
        -11    1    3    3    0    0 -0.54995058708E+02 -0.29074250997E+02 -0.71781438523E+02  0.94986017234E+02  0.51100000000E-03 0.  1.
         11    1    3    3    0    0  0.54995058708E+02  0.29074250997E+02 -0.91659049387E+02  0.11077522236E+03  0.51100000000E-03 0.  1.
<mgrwt>
<rscale>  0 0.12499958E+03</rscale>
<asrwt>0</asrwt>
<pdfrwt beam="1">  1       21 0.32554424E-02 0.12499958E+03</pdfrwt>
<pdfrwt beam="2">  1       21 0.28400133E-01 0.12499958E+03</pdfrwt>
<totfact> 0.64308965E+06</totfact>
</mgrwt>
</event>
<event>
 5    1  0.1829803E-009  0.1249829E+03  0.7818608E-02  0.1235096E+00
         21   -1    0    0  502  501  0.00000000000E+00  0.00000000000E+00  0.48661672132E+02  0.48661672132E+02  0.00000000000E+00 0. -1.
         21   -1    0    0  501  502 -0.00000000000E+00 -0.00000000000E+00 -0.80251658171E+02  0.80251658171E+02  0.00000000000E+00 0. -1.
         25    2    1    2    0    0  0.00000000000E+00  0.00000000000E+00 -0.31589986039E+02  0.12891333030E+03  0.12498287687E+03 0.  0.
        -11    1    3    3    0    0 -0.32033275371E+02  0.31065134049E+01 -0.71046326114E+02  0.77995907656E+02  0.51100000000E-03 0.  1.
         11    1    3    3    0    0  0.32033275371E+02 -0.31065134049E+01  0.39456340075E+02  0.50917422646E+02  0.51100000000E-03 0.  1.
<mgrwt>
<rscale>  0 0.12498288E+03</rscale>
<asrwt>0</asrwt>
<pdfrwt beam="1">  1       21 0.74864111E-02 0.12498288E+03</pdfrwt>
<pdfrwt beam="2">  1       21 0.12346409E-01 0.12498288E+03</pdfrwt>
<totfact> 0.73542669E+06</totfact>
</mgrwt>
</event>
<event>
 5    1  0.1829803E-009  0.1250050E+03  0.7818608E-02  0.1235061E+00
         21   -1    0    0  502  501  0.00000000000E+00  0.00000000000E+00  0.27081380272E+03  0.27081380272E+03  0.00000000000E+00 0. -1.
         21   -1    0    0  501  502 -0.00000000000E+00 -0.00000000000E+00 -0.14425275844E+02  0.14425275844E+02  0.00000000000E+00 0. -1.
         25    2    1    2    0    0  0.00000000000E+00  0.00000000000E+00  0.25638852687E+03  0.28523907856E+03  0.12500502081E+03 0.  0.
        -11    1    3    3    0    0 -0.37956765933E+02 -0.14374048647E+02  0.23665242015E+03  0.24010767859E+03  0.51100000000E-03 0. -1.
         11    1    3    3    0    0  0.37956765933E+02  0.14374048647E+02  0.19736106723E+02  0.45131399972E+02  0.51100000000E-03 0. -1.
<mgrwt>
<rscale>  0 0.12500502E+03</rscale>
<asrwt>0</asrwt>
<pdfrwt beam="1">  1       21 0.41663658E-01 0.12500502E+03</pdfrwt>
<pdfrwt beam="2">  1       21 0.22192734E-02 0.12500502E+03</pdfrwt>
<totfact> 0.56698458E+06</totfact>
</mgrwt>
</event>
<event>
 5    1  0.1829803E-009  0.1250002E+03  0.7818608E-02  0.1235069E+00
         21   -1    0    0  502  501  0.00000000000E+00  0.00000000000E+00  0.12456394198E+03  0.12456394198E+03  0.00000000000E+00 0. -1.
         21   -1    0    0  501  502 -0.00000000000E+00 -0.00000000000E+00 -0.31359500967E+02  0.31359500967E+02  0.00000000000E+00 0. -1.
         25    2    1    2    0    0  0.00000000000E+00  0.00000000000E+00  0.93204441015E+02  0.15592344295E+03  0.12500020894E+03 0.  0.
        -11    1    3    3    0    0 -0.53269686762E+02  0.30669300414E+02  0.60714640537E+02  0.86397529429E+02  0.51100000000E-03 0.  1.
         11    1    3    3    0    0  0.53269686762E+02 -0.30669300414E+02  0.32489800477E+02  0.69525913520E+02  0.51100000000E-03 0.  1.
<mgrwt>
<rscale>  0 0.12500021E+03</rscale>
<asrwt>0</asrwt>
<pdfrwt beam="1">  1       21 0.19163683E-01 0.12500021E+03</pdfrwt>
<pdfrwt beam="2">  1       21 0.48245387E-02 0.12500021E+03</pdfrwt>
<totfact> 0.70020696E+06</totfact>
</mgrwt>
</event>
<event>
 5    1  0.1829803E-009  0.1249964E+03  0.7818608E-02  0.1235075E+00
         21   -1    0    0  502  501  0.00000000000E+00  0.00000000000E+00  0.20319308156E+03  0.20319308156E+03  0.00000000000E+00 0. -1.
         21   -1    0    0  501  502 -0.00000000000E+00 -0.00000000000E+00 -0.19223208548E+02  0.19223208548E+02  0.00000000000E+00 0. -1.
         25    2    1    2    0    0  0.00000000000E+00  0.00000000000E+00  0.18396987301E+03  0.22241629011E+03  0.12499636766E+03 0.  0.
        -11    1    3    3    0    0  0.30539173597E+02 -0.52534496724E+02  0.65984730046E+02  0.89702280180E+02  0.51100000000E-03 0.  1.
         11    1    3    3    0    0 -0.30539173597E+02  0.52534496724E+02  0.11798514296E+03  0.13271400993E+03  0.51100000000E-03 0.  1.
<mgrwt>
<rscale>  0 0.12499637E+03</rscale>
<asrwt>0</asrwt>
<pdfrwt beam="1">  1       21 0.31260473E-01 0.12499637E+03</pdfrwt>
<pdfrwt beam="2">  1       21 0.29574168E-02 0.12499637E+03</pdfrwt>
<totfact> 0.62582153E+06</totfact>
</mgrwt>
</event>
<event>
 5    1  0.1829803E-009  0.1250036E+03  0.7818608E-02  0.1235064E+00
         21   -1    0    0  502  501  0.00000000000E+00  0.00000000000E+00  0.28422627767E+02  0.28422627767E+02  0.00000000000E+00 0.  1.
         21   -1    0    0  501  502 -0.00000000000E+00 -0.00000000000E+00 -0.13744251720E+03  0.13744251720E+03  0.00000000000E+00 0.  1.
         25    2    1    2    0    0  0.00000000000E+00  0.00000000000E+00 -0.10901988943E+03  0.16586514496E+03  0.12500364004E+03 0.  0.
        -11    1    3    3    0    0  0.20107090744E+02 -0.58140305348E+02 -0.69159070347E+02  0.92561153924E+02  0.51100000000E-03 0.  1.
         11    1    3    3    0    0 -0.20107090744E+02  0.58140305348E+02 -0.39860819083E+02  0.73303991040E+02  0.51100000000E-03 0.  1.
<mgrwt>
<rscale>  0 0.12500364E+03</rscale>
<asrwt>0</asrwt>
<pdfrwt beam="1">  1       21 0.43727120E-02 0.12500364E+03</pdfrwt>
<pdfrwt beam="2">  1       21 0.21145003E-01 0.12500364E+03</pdfrwt>
<totfact> 0.68803482E+06</totfact>
</mgrwt>
</event>
<event>
 5    1  0.1829803E-009  0.1249965E+03  0.7818608E-02  0.1235075E+00
         21   -1    0    0  502  501  0.00000000000E+00  0.00000000000E+00  0.62838401302E+01  0.62838401302E+01  0.00000000000E+00 0.  1.
         21   -1    0    0  501  502 -0.00000000000E+00 -0.00000000000E+00 -0.62159922462E+03  0.62159922462E+03  0.00000000000E+00 0.  1.
         25    2    1    2    0    0  0.00000000000E+00  0.00000000000E+00 -0.61531538449E+03  0.62788306475E+03  0.12499648239E+03 0.  0.
        -11    1    3    3    0    0 -0.28322429687E+02 -0.55591108509E+02 -0.32611329768E+03  0.33202773121E+03  0.51100000000E-03 0.  1.
         11    1    3    3    0    0  0.28322429687E+02  0.55591108509E+02 -0.28920208681E+03  0.29585533354E+03  0.51100000000E-03 0.  1.
<mgrwt>
<rscale>  0 0.12499648E+03</rscale>
<asrwt>0</asrwt>
<pdfrwt beam="1">  1       21 0.96674429E-03 0.12499648E+03</pdfrwt>
<pdfrwt beam="2">  1       21 0.95630684E-01 0.12499648E+03</pdfrwt>
<totfact> 0.35864383E+06</totfact>
</mgrwt>
</event>
<event>
 5    1  0.1829803E-009  0.1250038E+03  0.7818608E-02  0.1235063E+00
         21   -1    0    0  502  501  0.00000000000E+00  0.00000000000E+00  0.19002628217E+02  0.19002628217E+02  0.00000000000E+00 0.  1.
         21   -1    0    0  501  502 -0.00000000000E+00 -0.00000000000E+00 -0.20557604419E+03  0.20557604419E+03  0.00000000000E+00 0.  1.
         25    2    1    2    0    0  0.00000000000E+00  0.00000000000E+00 -0.18657341597E+03  0.22457867241E+03  0.12500376215E+03 0.  0.
        -11    1    3    3    0    0  0.24185455555E+02 -0.20651590303E+02 -0.18995282259E+03  0.19259672700E+03  0.51100000000E-03 0.  1.
         11    1    3    3    0    0 -0.24185455555E+02  0.20651590303E+02  0.33794066164E+01  0.31981945404E+02  0.51100000000E-03 0.  1.
<mgrwt>
<rscale>  0 0.12500376E+03</rscale>
<asrwt>0</asrwt>
<pdfrwt beam="1">  1       21 0.29234812E-02 0.12500376E+03</pdfrwt>
<pdfrwt beam="2">  1       21 0.31627084E-01 0.12500376E+03</pdfrwt>
<totfact> 0.62351649E+06</totfact>
</mgrwt>
</event>
<event>
 5    1  0.1829803E-009  0.1250017E+03  0.7818608E-02  0.1235067E+00
         21   -1    0    0  502  501  0.00000000000E+00  0.00000000000E+00  0.12430737629E+03  0.12430737629E+03  0.00000000000E+00 0.  1.
         21   -1    0    0  501  502 -0.00000000000E+00 -0.00000000000E+00 -0.31424993428E+02  0.31424993428E+02  0.00000000000E+00 0.  1.
         25    2    1    2    0    0  0.00000000000E+00  0.00000000000E+00  0.92882382867E+02  0.15573236972E+03  0.12500173572E+03 0.  0.
        -11    1    3    3    0    0 -0.54552795480E+02 -0.27709903643E+02  0.62323216283E+02  0.87338591371E+02  0.51100000000E-03 0.  1.
         11    1    3    3    0    0  0.54552795480E+02  0.27709903643E+02  0.30559166583E+02  0.68393778351E+02  0.51100000000E-03 0.  1.
<mgrwt>
<rscale>  0 0.12500174E+03</rscale>
<asrwt>0</asrwt>
<pdfrwt beam="1">  1       21 0.19124212E-01 0.12500174E+03</pdfrwt>
<pdfrwt beam="2">  1       21 0.48346144E-02 0.12500174E+03</pdfrwt>
<totfact> 0.70041657E+06</totfact>
</mgrwt>
</event>
<event>
 5    1  0.1829803E-009  0.1249988E+03  0.7818608E-02  0.1235071E+00
         21   -1    0    0  502  501  0.00000000000E+00  0.00000000000E+00  0.11790034993E+03  0.11790034993E+03  0.00000000000E+00 0. -1.
         21   -1    0    0  501  502 -0.00000000000E+00 -0.00000000000E+00 -0.33131179790E+02  0.33131179790E+02  0.00000000000E+00 0. -1.
         25    2    1    2    0    0  0.00000000000E+00  0.00000000000E+00  0.84769170139E+02  0.15103152972E+03  0.12499884305E+03 0.  0.
        -11    1    3    3    0    0  0.46073028844E+02 -0.28601855383E+02  0.79926159281E+02  0.96586650506E+02  0.51100000000E-03 0. -1.
         11    1    3    3    0    0 -0.46073028844E+02  0.28601855383E+02  0.48430108586E+01  0.54444879214E+02  0.51100000000E-03 0. -1.
<mgrwt>
<rscale>  0 0.12499884E+03</rscale>
<asrwt>0</asrwt>
<pdfrwt beam="1">  1       21 0.18138515E-01 0.12499884E+03</pdfrwt>
<pdfrwt beam="2">  1       21 0.50971046E-02 0.12499884E+03</pdfrwt>
<totfact> 0.70631942E+06</totfact>
</mgrwt>
</event>
<event>
 5    1  0.1829803E-009  0.1250004E+03  0.7818608E-02  0.1235069E+00
         21   -1    0    0  502  501  0.00000000000E+00  0.00000000000E+00  0.26922823713E+03  0.26922823713E+03  0.00000000000E+00 0.  1.
         21   -1    0    0  501  502 -0.00000000000E+00 -0.00000000000E+00 -0.14509161994E+02  0.14509161994E+02  0.00000000000E+00 0.  1.
         25    2    1    2    0    0  0.00000000000E+00  0.00000000000E+00  0.25471907513E+03  0.28373739912E+03  0.12500041769E+03 0.  0.
        -11    1    3    3    0    0 -0.55526582633E+02 -0.21219970202E+02  0.83533133027E+02  0.10252449867E+03  0.51100000000E-03 0. -1.
         11    1    3    3    0    0  0.55526582633E+02  0.21219970202E+02  0.17118594211E+03  0.18121290045E+03  0.51100000000E-03 0. -1.
<mgrwt>
<rscale>  0 0.12500042E+03</rscale>
<asrwt>0</asrwt>
<pdfrwt beam="1">  1       21 0.41419725E-01 0.12500042E+03</pdfrwt>
<pdfrwt beam="2">  1       21 0.22321790E-02 0.12500042E+03</pdfrwt>
<totfact> 0.56834736E+06</totfact>
</mgrwt>
</event>
<event>
 5    1  0.1829803E-009  0.1250023E+03  0.7818608E-02  0.1235066E+00
         21   -1    0    0  502  501  0.00000000000E+00  0.00000000000E+00  0.15409368390E+02  0.15409368390E+02  0.00000000000E+00 0.  1.
         21   -1    0    0  501  502 -0.00000000000E+00 -0.00000000000E+00 -0.25350758584E+03  0.25350758584E+03  0.00000000000E+00 0.  1.
         25    2    1    2    0    0  0.00000000000E+00  0.00000000000E+00 -0.23809821745E+03  0.26891695423E+03  0.12500226846E+03 0.  0.
        -11    1    3    3    0    0 -0.44743321251E+02  0.39341953806E+02 -0.15967602755E+03  0.17042942205E+03  0.51100000000E-03 0. -1.
         11    1    3    3    0    0  0.44743321251E+02 -0.39341953806E+02 -0.78422189896E+02  0.98487532176E+02  0.51100000000E-03 0. -1.
<mgrwt>
<rscale>  0 0.12500227E+03</rscale>
<asrwt>0</asrwt>
<pdfrwt beam="1">  1       21 0.23706721E-02 0.12500227E+03</pdfrwt>
<pdfrwt beam="2">  1       21 0.39001167E-01 0.12500227E+03</pdfrwt>
<totfact> 0.58138180E+06</totfact>
</mgrwt>
</event>
<event>
 5    1  0.1829803E-009  0.1249958E+03  0.7818608E-02  0.1235076E+00
         21   -1    0    0  502  501  0.00000000000E+00  0.00000000000E+00  0.17007420048E+02  0.17007420048E+02  0.00000000000E+00 0.  1.
         21   -1    0    0  501  502 -0.00000000000E+00 -0.00000000000E+00 -0.22966371714E+03  0.22966371714E+03  0.00000000000E+00 0.  1.
         25    2    1    2    0    0  0.00000000000E+00  0.00000000000E+00 -0.21265629709E+03  0.24667113719E+03  0.12499579684E+03 0.  0.
        -11    1    3    3    0    0  0.62286944141E+02  0.28606556206E+01 -0.11473334950E+03  0.13058173015E+03  0.51100000000E-03 0.  1.
         11    1    3    3    0    0 -0.62286944141E+02 -0.28606556206E+01 -0.97922947590E+02  0.11608940704E+03  0.51100000000E-03 0.  1.
<mgrwt>
<rscale>  0 0.12499580E+03</rscale>
<asrwt>0</asrwt>
<pdfrwt beam="1">  1       21 0.26165262E-02 0.12499580E+03</pdfrwt>
<pdfrwt beam="2">  1       21 0.35332879E-01 0.12499580E+03</pdfrwt>
<totfact> 0.60199400E+06</totfact>
</mgrwt>
</event>
<event>
 5    1  0.1829803E-009  0.1250034E+03  0.7818608E-02  0.1235064E+00
         21   -1    0    0  502  501  0.00000000000E+00  0.00000000000E+00  0.18079041628E+03  0.18079041628E+03  0.00000000000E+00 0. -1.
         21   -1    0    0  501  502 -0.00000000000E+00 -0.00000000000E+00 -0.21607686372E+02  0.21607686372E+02  0.00000000000E+00 0. -1.
         25    2    1    2    0    0  0.00000000000E+00  0.00000000000E+00  0.15918272991E+03  0.20239810265E+03  0.12500340178E+03 0.  0.
        -11    1    3    3    0    0 -0.46555802703E+02 -0.41399045299E+02  0.71473202989E+02  0.94814252425E+02  0.51100000000E-03 0. -1.
         11    1    3    3    0    0  0.46555802703E+02  0.41399045299E+02  0.87709526917E+02  0.10758385022E+03  0.51100000000E-03 0. -1.
<mgrwt>
<rscale>  0 0.12500340E+03</rscale>
<asrwt>0</asrwt>
<pdfrwt beam="1">  1       21 0.27813909E-01 0.12500340E+03</pdfrwt>
<pdfrwt beam="2">  1       21 0.33242596E-02 0.12500340E+03</pdfrwt>
<totfact> 0.64662757E+06</totfact>
</mgrwt>
</event>
<event>
 5    1  0.1829803E-009  0.1250032E+03  0.7818608E-02  0.1235064E+00
         21   -1    0    0  502  501  0.00000000000E+00  0.00000000000E+00  0.16897336827E+03  0.16897336827E+03  0.00000000000E+00 0. -1.
         21   -1    0    0  501  502 -0.00000000000E+00 -0.00000000000E+00 -0.23118724330E+02  0.23118724330E+02  0.00000000000E+00 0. -1.
         25    2    1    2    0    0  0.00000000000E+00  0.00000000000E+00  0.14585464394E+03  0.19209209260E+03  0.12500317948E+03 0.  0.
        -11    1    3    3    0    0 -0.34700786999E+02  0.39654846861E+02  0.21275139162E+02  0.56826781050E+02  0.51100000000E-03 0.  1.
         11    1    3    3    0    0  0.34700786999E+02 -0.39654846861E+02  0.12457950478E+03  0.13526531155E+03  0.51100000000E-03 0.  1.
<mgrwt>
<rscale>  0 0.12500318E+03</rscale>
<asrwt>0</asrwt>
<pdfrwt beam="1">  1       21 0.25995902E-01 0.12500318E+03</pdfrwt>
<pdfrwt beam="2">  1       21 0.35567269E-02 0.12500318E+03</pdfrwt>
<totfact> 0.65785400E+06</totfact>
</mgrwt>
</event>
<event>
 5    1  0.1829803E-009  0.1250038E+03  0.7818608E-02  0.1235063E+00
         21   -1    0    0  502  501  0.00000000000E+00  0.00000000000E+00  0.69437566801E+01  0.69437566801E+01  0.00000000000E+00 0. -1.
         21   -1    0    0  501  502 -0.00000000000E+00 -0.00000000000E+00 -0.56258997171E+03  0.56258997171E+03  0.00000000000E+00 0. -1.
         25    2    1    2    0    0  0.00000000000E+00  0.00000000000E+00 -0.55564621503E+03  0.56953372839E+03  0.12500380593E+03 0.  0.
        -11    1    3    3    0    0  0.11947940524E+01 -0.62368516135E+02 -0.29560284291E+03  0.30211305843E+03  0.51100000000E-03 0. -1.
         11    1    3    3    0    0 -0.11947940524E+01  0.62368516135E+02 -0.26004337211E+03  0.26742066995E+03  0.51100000000E-03 0. -1.
<mgrwt>
<rscale>  0 0.12500381E+03</rscale>
<asrwt>0</asrwt>
<pdfrwt beam="1">  1       21 0.10682701E-02 0.12500381E+03</pdfrwt>
<pdfrwt beam="2">  1       21 0.86552318E-01 0.12500381E+03</pdfrwt>
<totfact> 0.38504055E+06</totfact>
</mgrwt>
</event>
<event>
 5    1  0.1829803E-009  0.1249997E+03  0.7818608E-02  0.1235070E+00
         21   -1    0    0  502  501  0.00000000000E+00  0.00000000000E+00  0.23398790856E+02  0.23398790856E+02  0.00000000000E+00 0.  1.
         21   -1    0    0  501  502 -0.00000000000E+00 -0.00000000000E+00 -0.16694157198E+03  0.16694157198E+03  0.00000000000E+00 0.  1.
         25    2    1    2    0    0  0.00000000000E+00  0.00000000000E+00 -0.14354278112E+03  0.19034036283E+03  0.12499969485E+03 0.  0.
        -11    1    3    3    0    0  0.58104921597E+02 -0.13512137686E+02 -0.43386886193E+02  0.73764365872E+02  0.51100000000E-03 0.  1.
         11    1    3    3    0    0 -0.58104921597E+02  0.13512137686E+02 -0.10015589493E+03  0.11657599696E+03  0.51100000000E-03 0.  1.
<mgrwt>
<rscale>  0 0.12499969E+03</rscale>
<asrwt>0</asrwt>
<pdfrwt beam="1">  1       21 0.35998140E-02 0.12499969E+03</pdfrwt>
<pdfrwt beam="2">  1       21 0.25683319E-01 0.12499969E+03</pdfrwt>
<totfact> 0.65985166E+06</totfact>
</mgrwt>
</event>
<event>
 5    1  0.1829803E-009  0.1249976E+03  0.7818608E-02  0.1235073E+00
         21   -1    0    0  502  501  0.00000000000E+00  0.00000000000E+00  0.73788319212E+02  0.73788319212E+02  0.00000000000E+00 0.  1.
         21   -1    0    0  501  502 -0.00000000000E+00 -0.00000000000E+00 -0.52936559394E+02  0.52936559394E+02  0.00000000000E+00 0.  1.
         25    2    1    2    0    0  0.00000000000E+00  0.00000000000E+00  0.20851759818E+02  0.12672487861E+03  0.12499759586E+03 0.  0.
        -11    1    3    3    0    0 -0.49356493997E+02  0.36849692943E+02  0.21161656751E+02  0.65128942003E+02  0.51100000000E-03 0. -1.
         11    1    3    3    0    0  0.49356493997E+02 -0.36849692943E+02 -0.30989693307E+00  0.61595936604E+02  0.51100000000E-03 0. -1.
<mgrwt>
<rscale>  0 0.12499760E+03</rscale>
<asrwt>0</asrwt>
<pdfrwt beam="1">  1       21 0.11352049E-01 0.12499760E+03</pdfrwt>
<pdfrwt beam="2">  1       21 0.81440860E-02 0.12499760E+03</pdfrwt>
<totfact> 0.73811167E+06</totfact>
</mgrwt>
</event>
<event>
 5    1  0.1829803E-009  0.1250001E+03  0.7818608E-02  0.1235069E+00
         21   -1    0    0  502  501  0.00000000000E+00  0.00000000000E+00  0.15096191654E+03  0.15096191654E+03  0.00000000000E+00 0. -1.
         21   -1    0    0  501  502 -0.00000000000E+00 -0.00000000000E+00 -0.25875757468E+02  0.25875757468E+02  0.00000000000E+00 0. -1.
         25    2    1    2    0    0  0.00000000000E+00  0.00000000000E+00  0.12508615907E+03  0.17683767401E+03  0.12500006303E+03 0.  0.
        -11    1    3    3    0    0  0.33474085658E+02  0.52668139606E+02  0.57682064474E+02  0.84980397166E+02  0.51100000000E-03 0. -1.
         11    1    3    3    0    0 -0.33474085658E+02 -0.52668139606E+02  0.67404094598E+02  0.91857276844E+02  0.51100000000E-03 0. -1.
<mgrwt>
<rscale>  0 0.12500006E+03</rscale>
<asrwt>0</asrwt>
<pdfrwt beam="1">  1       21 0.23224910E-01 0.12500006E+03</pdfrwt>
<pdfrwt beam="2">  1       21 0.39808859E-02 0.12500006E+03</pdfrwt>
<totfact> 0.67516065E+06</totfact>
</mgrwt>
</event>
<event>
 5    1  0.1829803E-009  0.1249978E+03  0.7818608E-02  0.1235073E+00
         21   -1    0    0  502  501  0.00000000000E+00  0.00000000000E+00  0.13576421347E+02  0.13576421347E+02  0.00000000000E+00 0.  1.
         21   -1    0    0  501  502 -0.00000000000E+00 -0.00000000000E+00 -0.28771283638E+03  0.28771283638E+03  0.00000000000E+00 0.  1.
         25    2    1    2    0    0  0.00000000000E+00  0.00000000000E+00 -0.27413641504E+03  0.30128925773E+03  0.12499777108E+03 0.  0.
        -11    1    3    3    0    0 -0.43017584347E+02 -0.42017499319E+02 -0.17812415809E+03  0.18800052794E+03  0.51100000000E-03 0.  1.
         11    1    3    3    0    0  0.43017584347E+02  0.42017499319E+02 -0.96012256949E+02  0.11328872979E+03  0.51100000000E-03 0.  1.
<mgrwt>
<rscale>  0 0.12499777E+03</rscale>
<asrwt>0</asrwt>
<pdfrwt beam="1">  1       21 0.20886805E-02 0.12499777E+03</pdfrwt>
<pdfrwt beam="2">  1       21 0.44263508E-01 0.12499777E+03</pdfrwt>
<totfact> 0.55352303E+06</totfact>
</mgrwt>
</event>
<event>
 5    1  0.1829803E-009  0.1250004E+03  0.7818608E-02  0.1235069E+00
         21   -1    0    0  502  501  0.00000000000E+00  0.00000000000E+00  0.33928565243E+03  0.33928565243E+03  0.00000000000E+00 0.  1.
         21   -1    0    0  501  502 -0.00000000000E+00 -0.00000000000E+00 -0.11513228284E+02  0.11513228284E+02  0.00000000000E+00 0.  1.
         25    2    1    2    0    0  0.00000000000E+00  0.00000000000E+00  0.32777242415E+03  0.35079888072E+03  0.12500037072E+03 0.  0.
        -11    1    3    3    0    0  0.53186714878E+02 -0.31559102614E+02  0.18921676186E+03  0.19906729155E+03  0.51100000000E-03 0. -1.
         11    1    3    3    0    0 -0.53186714878E+02  0.31559102614E+02  0.13855566229E+03  0.15173158916E+03  0.51100000000E-03 0. -1.
<mgrwt>
<rscale>  0 0.12500037E+03</rscale>
<asrwt>0</asrwt>
<pdfrwt beam="1">  1       21 0.52197785E-01 0.12500037E+03</pdfrwt>
<pdfrwt beam="2">  1       21 0.17712662E-02 0.12500037E+03</pdfrwt>
<totfact> 0.51479012E+06</totfact>
</mgrwt>
</event>
<event>
 5    1  0.1829803E-009  0.1249993E+03  0.7818608E-02  0.1235070E+00
         21   -1    0    0  502  501  0.00000000000E+00  0.00000000000E+00  0.89589509664E+02  0.89589509664E+02  0.00000000000E+00 0.  1.
         21   -1    0    0  501  502 -0.00000000000E+00 -0.00000000000E+00 -0.43601185722E+02  0.43601185722E+02  0.00000000000E+00 0.  1.
         25    2    1    2    0    0  0.00000000000E+00  0.00000000000E+00  0.45988323941E+02  0.13319069539E+03  0.12499934159E+03 0.  0.
        -11    1    3    3    0    0 -0.38050239347E+02  0.41513762211E+02 -0.58932446612E+01  0.56621051740E+02  0.51100000000E-03 0. -1.
         11    1    3    3    0    0  0.38050239347E+02 -0.41513762211E+02  0.51881568603E+02  0.76569643646E+02  0.51100000000E-03 0. -1.
<mgrwt>
<rscale>  0 0.12499934E+03</rscale>
<asrwt>0</asrwt>
<pdfrwt beam="1">  1       21 0.13783001E-01 0.12499934E+03</pdfrwt>
<pdfrwt beam="2">  1       21 0.67078748E-02 0.12499934E+03</pdfrwt>
<totfact> 0.72938170E+06</totfact>
</mgrwt>
</event>
<event>
 5    1  0.1829803E-009  0.1250001E+03  0.7818608E-02  0.1235069E+00
         21   -1    0    0  502  501  0.00000000000E+00  0.00000000000E+00  0.74552839280E+02  0.74552839280E+02  0.00000000000E+00 0.  1.
         21   -1    0    0  501  502 -0.00000000000E+00 -0.00000000000E+00 -0.52395838858E+02  0.52395838858E+02  0.00000000000E+00 0.  1.
         25    2    1    2    0    0  0.00000000000E+00  0.00000000000E+00  0.22157000422E+02  0.12694867814E+03  0.12500013685E+03 0.  0.
        -11    1    3    3    0    0  0.52346854604E+02  0.24631794474E+02  0.35097541002E+02  0.67666504791E+02  0.51100000000E-03 0. -1.
         11    1    3    3    0    0 -0.52346854604E+02 -0.24631794474E+02 -0.12940540580E+02  0.59282173347E+02  0.51100000000E-03 0. -1.
<mgrwt>
<rscale>  0 0.12500014E+03</rscale>
<asrwt>0</asrwt>
<pdfrwt beam="1">  1       21 0.11469668E-01 0.12500014E+03</pdfrwt>
<pdfrwt beam="2">  1       21 0.80608983E-02 0.12500014E+03</pdfrwt>
<totfact> 0.73775867E+06</totfact>
</mgrwt>
</event>
<event>
 5    1  0.1829803E-009  0.1249953E+03  0.7818608E-02  0.1235077E+00
         21   -1    0    0  502  501  0.00000000000E+00  0.00000000000E+00  0.74012592088E+02  0.74012592088E+02  0.00000000000E+00 0.  1.
         21   -1    0    0  501  502 -0.00000000000E+00 -0.00000000000E+00 -0.52774186065E+02  0.52774186065E+02  0.00000000000E+00 0.  1.
         25    2    1    2    0    0  0.00000000000E+00  0.00000000000E+00  0.21238406023E+02  0.12678677815E+03  0.12499526881E+03 0.  0.
        -11    1    3    3    0    0  0.32253835697E+01 -0.61770917323E+02  0.15521258024E+01  0.61874537742E+02  0.51100000000E-03 0.  1.
         11    1    3    3    0    0 -0.32253835697E+01  0.61770917323E+02  0.19686280221E+02  0.64912240411E+02  0.51100000000E-03 0.  1.
<mgrwt>
<rscale>  0 0.12499527E+03</rscale>
<asrwt>0</asrwt>
<pdfrwt beam="1">  1       21 0.11386553E-01 0.12499527E+03</pdfrwt>
<pdfrwt beam="2">  1       21 0.81191056E-02 0.12499527E+03</pdfrwt>
<totfact> 0.73807104E+06</totfact>
</mgrwt>
</event>
<event>
 5    1  0.1829803E-009  0.1250001E+03  0.7818608E-02  0.1235069E+00
         21   -1    0    0  502  501  0.00000000000E+00  0.00000000000E+00  0.38468228623E+02  0.38468228623E+02  0.00000000000E+00 0.  1.
         21   -1    0    0  501  502 -0.00000000000E+00 -0.00000000000E+00 -0.10154505879E+03  0.10154505879E+03  0.00000000000E+00 0.  1.
         25    2    1    2    0    0  0.00000000000E+00  0.00000000000E+00 -0.63076830168E+02  0.14001328741E+03  0.12500013659E+03 0.  0.
        -11    1    3    3    0    0 -0.26460265353E+02  0.54410904725E+02 -0.49091084960E+02  0.77914227316E+02  0.51100000000E-03 0. -1.
         11    1    3    3    0    0  0.26460265353E+02 -0.54410904725E+02 -0.13985745208E+02  0.62099060096E+02  0.51100000000E-03 0. -1.
<mgrwt>
<rscale>  0 0.12500014E+03</rscale>
<asrwt>0</asrwt>
<pdfrwt beam="1">  1       21 0.59181892E-02 0.12500014E+03</pdfrwt>
<pdfrwt beam="2">  1       21 0.15622316E-01 0.12500014E+03</pdfrwt>
<totfact> 0.72037323E+06</totfact>
</mgrwt>
</event>
<event>
 5    1  0.1829803E-009  0.1250010E+03  0.7818608E-02  0.1235068E+00
         21   -1    0    0  502  501  0.00000000000E+00  0.00000000000E+00  0.27209517604E+03  0.27209517604E+03  0.00000000000E+00 0. -1.
         21   -1    0    0  501  502 -0.00000000000E+00 -0.00000000000E+00 -0.14356421425E+02  0.14356421425E+02  0.00000000000E+00 0. -1.
         25    2    1    2    0    0  0.00000000000E+00  0.00000000000E+00  0.25773875462E+03  0.28645159747E+03  0.12500100824E+03 0.  0.
        -11    1    3    3    0    0 -0.59522606652E+02  0.10195388392E+02  0.16577944062E+03  0.17643613456E+03  0.51100000000E-03 0.  1.
         11    1    3    3    0    0  0.59522606652E+02 -0.10195388392E+02  0.91959313997E+02  0.11001546291E+03  0.51100000000E-03 0.  1.
<mgrwt>
<rscale>  0 0.12500101E+03</rscale>
<asrwt>0</asrwt>
<pdfrwt beam="1">  1       21 0.41860792E-01 0.12500101E+03</pdfrwt>
<pdfrwt beam="2">  1       21 0.22086804E-02 0.12500101E+03</pdfrwt>
<totfact> 0.56599802E+06</totfact>
</mgrwt>
</event>
<event>
 5    1  0.1829803E-009  0.1250000E+03  0.7818608E-02  0.1235069E+00
         21   -1    0    0  502  501  0.00000000000E+00  0.00000000000E+00  0.13903670984E+03  0.13903670984E+03  0.00000000000E+00 0. -1.
         21   -1    0    0  501  502 -0.00000000000E+00 -0.00000000000E+00 -0.28095112784E+02  0.28095112784E+02  0.00000000000E+00 0. -1.
         25    2    1    2    0    0  0.00000000000E+00  0.00000000000E+00  0.11094159706E+03  0.16713182262E+03  0.12500003270E+03 0.  0.
        -11    1    3    3    0    0 -0.10513713262E+02  0.47824678229E+02  0.35401555946E+01  0.49094508004E+02  0.51100000000E-03 0. -1.
         11    1    3    3    0    0  0.10513713262E+02 -0.47824678229E+02  0.10740144146E+03  0.11803731462E+03  0.51100000000E-03 0. -1.
<mgrwt>
<rscale>  0 0.12500003E+03</rscale>
<asrwt>0</asrwt>
<pdfrwt beam="1">  1       21 0.21390263E-01 0.12500003E+03</pdfrwt>
<pdfrwt beam="2">  1       21 0.43223251E-02 0.12500003E+03</pdfrwt>
<totfact> 0.68658337E+06</totfact>
</mgrwt>
</event>
<event>
 5    1  0.1829803E-009  0.1250013E+03  0.7818608E-02  0.1235067E+00
         21   -1    0    0  502  501  0.00000000000E+00  0.00000000000E+00  0.67420566060E+02  0.67420566060E+02  0.00000000000E+00 0.  1.
         21   -1    0    0  501  502 -0.00000000000E+00 -0.00000000000E+00 -0.57939734613E+02  0.57939734613E+02  0.00000000000E+00 0.  1.
         25    2    1    2    0    0  0.00000000000E+00  0.00000000000E+00  0.94808314478E+01  0.12536030067E+03  0.12500127527E+03 0.  0.
        -11    1    3    3    0    0 -0.34664481613E+02  0.18570040967E+01 -0.47382460124E+02  0.58738167126E+02  0.51100000000E-03 0.  1.
         11    1    3    3    0    0  0.34664481613E+02 -0.18570040967E+01  0.56863291572E+02  0.66622133547E+02  0.51100000000E-03 0.  1.
<mgrwt>
<rscale>  0 0.12500128E+03</rscale>
<asrwt>0</asrwt>
<pdfrwt beam="1">  1       21 0.10372395E-01 0.12500128E+03</pdfrwt>
<pdfrwt beam="2">  1       21 0.89138054E-02 0.12500128E+03</pdfrwt>
<totfact> 0.73992520E+06</totfact>
</mgrwt>
</event>
<event>
 5    1  0.1829803E-009  0.1250062E+03  0.7818608E-02  0.1235060E+00
         21   -1    0    0  502  501  0.00000000000E+00  0.00000000000E+00  0.35369271687E+03  0.35369271687E+03  0.00000000000E+00 0. -1.
         21   -1    0    0  501  502 -0.00000000000E+00 -0.00000000000E+00 -0.11045288583E+02  0.11045288583E+02  0.00000000000E+00 0. -1.
         25    2    1    2    0    0  0.00000000000E+00  0.00000000000E+00  0.34264742829E+03  0.36473800546E+03  0.12500620989E+03 0.  0.
        -11    1    3    3    0    0 -0.36001021214E+01  0.61856548751E+02  0.14736168644E+03  0.15985824967E+03  0.51100000000E-03 0.  1.
         11    1    3    3    0    0  0.36001021214E+01 -0.61856548751E+02  0.19528574186E+03  0.20487975579E+03  0.51100000000E-03 0.  1.
<mgrwt>
<rscale>  0 0.12500621E+03</rscale>
<asrwt>0</asrwt>
<pdfrwt beam="1">  1       21 0.54414255E-01 0.12500621E+03</pdfrwt>
<pdfrwt beam="2">  1       21 0.16992754E-02 0.12500621E+03</pdfrwt>
<totfact> 0.50460227E+06</totfact>
</mgrwt>
</event>
<event>
 5    1  0.1829803E-009  0.1249890E+03  0.7818608E-02  0.1235087E+00
         21   -1    0    0  502  501  0.00000000000E+00  0.00000000000E+00  0.17711767407E+02  0.17711767407E+02  0.00000000000E+00 0.  1.
         21   -1    0    0  501  502 -0.00000000000E+00 -0.00000000000E+00 -0.22050648807E+03  0.22050648807E+03  0.00000000000E+00 0.  1.
         25    2    1    2    0    0  0.00000000000E+00  0.00000000000E+00 -0.20279472066E+03  0.23821825548E+03  0.12498895357E+03 0.  0.
        -11    1    3    3    0    0 -0.21562651468E+02 -0.32168183153E+02 -0.19488085618E+03  0.19869143930E+03  0.51100000000E-03 0.  1.
         11    1    3    3    0    0  0.21562651468E+02  0.32168183153E+02 -0.79138644816E+01  0.39526816175E+02  0.51100000000E-03 0.  1.
<mgrwt>
<rscale>  0 0.12498895E+03</rscale>
<asrwt>0</asrwt>
<pdfrwt beam="1">  1       21 0.27248873E-02 0.12498895E+03</pdfrwt>
<pdfrwt beam="2">  1       21 0.33924075E-01 0.12498895E+03</pdfrwt>
<totfact> 0.61022510E+06</totfact>
</mgrwt>
</event>
<event>
 5    1  0.1829803E-009  0.1249982E+03  0.7818608E-02  0.1235072E+00
         21   -1    0    0  502  501  0.00000000000E+00  0.00000000000E+00  0.55424767024E+02  0.55424767024E+02  0.00000000000E+00 0.  1.
         21   -1    0    0  501  502 -0.00000000000E+00 -0.00000000000E+00 -0.70476364100E+02  0.70476364100E+02  0.00000000000E+00 0.  1.
         25    2    1    2    0    0  0.00000000000E+00  0.00000000000E+00 -0.15051597077E+02  0.12590113112E+03  0.12499817696E+03 0.  0.
        -11    1    3    3    0    0 -0.34147723057E+02  0.36622095483E+02 -0.45197732911E+02  0.67454280280E+02  0.51100000000E-03 0. -1.
         11    1    3    3    0    0  0.34147723057E+02 -0.36622095483E+02  0.30146135834E+02  0.58446850844E+02  0.51100000000E-03 0. -1.
<mgrwt>
<rscale>  0 0.12499818E+03</rscale>
<asrwt>0</asrwt>
<pdfrwt beam="1">  1       21 0.85268873E-02 0.12499818E+03</pdfrwt>
<pdfrwt beam="2">  1       21 0.10842517E-01 0.12499818E+03</pdfrwt>
<totfact> 0.73923122E+06</totfact>
</mgrwt>
</event>
<event>
 5    1  0.1829803E-009  0.1250004E+03  0.7818608E-02  0.1235069E+00
         21   -1    0    0  502  501  0.00000000000E+00  0.00000000000E+00  0.13719021714E+03  0.13719021714E+03  0.00000000000E+00 0.  1.
         21   -1    0    0  501  502 -0.00000000000E+00 -0.00000000000E+00 -0.28473427482E+02  0.28473427482E+02  0.00000000000E+00 0.  1.
         25    2    1    2    0    0  0.00000000000E+00  0.00000000000E+00  0.10871678966E+03  0.16566364462E+03  0.12500041118E+03 0.  0.
        -11    1    3    3    0    0 -0.52062721159E+02 -0.16908736726E+02  0.14382417385E+02  0.56597581593E+02  0.51100000000E-03 0.  1.
         11    1    3    3    0    0  0.52062721159E+02  0.16908736726E+02  0.94334372270E+02  0.10906606303E+03  0.51100000000E-03 0.  1.
<mgrwt>
<rscale>  0 0.12500041E+03</rscale>
<asrwt>0</asrwt>
<pdfrwt beam="1">  1       21 0.21106187E-01 0.12500041E+03</pdfrwt>
<pdfrwt beam="2">  1       21 0.43805274E-02 0.12500041E+03</pdfrwt>
<totfact> 0.68833278E+06</totfact>
</mgrwt>
</event>
<event>
 5    1  0.1829803E-009  0.1249994E+03  0.7818608E-02  0.1235070E+00
         21   -1    0    0  502  501  0.00000000000E+00  0.00000000000E+00  0.20198513011E+03  0.20198513011E+03  0.00000000000E+00 0.  1.
         21   -1    0    0  501  502 -0.00000000000E+00 -0.00000000000E+00 -0.19339117044E+02  0.19339117044E+02  0.00000000000E+00 0.  1.
         25    2    1    2    0    0  0.00000000000E+00  0.00000000000E+00  0.18264601307E+03  0.22132424715E+03  0.12499942516E+03 0.  0.
        -11    1    3    3    0    0 -0.18978697015E+02  0.51935335248E+02  0.39739678305E+02  0.68093406581E+02  0.51100000000E-03 0. -1.
         11    1    3    3    0    0  0.18978697015E+02 -0.51935335248E+02  0.14290633476E+03  0.15323084057E+03  0.51100000000E-03 0. -1.
<mgrwt>
<rscale>  0 0.12499943E+03</rscale>
<asrwt>0</asrwt>
<pdfrwt beam="1">  1       21 0.31074634E-01 0.12499943E+03</pdfrwt>
<pdfrwt beam="2">  1       21 0.29752489E-02 0.12499943E+03</pdfrwt>
<totfact> 0.62688347E+06</totfact>
</mgrwt>
</event>
<event>
 5    1  0.1829803E-009  0.1249993E+03  0.7818608E-02  0.1235070E+00
         21   -1    0    0  502  501  0.00000000000E+00  0.00000000000E+00  0.23504107613E+03  0.23504107613E+03  0.00000000000E+00 0.  1.
         21   -1    0    0  501  502 -0.00000000000E+00 -0.00000000000E+00 -0.16619238894E+02  0.16619238894E+02  0.00000000000E+00 0.  1.
         25    2    1    2    0    0  0.00000000000E+00  0.00000000000E+00  0.21842183724E+03  0.25166031503E+03  0.12499926070E+03 0.  0.
        -11    1    3    3    0    0  0.13722908088E+01 -0.58830196698E+02  0.66820261323E+02  0.89038320678E+02  0.51100000000E-03 0. -1.
         11    1    3    3    0    0 -0.13722908088E+01  0.58830196698E+02  0.15160157591E+03  0.16262199435E+03  0.51100000000E-03 0. -1.
<mgrwt>
<rscale>  0 0.12499926E+03</rscale>
<asrwt>0</asrwt>
<pdfrwt beam="1">  1       21 0.36160163E-01 0.12499926E+03</pdfrwt>
<pdfrwt beam="2">  1       21 0.25568062E-02 0.12499926E+03</pdfrwt>
<totfact> 0.59723338E+06</totfact>
</mgrwt>
</event>
<event>
 5    1  0.1829803E-009  0.1249988E+03  0.7818608E-02  0.1235071E+00
         21   -1    0    0  502  501  0.00000000000E+00  0.00000000000E+00  0.16667615644E+02  0.16667615644E+02  0.00000000000E+00 0. -1.
         21   -1    0    0  501  502 -0.00000000000E+00 -0.00000000000E+00 -0.23435727804E+03  0.23435727804E+03  0.00000000000E+00 0. -1.
         25    2    1    2    0    0  0.00000000000E+00  0.00000000000E+00 -0.21768966240E+03  0.25102489369E+03  0.12499883253E+03 0.  0.
        -11    1    3    3    0    0 -0.48743524833E+02 -0.12662232158E+02 -0.18317368556E+03  0.18997068831E+03  0.51100000000E-03 0. -1.
         11    1    3    3    0    0  0.48743524833E+02  0.12662232158E+02 -0.34515976840E+02  0.61054205374E+02  0.51100000000E-03 0. -1.
<mgrwt>
<rscale>  0 0.12499883E+03</rscale>
<asrwt>0</asrwt>
<pdfrwt beam="1">  1       21 0.25642488E-02 0.12499883E+03</pdfrwt>
<pdfrwt beam="2">  1       21 0.36054962E-01 0.12499883E+03</pdfrwt>
<totfact> 0.59783592E+06</totfact>
</mgrwt>
</event>
<event>
 5    1  0.1829803E-009  0.1249731E+03  0.7818608E-02  0.1235111E+00
         21   -1    0    0  502  501  0.00000000000E+00  0.00000000000E+00  0.23458609748E+03  0.23458609748E+03  0.00000000000E+00 0.  1.
         21   -1    0    0  501  502 -0.00000000000E+00 -0.00000000000E+00 -0.16644513530E+02  0.16644513530E+02  0.00000000000E+00 0.  1.
         25    2    1    2    0    0  0.00000000000E+00  0.00000000000E+00  0.21794158395E+03  0.25123061101E+03  0.12497314069E+03 0.  0.
        -11    1    3    3    0    0  0.48860921021E+02  0.35074599970E+02  0.74917253622E+02  0.96073992613E+02  0.51100000000E-03 0.  1.
         11    1    3    3    0    0 -0.48860921021E+02 -0.35074599970E+02  0.14302433032E+03  0.15515661839E+03  0.51100000000E-03 0.  1.
<mgrwt>
<rscale>  0 0.12497314E+03</rscale>
<asrwt>0</asrwt>
<pdfrwt beam="1">  1       21 0.36090166E-01 0.12497314E+03</pdfrwt>
<pdfrwt beam="2">  1       21 0.25606946E-02 0.12497314E+03</pdfrwt>
<totfact> 0.59803000E+06</totfact>
</mgrwt>
</event>
<event>
 5    1  0.1829803E-009  0.1249984E+03  0.7818608E-02  0.1235072E+00
         21   -1    0    0  502  501  0.00000000000E+00  0.00000000000E+00  0.48215983693E+02  0.48215983693E+02  0.00000000000E+00 0. -1.
         21   -1    0    0  501  502 -0.00000000000E+00 -0.00000000000E+00 -0.81013591843E+02  0.81013591843E+02  0.00000000000E+00 0. -1.
         25    2    1    2    0    0  0.00000000000E+00  0.00000000000E+00 -0.32797608150E+02  0.12922957554E+03  0.12499840036E+03 0.  0.
        -11    1    3    3    0    0 -0.13980552144E+02 -0.47526258313E+02  0.22995473161E+02  0.54616781795E+02  0.51100000000E-03 0. -1.
         11    1    3    3    0    0  0.13980552144E+02  0.47526258313E+02 -0.55793081311E+02  0.74612793741E+02  0.51100000000E-03 0. -1.
<mgrwt>
<rscale>  0 0.12499840E+03</rscale>
<asrwt>0</asrwt>
<pdfrwt beam="1">  1       21 0.74178437E-02 0.12499840E+03</pdfrwt>
<pdfrwt beam="2">  1       21 0.12463629E-01 0.12499840E+03</pdfrwt>
<totfact> 0.73471068E+06</totfact>
</mgrwt>
</event>
<event>
 5    1  0.1829803E-009  0.1249996E+03  0.7818608E-02  0.1235070E+00
         21   -1    0    0  502  501  0.00000000000E+00  0.00000000000E+00  0.16217380262E+03  0.16217380262E+03  0.00000000000E+00 0.  1.
         21   -1    0    0  501  502 -0.00000000000E+00 -0.00000000000E+00 -0.24086669656E+02  0.24086669656E+02  0.00000000000E+00 0.  1.
         25    2    1    2    0    0  0.00000000000E+00  0.00000000000E+00  0.13808713297E+03  0.18626047228E+03  0.12499962897E+03 0.  0.
        -11    1    3    3    0    0  0.20144111700E+01 -0.62346388345E+02  0.74833248224E+02  0.97422507831E+02  0.51100000000E-03 0.  1.
         11    1    3    3    0    0 -0.20144111700E+01  0.62346388345E+02  0.63253884744E+02  0.88837964449E+02  0.51100000000E-03 0.  1.
<mgrwt>
<rscale>  0 0.12499963E+03</rscale>
<asrwt>0</asrwt>
<pdfrwt beam="1">  1       21 0.24949815E-01 0.12499963E+03</pdfrwt>
<pdfrwt beam="2">  1       21 0.37056416E-02 0.12499963E+03</pdfrwt>
<totfact> 0.66441135E+06</totfact>
</mgrwt>
</event>
<event>
 5    1  0.1829803E-009  0.1249988E+03  0.7818608E-02  0.1235071E+00
         21   -1    0    0  502  501  0.00000000000E+00  0.00000000000E+00  0.18371023069E+02  0.18371023069E+02  0.00000000000E+00 0.  1.
         21   -1    0    0  501  502 -0.00000000000E+00 -0.00000000000E+00 -0.21262697839E+03  0.21262697839E+03  0.00000000000E+00 0.  1.
         25    2    1    2    0    0  0.00000000000E+00  0.00000000000E+00 -0.19425595532E+03  0.23099800146E+03  0.12499880200E+03 0.  0.
        -11    1    3    3    0    0 -0.53623400915E+02 -0.21443362313E+02 -0.52973178926E+02  0.78367369477E+02  0.51100000000E-03 0.  1.
         11    1    3    3    0    0  0.53623400915E+02  0.21443362313E+02 -0.14128277640E+03  0.15263063199E+03  0.51100000000E-03 0.  1.
<mgrwt>
<rscale>  0 0.12499880E+03</rscale>
<asrwt>0</asrwt>
<pdfrwt beam="1">  1       21 0.28263114E-02 0.12499880E+03</pdfrwt>
<pdfrwt beam="2">  1       21 0.32711841E-01 0.12499880E+03</pdfrwt>
<totfact> 0.61716668E+06</totfact>
</mgrwt>
</event>
<event>
 5    1  0.1829803E-009  0.1249951E+03  0.7818608E-02  0.1235077E+00
         21   -1    0    0  502  501  0.00000000000E+00  0.00000000000E+00  0.12920809844E+02  0.12920809844E+02  0.00000000000E+00 0.  1.
         21   -1    0    0  501  502 -0.00000000000E+00 -0.00000000000E+00 -0.30229867830E+03  0.30229867830E+03  0.00000000000E+00 0.  1.
         25    2    1    2    0    0  0.00000000000E+00  0.00000000000E+00 -0.28937786846E+03  0.31521948815E+03  0.12499509972E+03 0.  0.
        -11    1    3    3    0    0  0.50863943431E+02 -0.36260164546E+02 -0.14973482706E+03  0.16224197580E+03  0.51100000000E-03 0. -1.
         11    1    3    3    0    0 -0.50863943431E+02  0.36260164546E+02 -0.13964304140E+03  0.15297751235E+03  0.51100000000E-03 0. -1.
<mgrwt>
<rscale>  0 0.12499510E+03</rscale>
<asrwt>0</asrwt>
<pdfrwt beam="1">  1       21 0.19878170E-02 0.12499510E+03</pdfrwt>
<pdfrwt beam="2">  1       21 0.46507487E-01 0.12499510E+03</pdfrwt>
<totfact> 0.54221030E+06</totfact>
</mgrwt>
</event>
<event>
 5    1  0.1829803E-009  0.1249985E+03  0.7818608E-02  0.1235072E+00
         21   -1    0    0  502  501  0.00000000000E+00  0.00000000000E+00  0.14668698033E+03  0.14668698033E+03  0.00000000000E+00 0. -1.
         21   -1    0    0  501  502 -0.00000000000E+00 -0.00000000000E+00 -0.26629211807E+02  0.26629211807E+02  0.00000000000E+00 0. -1.
         25    2    1    2    0    0  0.00000000000E+00  0.00000000000E+00  0.12005776852E+03  0.17331619214E+03  0.12499853869E+03 0.  0.
        -11    1    3    3    0    0 -0.88117221475E+01 -0.35954820199E+02 -0.97925143382E+01  0.38292151677E+02  0.51100000000E-03 0. -1.
         11    1    3    3    0    0  0.88117221475E+01  0.35954820199E+02  0.12985028286E+03  0.13502404046E+03  0.51100000000E-03 0. -1.
<mgrwt>
<rscale>  0 0.12499854E+03</rscale>
<asrwt>0</asrwt>
<pdfrwt beam="1">  1       21 0.22567227E-01 0.12499854E+03</pdfrwt>
<pdfrwt beam="2">  1       21 0.40968019E-02 0.12499854E+03</pdfrwt>
<totfact> 0.67929197E+06</totfact>
</mgrwt>
</event>
<event>
 5    1  0.1829803E-009  0.1249973E+03  0.7818608E-02  0.1235074E+00
         21   -1    0    0  502  501  0.00000000000E+00  0.00000000000E+00  0.67677186294E+02  0.67677186294E+02  0.00000000000E+00 0.  1.
         21   -1    0    0  501  502 -0.00000000000E+00 -0.00000000000E+00 -0.57716330220E+02  0.57716330220E+02  0.00000000000E+00 0.  1.
         25    2    1    2    0    0  0.00000000000E+00  0.00000000000E+00  0.99608560742E+01  0.12539351651E+03  0.12499726129E+03 0.  0.
        -11    1    3    3    0    0 -0.11425748759E+02  0.15798180285E+02 -0.54587510741E+02  0.57964873537E+02  0.51100000000E-03 0.  1.
         11    1    3    3    0    0  0.11425748759E+02 -0.15798180285E+02  0.64548366815E+02  0.67428642977E+02  0.51100000000E-03 0.  1.
<mgrwt>
<rscale>  0 0.12499726E+03</rscale>
<asrwt>0</asrwt>
<pdfrwt beam="1">  1       21 0.10411875E-01 0.12499726E+03</pdfrwt>
<pdfrwt beam="2">  1       21 0.88794355E-02 0.12499726E+03</pdfrwt>
<totfact> 0.73995487E+06</totfact>
</mgrwt>
</event>
<event>
 5    1  0.1829803E-009  0.1249990E+03  0.7818608E-02  0.1235071E+00
         21   -1    0    0  502  501  0.00000000000E+00  0.00000000000E+00  0.40199587320E+03  0.40199587320E+03  0.00000000000E+00 0. -1.
         21   -1    0    0  501  502 -0.00000000000E+00 -0.00000000000E+00 -0.97169915152E+01  0.97169915152E+01  0.00000000000E+00 0. -1.
         25    2    1    2    0    0  0.00000000000E+00  0.00000000000E+00  0.39227888169E+03  0.41171286472E+03  0.12499904782E+03 0.  0.
        -11    1    3    3    0    0  0.61093290475E+02  0.68840124854E+01  0.23317165548E+03  0.24114062430E+03  0.51100000000E-03 0.  1.
         11    1    3    3    0    0 -0.61093290475E+02 -0.68840124854E+01  0.15910722621E+03  0.17057224042E+03  0.51100000000E-03 0.  1.
<mgrwt>
<rscale>  0 0.12499905E+03</rscale>
<asrwt>0</asrwt>
<pdfrwt beam="1">  1       21 0.61845506E-01 0.12499905E+03</pdfrwt>
<pdfrwt beam="2">  1       21 0.14949221E-02 0.12499905E+03</pdfrwt>
<totfact> 0.47275161E+06</totfact>
</mgrwt>
</event>
<event>
 5    1  0.1829803E-009  0.1249998E+03  0.7818608E-02  0.1235070E+00
         21   -1    0    0  502  501  0.00000000000E+00  0.00000000000E+00  0.22243015552E+02  0.22243015552E+02  0.00000000000E+00 0. -1.
         21   -1    0    0  501  502 -0.00000000000E+00 -0.00000000000E+00 -0.17561647930E+03  0.17561647930E+03  0.00000000000E+00 0. -1.
         25    2    1    2    0    0  0.00000000000E+00  0.00000000000E+00 -0.15337346375E+03  0.19785949485E+03  0.12499984128E+03 0.  0.
        -11    1    3    3    0    0 -0.63558425427E+01 -0.59638176916E+02 -0.48856369964E+02  0.77356665948E+02  0.51100000000E-03 0.  1.
         11    1    3    3    0    0  0.63558425427E+01  0.59638176916E+02 -0.10451709378E+03  0.12050282890E+03  0.51100000000E-03 0.  1.
<mgrwt>
<rscale>  0 0.12499984E+03</rscale>
<asrwt>0</asrwt>
<pdfrwt beam="1">  1       21 0.34220025E-02 0.12499984E+03</pdfrwt>
<pdfrwt beam="2">  1       21 0.27017919E-01 0.12499984E+03</pdfrwt>
<totfact> 0.65159673E+06</totfact>
</mgrwt>
</event>
<event>
 5    1  0.1829803E-009  0.1250007E+03  0.7818608E-02  0.1235068E+00
         21   -1    0    0  502  501  0.00000000000E+00  0.00000000000E+00  0.38237612699E+03  0.38237612699E+03  0.00000000000E+00 0. -1.
         21   -1    0    0  501  502 -0.00000000000E+00 -0.00000000000E+00 -0.10215837599E+02  0.10215837599E+02  0.00000000000E+00 0. -1.
         25    2    1    2    0    0  0.00000000000E+00  0.00000000000E+00  0.37216028939E+03  0.39259196459E+03  0.12500067864E+03 0.  0.
        -11    1    3    3    0    0 -0.39475990017E+02 -0.34341391224E+02  0.29344530223E+03  0.29807353177E+03  0.51100000000E-03 0. -1.
         11    1    3    3    0    0  0.39475990017E+02  0.34341391224E+02  0.78714987155E+02  0.94518432817E+02  0.51100000000E-03 0. -1.
<mgrwt>
<rscale>  0 0.12500068E+03</rscale>
<asrwt>0</asrwt>
<pdfrwt beam="1">  1       21 0.58827085E-01 0.12500068E+03</pdfrwt>
<pdfrwt beam="2">  1       21 0.15716676E-02 0.12500068E+03</pdfrwt>
<totfact> 0.48535811E+06</totfact>
</mgrwt>
</event>
<event>
 5    1  0.1829803E-009  0.1250036E+03  0.7818608E-02  0.1235064E+00
         21   -1    0    0  502  501  0.00000000000E+00  0.00000000000E+00  0.24794341842E+03  0.24794341842E+03  0.00000000000E+00 0. -1.
         21   -1    0    0  501  502 -0.00000000000E+00 -0.00000000000E+00 -0.15755512711E+02  0.15755512711E+02  0.00000000000E+00 0. -1.
         25    2    1    2    0    0  0.00000000000E+00  0.00000000000E+00  0.23218790571E+03  0.26369893114E+03  0.12500361084E+03 0.  0.
        -11    1    3    3    0    0 -0.61942034568E+02 -0.63270707069E+01  0.10461139826E+03  0.12173903284E+03  0.51100000000E-03 0.  1.
         11    1    3    3    0    0  0.61942034568E+02  0.63270707069E+01  0.12757650746E+03  0.14195989830E+03  0.51100000000E-03 0.  1.
<mgrwt>
<rscale>  0 0.12500361E+03</rscale>
<asrwt>0</asrwt>
<pdfrwt beam="1">  1       21 0.38145139E-01 0.12500361E+03</pdfrwt>
<pdfrwt beam="2">  1       21 0.24239252E-02 0.12500361E+03</pdfrwt>
<totfact> 0.58606566E+06</totfact>
</mgrwt>
</event>
<event>
 5    1  0.1829803E-009  0.1250217E+03  0.7818608E-02  0.1235035E+00
         21   -1    0    0  502  501  0.00000000000E+00  0.00000000000E+00  0.43746480223E+02  0.43746480223E+02  0.00000000000E+00 0.  1.
         21   -1    0    0  501  502 -0.00000000000E+00 -0.00000000000E+00 -0.89323952705E+02  0.89323952705E+02  0.00000000000E+00 0.  1.
         25    2    1    2    0    0  0.00000000000E+00  0.00000000000E+00 -0.45577472482E+02  0.13307043293E+03  0.12502173460E+03 0.  0.
        -11    1    3    3    0    0  0.56038619451E+02  0.16448455950E+02  0.93353273498E+00  0.58410187953E+02  0.51100000000E-03 0.  1.
         11    1    3    3    0    0 -0.56038619451E+02 -0.16448455950E+02 -0.46511005217E+02  0.74660244974E+02  0.51100000000E-03 0.  1.
<mgrwt>
<rscale>  0 0.12502173E+03</rscale>
<asrwt>0</asrwt>
<pdfrwt beam="1">  1       21 0.67302278E-02 0.12502173E+03</pdfrwt>
<pdfrwt beam="2">  1       21 0.13742146E-01 0.12502173E+03</pdfrwt>
<totfact> 0.72912561E+06</totfact>
</mgrwt>
</event>
<event>
 5    1  0.1829803E-009  0.1249998E+03  0.7818608E-02  0.1235070E+00
         21   -1    0    0  502  501  0.00000000000E+00  0.00000000000E+00  0.78096366858E+02  0.78096366858E+02  0.00000000000E+00 0. -1.
         21   -1    0    0  501  502 -0.00000000000E+00 -0.00000000000E+00 -0.50018132023E+02  0.50018132023E+02  0.00000000000E+00 0. -1.
         25    2    1    2    0    0  0.00000000000E+00  0.00000000000E+00  0.28078234835E+02  0.12811449888E+03  0.12499975021E+03 0.  0.
        -11    1    3    3    0    0  0.36548766365E+02  0.44030941093E+02 -0.11720771633E+02  0.58411579197E+02  0.51100000000E-03 0. -1.
         11    1    3    3    0    0 -0.36548766365E+02 -0.44030941093E+02  0.39799006469E+02  0.69702919684E+02  0.51100000000E-03 0. -1.
<mgrwt>
<rscale>  0 0.12499975E+03</rscale>
<asrwt>0</asrwt>
<pdfrwt beam="1">  1       21 0.12014826E-01 0.12499975E+03</pdfrwt>
<pdfrwt beam="2">  1       21 0.76950973E-02 0.12499975E+03</pdfrwt>
<totfact> 0.73618567E+06</totfact>
</mgrwt>
</event>
<event>
 5    1  0.1829803E-009  0.1249999E+03  0.7818608E-02  0.1235069E+00
         21   -1    0    0  502  501  0.00000000000E+00  0.00000000000E+00  0.40223510948E+03  0.40223510948E+03  0.00000000000E+00 0.  1.
         21   -1    0    0  501  502 -0.00000000000E+00 -0.00000000000E+00 -0.97113503245E+01  0.97113503245E+01  0.00000000000E+00 0.  1.
         25    2    1    2    0    0  0.00000000000E+00  0.00000000000E+00  0.39252375916E+03  0.41194645981E+03  0.12499993698E+03 0.  0.
        -11    1    3    3    0    0  0.60508772419E+02  0.12912555728E+02  0.16711879349E+03  0.17820419965E+03  0.51100000000E-03 0. -1.
         11    1    3    3    0    0 -0.60508772419E+02 -0.12912555728E+02  0.22540496567E+03  0.23374226016E+03  0.51100000000E-03 0. -1.
<mgrwt>
<rscale>  0 0.12499994E+03</rscale>
<asrwt>0</asrwt>
<pdfrwt beam="1">  1       21 0.61882312E-01 0.12499994E+03</pdfrwt>
<pdfrwt beam="2">  1       21 0.14940542E-02 0.12499994E+03</pdfrwt>
<totfact> 0.47259000E+06</totfact>
</mgrwt>
</event>
<event>
 5    1  0.1829803E-009  0.1249999E+03  0.7818608E-02  0.1235069E+00
         21   -1    0    0  502  501  0.00000000000E+00  0.00000000000E+00  0.78855014824E+02  0.78855014824E+02  0.00000000000E+00 0. -1.
         21   -1    0    0  501  502 -0.00000000000E+00 -0.00000000000E+00 -0.49537036240E+02  0.49537036240E+02  0.00000000000E+00 0. -1.
         25    2    1    2    0    0  0.00000000000E+00  0.00000000000E+00  0.29317978584E+02  0.12839205106E+03  0.12499989963E+03 0.  0.
        -11    1    3    3    0    0 -0.13267753032E+02  0.42076186051E+02  0.60130031218E+02  0.74579215319E+02  0.51100000000E-03 0. -1.
         11    1    3    3    0    0  0.13267753032E+02 -0.42076186051E+02 -0.30812052634E+02  0.53812835745E+02  0.51100000000E-03 0. -1.
<mgrwt>
<rscale>  0 0.12499990E+03</rscale>
<asrwt>0</asrwt>
<pdfrwt beam="1">  1       21 0.12131541E-01 0.12499990E+03</pdfrwt>
<pdfrwt beam="2">  1       21 0.76210825E-02 0.12499990E+03</pdfrwt>
<totfact> 0.73580853E+06</totfact>
</mgrwt>
</event>
<event>
 5    1  0.1829803E-009  0.1249996E+03  0.7818608E-02  0.1235070E+00
         21   -1    0    0  502  501  0.00000000000E+00  0.00000000000E+00  0.22347498496E+03  0.22347498496E+03  0.00000000000E+00 0.  1.
         21   -1    0    0  501  502 -0.00000000000E+00 -0.00000000000E+00 -0.17479465874E+02  0.17479465874E+02  0.00000000000E+00 0.  1.
         25    2    1    2    0    0  0.00000000000E+00  0.00000000000E+00  0.20599551909E+03  0.24095445084E+03  0.12499957397E+03 0.  0.
        -11    1    3    3    0    0  0.39884434652E+01 -0.47084918231E+02  0.18185048726E+03  0.18788958705E+03  0.51100000000E-03 0. -1.
         11    1    3    3    0    0 -0.39884434652E+01  0.47084918231E+02  0.24145031828E+02  0.53064863783E+02  0.51100000000E-03 0. -1.
<mgrwt>
<rscale>  0 0.12499957E+03</rscale>
<asrwt>0</asrwt>
<pdfrwt beam="1">  1       21 0.34380765E-01 0.12499957E+03</pdfrwt>
<pdfrwt beam="2">  1       21 0.26891488E-02 0.12499957E+03</pdfrwt>
<totfact> 0.60741078E+06</totfact>
</mgrwt>
</event>
<event>
 5    1  0.1829803E-009  0.1249960E+03  0.7818608E-02  0.1235076E+00
         21   -1    0    0  502  501  0.00000000000E+00  0.00000000000E+00  0.75728131969E+02  0.75728131969E+02  0.00000000000E+00 0.  1.
         21   -1    0    0  501  502 -0.00000000000E+00 -0.00000000000E+00 -0.51579261230E+02  0.51579261230E+02  0.00000000000E+00 0.  1.
         25    2    1    2    0    0  0.00000000000E+00  0.00000000000E+00  0.24148870740E+02  0.12730739320E+03  0.12499601756E+03 0.  0.
        -11    1    3    3    0    0 -0.48549050111E+02  0.36177774871E+02  0.27858079480E+02  0.66647687536E+02  0.51100000000E-03 0. -1.
         11    1    3    3    0    0  0.48549050111E+02 -0.36177774871E+02 -0.37092087407E+01  0.60659705663E+02  0.51100000000E-03 0. -1.
<mgrwt>
<rscale>  0 0.12499602E+03</rscale>
<asrwt>0</asrwt>
<pdfrwt beam="1">  1       21 0.11650482E-01 0.12499602E+03</pdfrwt>
<pdfrwt beam="2">  1       21 0.79352709E-02 0.12499602E+03</pdfrwt>
<totfact> 0.73734843E+06</totfact>
</mgrwt>
</event>
<event>
 5    1  0.1829803E-009  0.1249785E+03  0.7818608E-02  0.1235103E+00
         21   -1    0    0  502  501  0.00000000000E+00  0.00000000000E+00  0.17587564268E+02  0.17587564268E+02  0.00000000000E+00 0.  1.
         21   -1    0    0  501  502 -0.00000000000E+00 -0.00000000000E+00 -0.22202663715E+03  0.22202663715E+03  0.00000000000E+00 0.  1.
         25    2    1    2    0    0  0.00000000000E+00  0.00000000000E+00 -0.20443907288E+03  0.23961420142E+03  0.12497852216E+03 0.  0.
        -11    1    3    3    0    0 -0.54596341268E+02 -0.24553099329E+01 -0.16031290920E+03  0.16937242362E+03  0.51100000000E-03 0. -1.
         11    1    3    3    0    0  0.54596341268E+02  0.24553099329E+01 -0.44126163686E+02  0.70241777801E+02  0.51100000000E-03 0. -1.
<mgrwt>
<rscale>  0 0.12497852E+03</rscale>
<asrwt>0</asrwt>
<pdfrwt beam="1">  1       21 0.27057792E-02 0.12497852E+03</pdfrwt>
<pdfrwt beam="2">  1       21 0.34157943E-01 0.12497852E+03</pdfrwt>
<totfact> 0.60903007E+06</totfact>
</mgrwt>
</event>
<event>
 5    1  0.1829803E-009  0.1250024E+03  0.7818608E-02  0.1235065E+00
         21   -1    0    0  502  501  0.00000000000E+00  0.00000000000E+00  0.80228592128E+01  0.80228592128E+01  0.00000000000E+00 0.  1.
         21   -1    0    0  501  502 -0.00000000000E+00 -0.00000000000E+00 -0.48690896859E+03  0.48690896859E+03  0.00000000000E+00 0.  1.
         25    2    1    2    0    0  0.00000000000E+00  0.00000000000E+00 -0.47888610938E+03  0.49493182780E+03  0.12500243365E+03 0.  0.
        -11    1    3    3    0    0  0.11144663226E+02 -0.59480541324E+02 -0.30132393169E+03  0.30734060930E+03  0.51100000000E-03 0. -1.
         11    1    3    3    0    0 -0.11144663226E+02  0.59480541324E+02 -0.17756217768E+03  0.18759121850E+03  0.51100000000E-03 0. -1.
<mgrwt>
<rscale>  0 0.12500243E+03</rscale>
<asrwt>0</asrwt>
<pdfrwt beam="1">  1       21 0.12342858E-02 0.12500243E+03</pdfrwt>
<pdfrwt beam="2">  1       21 0.74909086E-01 0.12500243E+03</pdfrwt>
<totfact> 0.42317700E+06</totfact>
</mgrwt>
</event>
<event>
 5    1  0.1829803E-009  0.1249996E+03  0.7818608E-02  0.1235070E+00
         21   -1    0    0  502  501  0.00000000000E+00  0.00000000000E+00  0.93138884202E+01  0.93138884202E+01  0.00000000000E+00 0.  1.
         21   -1    0    0  501  502 -0.00000000000E+00 -0.00000000000E+00 -0.41939770064E+03  0.41939770064E+03  0.00000000000E+00 0.  1.
         25    2    1    2    0    0  0.00000000000E+00  0.00000000000E+00 -0.41008381222E+03  0.42871158906E+03  0.12499957420E+03 0.  0.
        -11    1    3    3    0    0 -0.18404691882E+01  0.52974493220E+02 -0.31861324789E+03  0.32299239309E+03  0.51100000000E-03 0. -1.
         11    1    3    3    0    0  0.18404691882E+01 -0.52974493220E+02 -0.91470564330E+02  0.10571919598E+03  0.51100000000E-03 0. -1.
<mgrwt>
<rscale>  0 0.12499957E+03</rscale>
<asrwt>0</asrwt>
<pdfrwt beam="1">  1       21 0.14329059E-02 0.12499957E+03</pdfrwt>
<pdfrwt beam="2">  1       21 0.64522722E-01 0.12499957E+03</pdfrwt>
<totfact> 0.46193970E+06</totfact>
</mgrwt>
</event>
<event>
 5    1  0.1829803E-009  0.1249985E+03  0.7818608E-02  0.1235072E+00
         21   -1    0    0  502  501  0.00000000000E+00  0.00000000000E+00  0.18843228424E+02  0.18843228424E+02  0.00000000000E+00 0. -1.
         21   -1    0    0  501  502 -0.00000000000E+00 -0.00000000000E+00 -0.20729771568E+03  0.20729771568E+03  0.00000000000E+00 0. -1.
         25    2    1    2    0    0  0.00000000000E+00  0.00000000000E+00 -0.18845448726E+03  0.22614094411E+03  0.12499853133E+03 0.  0.
        -11    1    3    3    0    0 -0.57855011882E+02  0.22338218618E+02 -0.80218332870E+02  0.10139615052E+03  0.51100000000E-03 0. -1.
         11    1    3    3    0    0  0.57855011882E+02 -0.22338218618E+02 -0.10823615439E+03  0.12474479359E+03  0.51100000000E-03 0. -1.
<mgrwt>
<rscale>  0 0.12499853E+03</rscale>
<asrwt>0</asrwt>
<pdfrwt beam="1">  1       21 0.28989582E-02 0.12499853E+03</pdfrwt>
<pdfrwt beam="2">  1       21 0.31891957E-01 0.12499853E+03</pdfrwt>
<totfact> 0.62202438E+06</totfact>
</mgrwt>
</event>
<event>
 5    1  0.1829803E-009  0.1249894E+03  0.7818608E-02  0.1235086E+00
         21   -1    0    0  502  501  0.00000000000E+00  0.00000000000E+00  0.61869587567E+03  0.61869587567E+03  0.00000000000E+00 0. -1.
         21   -1    0    0  501  502 -0.00000000000E+00 -0.00000000000E+00 -0.63126080814E+01  0.63126080814E+01  0.00000000000E+00 0. -1.
         25    2    1    2    0    0  0.00000000000E+00  0.00000000000E+00  0.61238326758E+03  0.62500848375E+03  0.12498935290E+03 0.  0.
        -11    1    3    3    0    0  0.19753270545E+02  0.59147661565E+02  0.28560622267E+03  0.29233465753E+03  0.51100000000E-03 0. -1.
         11    1    3    3    0    0 -0.19753270545E+02 -0.59147661565E+02  0.32677704492E+03  0.33267382622E+03  0.51100000000E-03 0. -1.
<mgrwt>
<rscale>  0 0.12498935E+03</rscale>
<asrwt>0</asrwt>
<pdfrwt beam="1">  1       21 0.95183933E-01 0.12498935E+03</pdfrwt>
<pdfrwt beam="2">  1       21 0.97117096E-03 0.12498935E+03</pdfrwt>
<totfact> 0.35995058E+06</totfact>
</mgrwt>
</event>
<event>
 5    1  0.1829803E-009  0.1250009E+03  0.7818608E-02  0.1235068E+00
         21   -1    0    0  502  501  0.00000000000E+00  0.00000000000E+00  0.58847059685E+03  0.58847059685E+03  0.00000000000E+00 0. -1.
         21   -1    0    0  501  502 -0.00000000000E+00 -0.00000000000E+00 -0.66380609044E+01  0.66380609044E+01  0.00000000000E+00 0. -1.
         25    2    1    2    0    0  0.00000000000E+00  0.00000000000E+00  0.58183253594E+03  0.59510865775E+03  0.12500085859E+03 0.  0.
        -11    1    3    3    0    0 -0.40665963863E+01 -0.62207664726E+02  0.26963958647E+03  0.27675230324E+03  0.51100000000E-03 0.  1.
         11    1    3    3    0    0  0.40665963863E+01  0.62207664726E+02  0.31219294948E+03  0.31835635452E+03  0.51100000000E-03 0.  1.
<mgrwt>
<rscale>  0 0.12500086E+03</rscale>
<asrwt>0</asrwt>
<pdfrwt beam="1">  1       21 0.90533896E-01 0.12500086E+03</pdfrwt>
<pdfrwt beam="2">  1       21 0.10212406E-02 0.12500086E+03</pdfrwt>
<totfact> 0.37313990E+06</totfact>
</mgrwt>
</event>
<event>
 5    1  0.1829803E-009  0.1250000E+03  0.7818608E-02  0.1235069E+00
         21   -1    0    0  502  501  0.00000000000E+00  0.00000000000E+00  0.53790906783E+02  0.53790906783E+02  0.00000000000E+00 0.  1.
         21   -1    0    0  501  502 -0.00000000000E+00 -0.00000000000E+00 -0.72619154917E+02  0.72619154917E+02  0.00000000000E+00 0.  1.
         25    2    1    2    0    0  0.00000000000E+00  0.00000000000E+00 -0.18828248134E+02  0.12641006170E+03  0.12500000309E+03 0.  0.
        -11    1    3    3    0    0  0.21509823053E+02 -0.42499571275E+02  0.31506689329E+02  0.57110047444E+02  0.51100000000E-03 0.  1.
         11    1    3    3    0    0 -0.21509823053E+02  0.42499571275E+02 -0.50334937463E+02  0.69300014257E+02  0.51100000000E-03 0.  1.
<mgrwt>
<rscale>  0 0.12500000E+03</rscale>
<asrwt>0</asrwt>
<pdfrwt beam="1">  1       21 0.82755242E-02 0.12500000E+03</pdfrwt>
<pdfrwt beam="2">  1       21 0.11172178E-01 0.12500000E+03</pdfrwt>
<totfact> 0.73849682E+06</totfact>
</mgrwt>
</event>
<event>
 5    1  0.1829803E-009  0.1249956E+03  0.7818608E-02  0.1235076E+00
         21   -1    0    0  502  501  0.00000000000E+00  0.00000000000E+00  0.37197416382E+02  0.37197416382E+02  0.00000000000E+00 0. -1.
         21   -1    0    0  501  502 -0.00000000000E+00 -0.00000000000E+00 -0.10500661745E+03  0.10500661745E+03  0.00000000000E+00 0. -1.
         25    2    1    2    0    0  0.00000000000E+00  0.00000000000E+00 -0.67809201068E+02  0.14220403383E+03  0.12499559788E+03 0.  0.
        -11    1    3    3    0    0  0.74168676825E+01  0.57254700447E+02 -0.61134312514E+02  0.84086353330E+02  0.51100000000E-03 0. -1.
         11    1    3    3    0    0 -0.74168676825E+01 -0.57254700447E+02 -0.66748885534E+01  0.58117680502E+02  0.51100000000E-03 0. -1.
<mgrwt>
<rscale>  0 0.12499560E+03</rscale>
<asrwt>0</asrwt>
<pdfrwt beam="1">  1       21 0.57226795E-02 0.12499560E+03</pdfrwt>
<pdfrwt beam="2">  1       21 0.16154864E-01 0.12499560E+03</pdfrwt>
<totfact> 0.71760913E+06</totfact>
</mgrwt>
</event>
<event>
 5    1  0.1829803E-009  0.1250033E+03  0.7818608E-02  0.1235064E+00
         21   -1    0    0  502  501  0.00000000000E+00  0.00000000000E+00  0.54101676783E+02  0.54101676783E+02  0.00000000000E+00 0.  1.
         21   -1    0    0  501  502 -0.00000000000E+00 -0.00000000000E+00 -0.72205809649E+02  0.72205809649E+02  0.00000000000E+00 0.  1.
         25    2    1    2    0    0  0.00000000000E+00  0.00000000000E+00 -0.18104132866E+02  0.12630748643E+03  0.12500328596E+03 0.  0.
        -11    1    3    3    0    0  0.44534419369E+02  0.38771306835E+02  0.11653845999E+02  0.60185885962E+02  0.51100000000E-03 0.  1.
         11    1    3    3    0    0 -0.44534419369E+02 -0.38771306835E+02 -0.29757978865E+02  0.66121600469E+02  0.51100000000E-03 0.  1.
<mgrwt>
<rscale>  0 0.12500329E+03</rscale>
<asrwt>0</asrwt>
<pdfrwt beam="1">  1       21 0.83233349E-02 0.12500329E+03</pdfrwt>
<pdfrwt beam="2">  1       21 0.11108586E-01 0.12500329E+03</pdfrwt>
<totfact> 0.73857558E+06</totfact>
</mgrwt>
</event>
<event>
 5    1  0.1829803E-009  0.1249982E+03  0.7818608E-02  0.1235072E+00
         21   -1    0    0  502  501  0.00000000000E+00  0.00000000000E+00  0.33422752012E+02  0.33422752012E+02  0.00000000000E+00 0.  1.
         21   -1    0    0  501  502 -0.00000000000E+00 -0.00000000000E+00 -0.11687058288E+03  0.11687058288E+03  0.00000000000E+00 0.  1.
         25    2    1    2    0    0  0.00000000000E+00  0.00000000000E+00 -0.83447830868E+02  0.15029333489E+03  0.12499818413E+03 0.  0.
        -11    1    3    3    0    0  0.56366437456E+02 -0.26659576506E+02 -0.46857351089E+02  0.77996920723E+02  0.51100000000E-03 0.  1.
         11    1    3    3    0    0 -0.56366437456E+02  0.26659576506E+02 -0.36590479779E+02  0.72296414169E+02  0.51100000000E-03 0.  1.
<mgrwt>
<rscale>  0 0.12499818E+03</rscale>
<asrwt>0</asrwt>
<pdfrwt beam="1">  1       21 0.51419619E-02 0.12499818E+03</pdfrwt>
<pdfrwt beam="2">  1       21 0.17980089E-01 0.12499818E+03</pdfrwt>
<totfact> 0.70725641E+06</totfact>
</mgrwt>
</event>
<event>
 5    1  0.1829803E-009  0.1249948E+03  0.7818608E-02  0.1235077E+00
         21   -1    0    0  502  501  0.00000000000E+00  0.00000000000E+00  0.51416081652E+02  0.51416081652E+02  0.00000000000E+00 0.  1.
         21   -1    0    0  501  502 -0.00000000000E+00 -0.00000000000E+00 -0.75967016067E+02  0.75967016067E+02  0.00000000000E+00 0.  1.
         25    2    1    2    0    0  0.00000000000E+00  0.00000000000E+00 -0.24550934415E+02  0.12738309772E+03  0.12499482071E+03 0.  0.
        -11    1    3    3    0    0  0.48682851184E+02  0.49395766623E+01  0.27345479888E+02  0.56055282424E+02  0.51100000000E-03 0.  1.
         11    1    3    3    0    0 -0.48682851184E+02 -0.49395766623E+01 -0.51896414303E+02  0.71327815295E+02  0.51100000000E-03 0.  1.
<mgrwt>
<rscale>  0 0.12499482E+03</rscale>
<asrwt>0</asrwt>
<pdfrwt beam="1">  1       21 0.79101664E-02 0.12499482E+03</pdfrwt>
<pdfrwt beam="2">  1       21 0.11687233E-01 0.12499482E+03</pdfrwt>
<totfact> 0.73726820E+06</totfact>
</mgrwt>
</event>
<event>
 5    1  0.1829803E-009  0.1249840E+03  0.7818608E-02  0.1235094E+00
         21   -1    0    0  502  501  0.00000000000E+00  0.00000000000E+00  0.31913099142E+03  0.31913099142E+03  0.00000000000E+00 0. -1.
         21   -1    0    0  501  502 -0.00000000000E+00 -0.00000000000E+00 -0.12237129469E+02  0.12237129469E+02  0.00000000000E+00 0. -1.
         25    2    1    2    0    0  0.00000000000E+00  0.00000000000E+00  0.30689386195E+03  0.33136812089E+03  0.12498395513E+03 0.  0.
        -11    1    3    3    0    0 -0.15410509802E+02 -0.59419656374E+02  0.18448711694E+03  0.19443167359E+03  0.51100000000E-03 0.  1.
         11    1    3    3    0    0  0.15410509802E+02  0.59419656374E+02  0.12240674501E+03  0.13693644730E+03  0.51100000000E-03 0.  1.
<mgrwt>
<rscale>  0 0.12498396E+03</rscale>
<asrwt>0</asrwt>
<pdfrwt beam="1">  1       21 0.49097069E-01 0.12498396E+03</pdfrwt>
<pdfrwt beam="2">  1       21 0.18826355E-02 0.12498396E+03</pdfrwt>
<totfact> 0.52965904E+06</totfact>
</mgrwt>
</event>
<event>
 5    1  0.1829803E-009  0.1249997E+03  0.7818608E-02  0.1235070E+00
         21   -1    0    0  502  501  0.00000000000E+00  0.00000000000E+00  0.26143505430E+02  0.26143505430E+02  0.00000000000E+00 0.  1.
         21   -1    0    0  501  502 -0.00000000000E+00 -0.00000000000E+00 -0.14941506898E+03  0.14941506898E+03  0.00000000000E+00 0.  1.
         25    2    1    2    0    0  0.00000000000E+00  0.00000000000E+00 -0.12327156355E+03  0.17555857441E+03  0.12499973867E+03 0.  0.
        -11    1    3    3    0    0 -0.48339789233E+02 -0.31615743555E+02 -0.28106154171E+02  0.64235865108E+02  0.51100000000E-03 0.  1.
         11    1    3    3    0    0  0.48339789233E+02  0.31615743555E+02 -0.95165409381E+02  0.11132270930E+03  0.51100000000E-03 0.  1.
<mgrwt>
<rscale>  0 0.12499974E+03</rscale>
<asrwt>0</asrwt>
<pdfrwt beam="1">  1       21 0.40220777E-02 0.12499974E+03</pdfrwt>
<pdfrwt beam="2">  1       21 0.22986934E-01 0.12499974E+03</pdfrwt>
<totfact> 0.67665180E+06</totfact>
</mgrwt>
</event>
<event>
 5    1  0.1829803E-009  0.1249988E+03  0.7818608E-02  0.1235071E+00
         21   -1    0    0  502  501  0.00000000000E+00  0.00000000000E+00  0.94768222797E+02  0.94768222797E+02  0.00000000000E+00 0.  1.
         21   -1    0    0  501  502 -0.00000000000E+00 -0.00000000000E+00 -0.41218224997E+02  0.41218224997E+02  0.00000000000E+00 0.  1.
         25    2    1    2    0    0  0.00000000000E+00  0.00000000000E+00  0.53549997800E+02  0.13598644779E+03  0.12499884687E+03 0.  0.
        -11    1    3    3    0    0  0.41167015614E+02  0.17155309420E+02  0.74409068030E+02  0.86751007033E+02  0.51100000000E-03 0.  1.
         11    1    3    3    0    0 -0.41167015614E+02 -0.17155309420E+02 -0.20859070229E+02  0.49235440761E+02  0.51100000000E-03 0.  1.
<mgrwt>
<rscale>  0 0.12499885E+03</rscale>
<asrwt>0</asrwt>
<pdfrwt beam="1">  1       21 0.14579727E-01 0.12499885E+03</pdfrwt>
<pdfrwt beam="2">  1       21 0.63412654E-02 0.12499885E+03</pdfrwt>
<totfact> 0.72568256E+06</totfact>
</mgrwt>
</event>
<event>
 5    1  0.1829803E-009  0.1249996E+03  0.7818608E-02  0.1235070E+00
         21   -1    0    0  502  501  0.00000000000E+00  0.00000000000E+00  0.68266879250E+02  0.68266879250E+02  0.00000000000E+00 0.  1.
         21   -1    0    0  501  502 -0.00000000000E+00 -0.00000000000E+00 -0.57219899556E+02  0.57219899556E+02  0.00000000000E+00 0.  1.
         25    2    1    2    0    0  0.00000000000E+00  0.00000000000E+00  0.11046979694E+02  0.12548677881E+03  0.12499958358E+03 0.  0.
        -11    1    3    3    0    0  0.24726922485E+02 -0.17548857770E+02  0.60388497945E+02  0.67573321577E+02  0.51100000000E-03 0.  1.
         11    1    3    3    0    0 -0.24726922485E+02  0.17548857770E+02 -0.49341518251E+02  0.57913457229E+02  0.51100000000E-03 0.  1.
<mgrwt>
<rscale>  0 0.12499958E+03</rscale>
<asrwt>0</asrwt>
<pdfrwt beam="1">  1       21 0.10502597E-01 0.12499958E+03</pdfrwt>
<pdfrwt beam="2">  1       21 0.88030615E-02 0.12499958E+03</pdfrwt>
<totfact> 0.73978031E+06</totfact>
</mgrwt>
</event>
<event>
 5    1  0.1829803E-009  0.1249986E+03  0.7818608E-02  0.1235071E+00
         21   -1    0    0  502  501  0.00000000000E+00  0.00000000000E+00  0.71448643077E+01  0.71448643077E+01  0.00000000000E+00 0.  1.
         21   -1    0    0  501  502 -0.00000000000E+00 -0.00000000000E+00 -0.54670946521E+03  0.54670946521E+03  0.00000000000E+00 0.  1.
         25    2    1    2    0    0  0.00000000000E+00  0.00000000000E+00 -0.53956460091E+03  0.55385432952E+03  0.12499863911E+03 0.  0.
        -11    1    3    3    0    0 -0.29986723340E+02  0.54737267311E+02 -0.25522569696E+03  0.26274612918E+03  0.51100000000E-03 0.  1.
         11    1    3    3    0    0  0.29986723340E+02 -0.54737267311E+02 -0.28433890395E+03  0.29110820034E+03  0.51100000000E-03 0.  1.
<mgrwt>
<rscale>  0 0.12499864E+03</rscale>
<asrwt>0</asrwt>
<pdfrwt beam="1">  1       21 0.10992098E-02 0.12499864E+03</pdfrwt>
<pdfrwt beam="2">  1       21 0.84109153E-01 0.12499864E+03</pdfrwt>
<totfact> 0.39267619E+06</totfact>
</mgrwt>
</event>
<event>
 5    1  0.1829803E-009  0.1249995E+03  0.7818608E-02  0.1235070E+00
         21   -1    0    0  502  501  0.00000000000E+00  0.00000000000E+00  0.11199622425E+02  0.11199622425E+02  0.00000000000E+00 0. -1.
         21   -1    0    0  501  502 -0.00000000000E+00 -0.00000000000E+00 -0.34878130198E+03  0.34878130198E+03  0.00000000000E+00 0. -1.
         25    2    1    2    0    0  0.00000000000E+00  0.00000000000E+00 -0.33758167956E+03  0.35998092441E+03  0.12499950226E+03 0.  0.
        -11    1    3    3    0    0 -0.37012235885E+02 -0.40330109650E+02 -0.25565549621E+03  0.26145010249E+03  0.51100000000E-03 0. -1.
         11    1    3    3    0    0  0.37012235885E+02  0.40330109650E+02 -0.81926183349E+02  0.98530821918E+02  0.51100000000E-03 0. -1.
<mgrwt>
<rscale>  0 0.12499950E+03</rscale>
<asrwt>0</asrwt>
<pdfrwt beam="1">  1       21 0.17230187E-02 0.12499950E+03</pdfrwt>
<pdfrwt beam="2">  1       21 0.53658667E-01 0.12499950E+03</pdfrwt>
<totfact> 0.50810285E+06</totfact>
</mgrwt>
</event>
<event>
 5    1  0.1829803E-009  0.1249994E+03  0.7818608E-02  0.1235070E+00
         21   -1    0    0  502  501  0.00000000000E+00  0.00000000000E+00  0.10780222657E+03  0.10780222657E+03  0.00000000000E+00 0.  1.
         21   -1    0    0  501  502 -0.00000000000E+00 -0.00000000000E+00 -0.36234970462E+02  0.36234970462E+02  0.00000000000E+00 0.  1.
         25    2    1    2    0    0  0.00000000000E+00  0.00000000000E+00  0.71567256105E+02  0.14403719703E+03  0.12499936793E+03 0.  0.
        -11    1    3    3    0    0 -0.35652767256E+02  0.45338041923E+02  0.63524064358E+02  0.85801891654E+02  0.51100000000E-03 0. -1.
         11    1    3    3    0    0  0.35652767256E+02 -0.45338041923E+02  0.80431917470E+01  0.58235305376E+02  0.51100000000E-03 0. -1.
<mgrwt>
<rscale>  0 0.12499937E+03</rscale>
<asrwt>0</asrwt>
<pdfrwt beam="1">  1       21 0.16584958E-01 0.12499937E+03</pdfrwt>
<pdfrwt beam="2">  1       21 0.55746109E-02 0.12499937E+03</pdfrwt>
<totfact> 0.71517694E+06</totfact>
</mgrwt>
</event>
<event>
 5    1  0.1829803E-009  0.1250013E+03  0.7818608E-02  0.1235067E+00
         21   -1    0    0  502  501  0.00000000000E+00  0.00000000000E+00  0.26395539989E+03  0.26395539989E+03  0.00000000000E+00 0. -1.
         21   -1    0    0  501  502 -0.00000000000E+00 -0.00000000000E+00 -0.14799202517E+02  0.14799202517E+02  0.00000000000E+00 0. -1.
         25    2    1    2    0    0  0.00000000000E+00  0.00000000000E+00  0.24915619738E+03  0.27875460241E+03  0.12500127069E+03 0.  0.
        -11    1    3    3    0    0 -0.44046432703E+02 -0.20431250307E+02  0.21233999873E+03  0.21782056672E+03  0.51100000000E-03 0. -1.
         11    1    3    3    0    0  0.44046432703E+02  0.20431250307E+02  0.36816198644E+02  0.60934035693E+02  0.51100000000E-03 0. -1.
<mgrwt>
<rscale>  0 0.12500127E+03</rscale>
<asrwt>0</asrwt>
<pdfrwt beam="1">  1       21 0.40608520E-01 0.12500127E+03</pdfrwt>
<pdfrwt beam="2">  1       21 0.22768006E-02 0.12500127E+03</pdfrwt>
<totfact> 0.57267465E+06</totfact>
</mgrwt>
</event>
<event>
 5    1  0.1829803E-009  0.1250030E+03  0.7818608E-02  0.1235065E+00
         21   -1    0    0  502  501  0.00000000000E+00  0.00000000000E+00  0.23100585018E+03  0.23100585018E+03  0.00000000000E+00 0.  1.
         21   -1    0    0  501  502 -0.00000000000E+00 -0.00000000000E+00 -0.16910559926E+02  0.16910559926E+02  0.00000000000E+00 0.  1.
         25    2    1    2    0    0  0.00000000000E+00  0.00000000000E+00  0.21409529025E+03  0.24791641010E+03  0.12500301233E+03 0.  0.
        -11    1    3    3    0    0 -0.21899241140E+02  0.58420224477E+02  0.11445219677E+03  0.13035261691E+03  0.51100000000E-03 0. -1.
         11    1    3    3    0    0  0.21899241140E+02 -0.58420224477E+02  0.99643093486E+02  0.11756379319E+03  0.51100000000E-03 0. -1.
<mgrwt>
<rscale>  0 0.12500301E+03</rscale>
<asrwt>0</asrwt>
<pdfrwt beam="1">  1       21 0.35539359E-01 0.12500301E+03</pdfrwt>
<pdfrwt beam="2">  1       21 0.26016248E-02 0.12500301E+03</pdfrwt>
<totfact> 0.60070351E+06</totfact>
</mgrwt>
</event>
<event>
 5    1  0.1829803E-009  0.1250012E+03  0.7818608E-02  0.1235067E+00
         21   -1    0    0  502  501  0.00000000000E+00  0.00000000000E+00  0.13285586067E+02  0.13285586067E+02  0.00000000000E+00 0.  1.
         21   -1    0    0  501  502 -0.00000000000E+00 -0.00000000000E+00 -0.29402735394E+03  0.29402735394E+03  0.00000000000E+00 0.  1.
         25    2    1    2    0    0  0.00000000000E+00  0.00000000000E+00 -0.28074176787E+03  0.30731294000E+03  0.12500121146E+03 0.  0.
        -11    1    3    3    0    0  0.43889606249E+02 -0.96718960289E+01 -0.33590118879E+02  0.56108280994E+02  0.51100000000E-03 0.  1.
         11    1    3    3    0    0 -0.43889606249E+02  0.96718960289E+01 -0.24715164899E+03  0.25120465901E+03  0.51100000000E-03 0.  1.
<mgrwt>
<rscale>  0 0.12500121E+03</rscale>
<asrwt>0</asrwt>
<pdfrwt beam="1">  1       21 0.20439363E-02 0.12500121E+03</pdfrwt>
<pdfrwt beam="2">  1       21 0.45234978E-01 0.12500121E+03</pdfrwt>
<totfact> 0.54852193E+06</totfact>
</mgrwt>
</event>
<event>
 5    1  0.1829803E-009  0.1249961E+03  0.7818608E-02  0.1235075E+00
         21   -1    0    0  502  501  0.00000000000E+00  0.00000000000E+00  0.65041783695E+02  0.65041783695E+02  0.00000000000E+00 0.  1.
         21   -1    0    0  501  502 -0.00000000000E+00 -0.00000000000E+00 -0.60053791299E+02  0.60053791299E+02  0.00000000000E+00 0.  1.
         25    2    1    2    0    0  0.00000000000E+00  0.00000000000E+00  0.49879923957E+01  0.12509557499E+03  0.12499609120E+03 0.  0.
        -11    1    3    3    0    0 -0.24595168136E+02  0.33909621122E+01  0.59894546695E+02  0.64836545588E+02  0.51100000000E-03 0. -1.
         11    1    3    3    0    0  0.24595168136E+02 -0.33909621122E+01 -0.54906554300E+02  0.60259029407E+02  0.51100000000E-03 0. -1.
<mgrwt>
<rscale>  0 0.12499609E+03</rscale>
<asrwt>0</asrwt>
<pdfrwt beam="1">  1       21 0.10006428E-01 0.12499609E+03</pdfrwt>
<pdfrwt beam="2">  1       21 0.92390448E-02 0.12499609E+03</pdfrwt>
<totfact> 0.74038072E+06</totfact>
</mgrwt>
</event>
<event>
 5    1  0.1829803E-009  0.1249985E+03  0.7818608E-02  0.1235072E+00
         21   -1    0    0  502  501  0.00000000000E+00  0.00000000000E+00  0.59557173400E+02  0.59557173400E+02  0.00000000000E+00 0.  1.
         21   -1    0    0  501  502 -0.00000000000E+00 -0.00000000000E+00 -0.65586677714E+02  0.65586677714E+02  0.00000000000E+00 0.  1.
         25    2    1    2    0    0  0.00000000000E+00  0.00000000000E+00 -0.60295043140E+01  0.12514385111E+03  0.12499851419E+03 0.  0.
        -11    1    3    3    0    0  0.39676356436E+02 -0.48205937703E+02 -0.58696369619E+01  0.62709475585E+02  0.51100000000E-03 0.  1.
         11    1    3    3    0    0 -0.39676356436E+02  0.48205937703E+02 -0.15986735214E+00  0.62434375529E+02  0.51100000000E-03 0.  1.
<mgrwt>
<rscale>  0 0.12499851E+03</rscale>
<asrwt>0</asrwt>
<pdfrwt beam="1">  1       21 0.91626420E-02 0.12499851E+03</pdfrwt>
<pdfrwt beam="2">  1       21 0.10090258E-01 0.12499851E+03</pdfrwt>
<totfact> 0.74026966E+06</totfact>
</mgrwt>
</event>
<event>
 5    1  0.1829803E-009  0.1249989E+03  0.7818608E-02  0.1235071E+00
         21   -1    0    0  502  501  0.00000000000E+00  0.00000000000E+00  0.77826837620E+02  0.77826837620E+02  0.00000000000E+00 0. -1.
         21   -1    0    0  501  502 -0.00000000000E+00 -0.00000000000E+00 -0.50190660821E+02  0.50190660821E+02  0.00000000000E+00 0. -1.
         25    2    1    2    0    0  0.00000000000E+00  0.00000000000E+00  0.27636176799E+02  0.12801749844E+03  0.12499888655E+03 0.  0.
        -11    1    3    3    0    0  0.30432550812E+02 -0.40696958318E+02  0.51080763239E+02  0.72052945384E+02  0.51100000000E-03 0.  1.
         11    1    3    3    0    0 -0.30432550812E+02  0.40696958318E+02 -0.23444586440E+02  0.55964553057E+02  0.51100000000E-03 0.  1.
<mgrwt>
<rscale>  0 0.12499889E+03</rscale>
<asrwt>0</asrwt>
<pdfrwt beam="1">  1       21 0.11973360E-01 0.12499889E+03</pdfrwt>
<pdfrwt beam="2">  1       21 0.77216401E-02 0.12499889E+03</pdfrwt>
<totfact> 0.73633289E+06</totfact>
</mgrwt>
</event>
<event>
 5    1  0.1829803E-009  0.1249981E+03  0.7818608E-02  0.1235072E+00
         21   -1    0    0  502  501  0.00000000000E+00  0.00000000000E+00  0.11246428395E+03  0.11246428395E+03  0.00000000000E+00 0. -1.
         21   -1    0    0  501  502 -0.00000000000E+00 -0.00000000000E+00 -0.34732201084E+02  0.34732201084E+02  0.00000000000E+00 0. -1.
         25    2    1    2    0    0  0.00000000000E+00  0.00000000000E+00  0.77732082870E+02  0.14719648504E+03  0.12499811399E+03 0.  0.
        -11    1    3    3    0    0 -0.59585276463E+02 -0.18781219567E+02  0.36828863991E+02  0.72522442062E+02  0.51100000000E-03 0.  1.
         11    1    3    3    0    0  0.59585276463E+02  0.18781219567E+02  0.40903218880E+02  0.74674042977E+02  0.51100000000E-03 0.  1.
<mgrwt>
<rscale>  0 0.12499811E+03</rscale>
<asrwt>0</asrwt>
<pdfrwt beam="1">  1       21 0.17302197E-01 0.12499811E+03</pdfrwt>
<pdfrwt beam="2">  1       21 0.53434156E-02 0.12499811E+03</pdfrwt>
<totfact> 0.71116591E+06</totfact>
</mgrwt>
</event>
<event>
 5    1  0.1829803E-009  0.1250079E+03  0.7818608E-02  0.1235057E+00
         21   -1    0    0  502  501  0.00000000000E+00  0.00000000000E+00  0.22535136413E+03  0.22535136413E+03  0.00000000000E+00 0.  1.
         21   -1    0    0  501  502 -0.00000000000E+00 -0.00000000000E+00 -0.17336226467E+02  0.17336226467E+02  0.00000000000E+00 0.  1.
         25    2    1    2    0    0  0.00000000000E+00  0.00000000000E+00  0.20801513766E+03  0.24268759060E+03  0.12500787628E+03 0.  0.
        -11    1    3    3    0    0 -0.50387010533E+01  0.33922212485E+02  0.20545526761E+03  0.20829779643E+03  0.51100000000E-03 0.  1.
         11    1    3    3    0    0  0.50387010533E+01 -0.33922212485E+02  0.25598700559E+01  0.34389794171E+02  0.51100000000E-03 0.  1.
<mgrwt>
<rscale>  0 0.12500788E+03</rscale>
<asrwt>0</asrwt>
<pdfrwt beam="1">  1       21 0.34669439E-01 0.12500788E+03</pdfrwt>
<pdfrwt beam="2">  1       21 0.26671119E-02 0.12500788E+03</pdfrwt>
<totfact> 0.60561526E+06</totfact>
</mgrwt>
</event>
<event>
 5    1  0.1829803E-009  0.1250013E+03  0.7818608E-02  0.1235067E+00
         21   -1    0    0  502  501  0.00000000000E+00  0.00000000000E+00  0.21115888580E+03  0.21115888580E+03  0.00000000000E+00 0. -1.
         21   -1    0    0  501  502 -0.00000000000E+00 -0.00000000000E+00 -0.18499498229E+02  0.18499498229E+02  0.00000000000E+00 0. -1.
         25    2    1    2    0    0  0.00000000000E+00  0.00000000000E+00  0.19265938757E+03  0.22965838403E+03  0.12500133494E+03 0.  0.
        -11    1    3    3    0    0  0.39154289587E+02  0.42371429605E+02  0.52161676824E+02  0.77776840828E+02  0.51100000000E-03 0. -1.
         11    1    3    3    0    0 -0.39154289587E+02 -0.42371429605E+02  0.14049771075E+03  0.15188154320E+03  0.51100000000E-03 0. -1.
<mgrwt>
<rscale>  0 0.12500133E+03</rscale>
<asrwt>0</asrwt>
<pdfrwt beam="1">  1       21 0.32485981E-01 0.12500133E+03</pdfrwt>
<pdfrwt beam="2">  1       21 0.28460768E-02 0.12500133E+03</pdfrwt>
<totfact> 0.61845909E+06</totfact>
</mgrwt>
</event>
<event>
 5    1  0.1829803E-009  0.1249777E+03  0.7818608E-02  0.1235104E+00
         21   -1    0    0  502  501  0.00000000000E+00  0.00000000000E+00  0.13435830837E+03  0.13435830837E+03  0.00000000000E+00 0. -1.
         21   -1    0    0  501  502 -0.00000000000E+00 -0.00000000000E+00 -0.29063008706E+02  0.29063008706E+02  0.00000000000E+00 0. -1.
         25    2    1    2    0    0  0.00000000000E+00  0.00000000000E+00  0.10529529967E+03  0.16342131708E+03  0.12497770499E+03 0.  0.
        -11    1    3    3    0    0  0.15446939130E+02 -0.56541615473E+02  0.80974538954E+02  0.99962183689E+02  0.51100000000E-03 0. -1.
         11    1    3    3    0    0 -0.15446939130E+02  0.56541615473E+02  0.24320760713E+02  0.63459133391E+02  0.51100000000E-03 0. -1.
<mgrwt>
<rscale>  0 0.12497770E+03</rscale>
<asrwt>0</asrwt>
<pdfrwt beam="1">  1       21 0.20670509E-01 0.12497770E+03</pdfrwt>
<pdfrwt beam="2">  1       21 0.44712322E-02 0.12497770E+03</pdfrwt>
<totfact> 0.69143017E+06</totfact>
</mgrwt>
</event>
<event>
 5    1  0.1829803E-009  0.1250012E+03  0.7818608E-02  0.1235067E+00
         21   -1    0    0  502  501  0.00000000000E+00  0.00000000000E+00  0.36851672995E+03  0.36851672995E+03  0.00000000000E+00 0.  1.
         21   -1    0    0  501  502 -0.00000000000E+00 -0.00000000000E+00 -0.10600128333E+02  0.10600128333E+02  0.00000000000E+00 0.  1.
         25    2    1    2    0    0  0.00000000000E+00  0.00000000000E+00  0.35791660162E+03  0.37911685828E+03  0.12500119408E+03 0.  0.
        -11    1    3    3    0    0 -0.42266622997E+02  0.45632179137E+02  0.16037041314E+03  0.17200997821E+03  0.51100000000E-03 0. -1.
         11    1    3    3    0    0  0.42266622997E+02 -0.45632179137E+02  0.19754618847E+03  0.20710688007E+03  0.51100000000E-03 0. -1.
<mgrwt>
<rscale>  0 0.12500119E+03</rscale>
<asrwt>0</asrwt>
<pdfrwt beam="1">  1       21 0.56694872E-01 0.12500119E+03</pdfrwt>
<pdfrwt beam="2">  1       21 0.16307893E-02 0.12500119E+03</pdfrwt>
<totfact> 0.49455899E+06</totfact>
</mgrwt>
</event>
<event>
 5    1  0.1829803E-009  0.1250007E+03  0.7818608E-02  0.1235068E+00
         21   -1    0    0  502  501  0.00000000000E+00  0.00000000000E+00  0.74684950264E+02  0.74684950264E+02  0.00000000000E+00 0. -1.
         21   -1    0    0  501  502 -0.00000000000E+00 -0.00000000000E+00 -0.52303601642E+02  0.52303601642E+02  0.00000000000E+00 0. -1.
         25    2    1    2    0    0  0.00000000000E+00  0.00000000000E+00  0.22381348622E+02  0.12698855191E+03  0.12500067019E+03 0.  0.
        -11    1    3    3    0    0  0.12765281859E+01 -0.60127991497E+02  0.28469598104E+02  0.66539634070E+02  0.51100000000E-03 0.  1.
         11    1    3    3    0    0 -0.12765281859E+01  0.60127991497E+02 -0.60882494827E+01  0.60448917837E+02  0.51100000000E-03 0.  1.
<mgrwt>
<rscale>  0 0.12500067E+03</rscale>
<asrwt>0</asrwt>
<pdfrwt beam="1">  1       21 0.11489992E-01 0.12500067E+03</pdfrwt>
<pdfrwt beam="2">  1       21 0.80467079E-02 0.12500067E+03</pdfrwt>
<totfact> 0.73769433E+06</totfact>
</mgrwt>
</event>
<event>
 5    1  0.1829803E-009  0.1249987E+03  0.7818608E-02  0.1235071E+00
         21   -1    0    0  502  501  0.00000000000E+00  0.00000000000E+00  0.40384661084E+02  0.40384661084E+02  0.00000000000E+00 0.  1.
         21   -1    0    0  501  502 -0.00000000000E+00 -0.00000000000E+00 -0.96724065290E+02  0.96724065290E+02  0.00000000000E+00 0.  1.
         25    2    1    2    0    0  0.00000000000E+00  0.00000000000E+00 -0.56339404206E+02  0.13710872637E+03  0.12499869752E+03 0.  0.
        -11    1    3    3    0    0 -0.16661736037E+02  0.49288168801E+02  0.98152107357E+01  0.52945966735E+02  0.51100000000E-03 0.  1.
         11    1    3    3    0    0  0.16661736037E+02 -0.49288168801E+02 -0.66154614942E+02  0.84162759638E+02  0.51100000000E-03 0.  1.
<mgrwt>
<rscale>  0 0.12499870E+03</rscale>
<asrwt>0</asrwt>
<pdfrwt beam="1">  1       21 0.62130248E-02 0.12499870E+03</pdfrwt>
<pdfrwt beam="2">  1       21 0.14880625E-01 0.12499870E+03</pdfrwt>
<totfact> 0.72420854E+06</totfact>
</mgrwt>
</event>
<event>
 5    1  0.1829803E-009  0.1250058E+03  0.7818608E-02  0.1235060E+00
         21   -1    0    0  502  501  0.00000000000E+00  0.00000000000E+00  0.34390726007E+03  0.34390726007E+03  0.00000000000E+00 0.  1.
         21   -1    0    0  501  502 -0.00000000000E+00 -0.00000000000E+00 -0.11359499449E+02  0.11359499449E+02  0.00000000000E+00 0.  1.
         25    2    1    2    0    0  0.00000000000E+00  0.00000000000E+00  0.33254776062E+03  0.35526675952E+03  0.12500582916E+03 0.  0.
        -11    1    3    3    0    0  0.55705210099E+02  0.21257901905E+02  0.11298006103E+03  0.12774765366E+03  0.51100000000E-03 0. -1.
         11    1    3    3    0    0 -0.55705210099E+02 -0.21257901905E+02  0.21956769960E+03  0.22751910586E+03  0.51100000000E-03 0. -1.
<mgrwt>
<rscale>  0 0.12500583E+03</rscale>
<asrwt>0</asrwt>
<pdfrwt beam="1">  1       21 0.52908802E-01 0.12500583E+03</pdfrwt>
<pdfrwt beam="2">  1       21 0.17476156E-02 0.12500583E+03</pdfrwt>
<totfact> 0.51144341E+06</totfact>
</mgrwt>
</event>
<event>
 5    1  0.1829803E-009  0.1250002E+03  0.7818608E-02  0.1235069E+00
         21   -1    0    0  502  501  0.00000000000E+00  0.00000000000E+00  0.15319322447E+03  0.15319322447E+03  0.00000000000E+00 0. -1.
         21   -1    0    0  501  502 -0.00000000000E+00 -0.00000000000E+00 -0.25498938306E+02  0.25498938306E+02  0.00000000000E+00 0. -1.
         25    2    1    2    0    0  0.00000000000E+00  0.00000000000E+00  0.12769428617E+03  0.17869216278E+03  0.12500023328E+03 0.  0.
        -11    1    3    3    0    0  0.34496575394E+02  0.38110964364E+02  0.11466715485E+03  0.12566230827E+03  0.51100000000E-03 0. -1.
         11    1    3    3    0    0 -0.34496575394E+02 -0.38110964364E+02  0.13027131320E+02  0.53029854510E+02  0.51100000000E-03 0. -1.
<mgrwt>
<rscale>  0 0.12500023E+03</rscale>
<asrwt>0</asrwt>
<pdfrwt beam="1">  1       21 0.23568188E-01 0.12500023E+03</pdfrwt>
<pdfrwt beam="2">  1       21 0.39229137E-02 0.12500023E+03</pdfrwt>
<totfact> 0.67301487E+06</totfact>
</mgrwt>
</event>
<event>
 5    1  0.1829803E-009  0.1250008E+03  0.7818608E-02  0.1235068E+00
         21   -1    0    0  502  501  0.00000000000E+00  0.00000000000E+00  0.96800040896E+01  0.96800040896E+01  0.00000000000E+00 0. -1.
         21   -1    0    0  501  502 -0.00000000000E+00 -0.00000000000E+00 -0.40354330994E+03  0.40354330994E+03  0.00000000000E+00 0. -1.
         25    2    1    2    0    0  0.00000000000E+00  0.00000000000E+00 -0.39386330585E+03  0.41322331403E+03  0.12500081425E+03 0.  0.
        -11    1    3    3    0    0  0.39211597421E+02  0.43579730397E+02 -0.26856527009E+03  0.27488915325E+03  0.51100000000E-03 0. -1.
         11    1    3    3    0    0 -0.39211597421E+02 -0.43579730397E+02 -0.12529803576E+03  0.13833416078E+03  0.51100000000E-03 0. -1.
<mgrwt>
<rscale>  0 0.12500081E+03</rscale>
<asrwt>0</asrwt>
<pdfrwt beam="1">  1       21 0.14892310E-02 0.12500081E+03</pdfrwt>
<pdfrwt beam="2">  1       21 0.62083605E-01 0.12500081E+03</pdfrwt>
<totfact> 0.47175488E+06</totfact>
</mgrwt>
</event>
<event>
 5    1  0.1829803E-009  0.1250004E+03  0.7818608E-02  0.1235069E+00
         21   -1    0    0  502  501  0.00000000000E+00  0.00000000000E+00  0.10053507193E+03  0.10053507193E+03  0.00000000000E+00 0.  1.
         21   -1    0    0  501  502 -0.00000000000E+00 -0.00000000000E+00 -0.38854833199E+02  0.38854833199E+02  0.00000000000E+00 0.  1.
         25    2    1    2    0    0  0.00000000000E+00  0.00000000000E+00  0.61680238733E+02  0.13938990513E+03  0.12500037521E+03 0.  0.
        -11    1    3    3    0    0 -0.31317925540E+02 -0.34212210187E+02  0.77555166624E+02  0.90366429919E+02  0.51100000000E-03 0.  1.
         11    1    3    3    0    0  0.31317925540E+02  0.34212210187E+02 -0.15874927891E+02  0.49023475211E+02  0.51100000000E-03 0.  1.
<mgrwt>
<rscale>  0 0.12500038E+03</rscale>
<asrwt>0</asrwt>
<pdfrwt beam="1">  1       21 0.15466934E-01 0.12500038E+03</pdfrwt>
<pdfrwt beam="2">  1       21 0.59776667E-02 0.12500038E+03</pdfrwt>
<totfact> 0.72118366E+06</totfact>
</mgrwt>
</event>
<event>
 5    1  0.1829803E-009  0.1249949E+03  0.7818608E-02  0.1235077E+00
         21   -1    0    0  502  501  0.00000000000E+00  0.00000000000E+00  0.51496894455E+02  0.51496894455E+02  0.00000000000E+00 0. -1.
         21   -1    0    0  501  502 -0.00000000000E+00 -0.00000000000E+00 -0.75847851111E+02  0.75847851111E+02  0.00000000000E+00 0. -1.
         25    2    1    2    0    0  0.00000000000E+00  0.00000000000E+00 -0.24350956656E+02  0.12734474557E+03  0.12499486043E+03 0.  0.
        -11    1    3    3    0    0  0.52219505256E+01  0.60511120577E+02  0.28346041077E+01  0.60802133692E+02  0.51100000000E-03 0.  1.
         11    1    3    3    0    0 -0.52219505256E+01 -0.60511120577E+02 -0.27185560763E+02  0.66542611875E+02  0.51100000000E-03 0.  1.
<mgrwt>
<rscale>  0 0.12499486E+03</rscale>
<asrwt>0</asrwt>
<pdfrwt beam="1">  1       21 0.79225991E-02 0.12499486E+03</pdfrwt>
<pdfrwt beam="2">  1       21 0.11668900E-01 0.12499486E+03</pdfrwt>
<totfact> 0.73731951E+06</totfact>
</mgrwt>
</event>
<event>
 5    1  0.1829803E-009  0.1250059E+03  0.7818608E-02  0.1235060E+00
         21   -1    0    0  502  501  0.00000000000E+00  0.00000000000E+00  0.14193843397E+03  0.14193843397E+03  0.00000000000E+00 0.  1.
         21   -1    0    0  501  502 -0.00000000000E+00 -0.00000000000E+00 -0.27523346088E+02  0.27523346088E+02  0.00000000000E+00 0.  1.
         25    2    1    2    0    0  0.00000000000E+00  0.00000000000E+00  0.11441508789E+03  0.16946178006E+03  0.12500593012E+03 0.  0.
        -11    1    3    3    0    0 -0.25898275523E+02  0.29092489566E+02 -0.90594271909E+01  0.39989584213E+02  0.51100000000E-03 0. -1.
         11    1    3    3    0    0  0.25898275523E+02 -0.29092489566E+02  0.12347451508E+03  0.12947219585E+03  0.51100000000E-03 0. -1.
<mgrwt>
<rscale>  0 0.12500593E+03</rscale>
<asrwt>0</asrwt>
<pdfrwt beam="1">  1       21 0.21836682E-01 0.12500593E+03</pdfrwt>
<pdfrwt beam="2">  1       21 0.42343610E-02 0.12500593E+03</pdfrwt>
<totfact> 0.68371153E+06</totfact>
</mgrwt>
</event>
<event>
 5    1  0.1829803E-009  0.1250001E+03  0.7818608E-02  0.1235069E+00
         21   -1    0    0  502  501  0.00000000000E+00  0.00000000000E+00  0.10861250902E+03  0.10861250902E+03  0.00000000000E+00 0.  1.
         21   -1    0    0  501  502 -0.00000000000E+00 -0.00000000000E+00 -0.35965050121E+02  0.35965050121E+02  0.00000000000E+00 0.  1.
         25    2    1    2    0    0  0.00000000000E+00  0.00000000000E+00  0.72647458901E+02  0.14457755914E+03  0.12500006929E+03 0.  0.
        -11    1    3    3    0    0  0.17048038825E+02  0.41961004582E+02 -0.13490112909E+02  0.47258276311E+02  0.51100000000E-03 0. -1.
         11    1    3    3    0    0 -0.17048038825E+02 -0.41961004582E+02  0.86137571810E+02  0.97319282832E+02  0.51100000000E-03 0. -1.
<mgrwt>
<rscale>  0 0.12500007E+03</rscale>
<asrwt>0</asrwt>
<pdfrwt beam="1">  1       21 0.16709617E-01 0.12500007E+03</pdfrwt>
<pdfrwt beam="2">  1       21 0.55330847E-02 0.12500007E+03</pdfrwt>
<totfact> 0.71447078E+06</totfact>
</mgrwt>
</event>
<event>
 5    1  0.1829803E-009  0.1249989E+03  0.7818608E-02  0.1235071E+00
         21   -1    0    0  502  501  0.00000000000E+00  0.00000000000E+00  0.55219324583E+02  0.55219324583E+02  0.00000000000E+00 0. -1.
         21   -1    0    0  501  502 -0.00000000000E+00 -0.00000000000E+00 -0.70739381201E+02  0.70739381201E+02  0.00000000000E+00 0. -1.
         25    2    1    2    0    0  0.00000000000E+00  0.00000000000E+00 -0.15520056618E+02  0.12595870578E+03  0.12499889362E+03 0.  0.
        -11    1    3    3    0    0 -0.54274414465E+01  0.44087620757E+02 -0.52063581371E+02  0.68438234417E+02  0.51100000000E-03 0.  1.
         11    1    3    3    0    0  0.54274414465E+01 -0.44087620757E+02  0.36543524753E+02  0.57520471367E+02  0.51100000000E-03 0.  1.
<mgrwt>
<rscale>  0 0.12499889E+03</rscale>
<asrwt>0</asrwt>
<pdfrwt beam="1">  1       21 0.84952807E-02 0.12499889E+03</pdfrwt>
<pdfrwt beam="2">  1       21 0.10882982E-01 0.12499889E+03</pdfrwt>
<totfact> 0.73913821E+06</totfact>
</mgrwt>
</event>
<event>
 5    1  0.1829803E-009  0.1250005E+03  0.7818608E-02  0.1235069E+00
         21   -1    0    0  502  501  0.00000000000E+00  0.00000000000E+00  0.14195081166E+02  0.14195081166E+02  0.00000000000E+00 0.  1.
         21   -1    0    0  501  502 -0.00000000000E+00 -0.00000000000E+00 -0.27518544718E+03  0.27518544718E+03  0.00000000000E+00 0.  1.
         25    2    1    2    0    0  0.00000000000E+00  0.00000000000E+00 -0.26099036601E+03  0.28938052834E+03  0.12500047613E+03 0.  0.
        -11    1    3    3    0    0  0.22884830068E+02  0.56643571855E+02 -0.99951619794E+02  0.11714322848E+03  0.51100000000E-03 0.  1.
         11    1    3    3    0    0 -0.22884830068E+02 -0.56643571855E+02 -0.16103874622E+03  0.17223729986E+03  0.51100000000E-03 0.  1.
<mgrwt>
<rscale>  0 0.12500048E+03</rscale>
<asrwt>0</asrwt>
<pdfrwt beam="1">  1       21 0.21838589E-02 0.12500048E+03</pdfrwt>
<pdfrwt beam="2">  1       21 0.42336218E-01 0.12500048E+03</pdfrwt>
<totfact> 0.56349731E+06</totfact>
</mgrwt>
</event>
<event>
 5    1  0.1829803E-009  0.1250010E+03  0.7818608E-02  0.1235068E+00
         21   -1    0    0  502  501  0.00000000000E+00  0.00000000000E+00  0.10608574513E+02  0.10608574513E+02  0.00000000000E+00 0.  1.
         21   -1    0    0  501  502 -0.00000000000E+00 -0.00000000000E+00 -0.36822248043E+03  0.36822248043E+03  0.00000000000E+00 0.  1.
         25    2    1    2    0    0  0.00000000000E+00  0.00000000000E+00 -0.35761390592E+03  0.37883105494E+03  0.12500104993E+03 0.  0.
        -11    1    3    3    0    0  0.57498416404E+02  0.18517591445E+02 -0.13018962586E+03  0.14352110564E+03  0.51100000000E-03 0.  1.
         11    1    3    3    0    0 -0.57498416404E+02 -0.18517591445E+02 -0.22742428005E+03  0.23530994930E+03  0.51100000000E-03 0.  1.
<mgrwt>
<rscale>  0 0.12500105E+03</rscale>
<asrwt>0</asrwt>
<pdfrwt beam="1">  1       21 0.16320885E-02 0.12500105E+03</pdfrwt>
<pdfrwt beam="2">  1       21 0.56649609E-01 0.12500105E+03</pdfrwt>
<totfact> 0.49475852E+06</totfact>
</mgrwt>
</event>
<event>
 5    1  0.1829803E-009  0.1249980E+03  0.7818608E-02  0.1235072E+00
         21   -1    0    0  502  501  0.00000000000E+00  0.00000000000E+00  0.30994656157E+02  0.30994656157E+02  0.00000000000E+00 0.  1.
         21   -1    0    0  501  502 -0.00000000000E+00 -0.00000000000E+00 -0.12602579567E+03  0.12602579567E+03  0.00000000000E+00 0.  1.
         25    2    1    2    0    0  0.00000000000E+00  0.00000000000E+00 -0.95031139511E+02  0.15702045182E+03  0.12499801924E+03 0.  0.
        -11    1    3    3    0    0  0.51279769011E+02 -0.26084624108E+02 -0.16845549315E+02  0.59948268170E+02  0.51100000000E-03 0. -1.
         11    1    3    3    0    0 -0.51279769011E+02  0.26084624108E+02 -0.78185590196E+02  0.97072183654E+02  0.51100000000E-03 0. -1.
<mgrwt>
<rscale>  0 0.12499802E+03</rscale>
<asrwt>0</asrwt>
<pdfrwt beam="1">  1       21 0.47684085E-02 0.12499802E+03</pdfrwt>
<pdfrwt beam="2">  1       21 0.19388585E-01 0.12499802E+03</pdfrwt>
<totfact> 0.69888929E+06</totfact>
</mgrwt>
</event>
<event>
 5    1  0.1829803E-009  0.1250001E+03  0.7818608E-02  0.1235069E+00
         21   -1    0    0  502  501  0.00000000000E+00  0.00000000000E+00  0.33638258926E+03  0.33638258926E+03  0.00000000000E+00 0.  1.
         21   -1    0    0  501  502 -0.00000000000E+00 -0.00000000000E+00 -0.11612543305E+02  0.11612543305E+02  0.00000000000E+00 0.  1.
         25    2    1    2    0    0  0.00000000000E+00  0.00000000000E+00  0.32477004595E+03  0.34799513256E+03  0.12500011816E+03 0.  0.
        -11    1    3    3    0    0  0.60320920134E+02  0.16333626025E+02  0.16496171095E+03  0.17640228690E+03  0.51100000000E-03 0.  1.
         11    1    3    3    0    0 -0.60320920134E+02 -0.16333626025E+02  0.15980833500E+03  0.17159284566E+03  0.51100000000E-03 0.  1.
<mgrwt>
<rscale>  0 0.12500012E+03</rscale>
<asrwt>0</asrwt>
<pdfrwt beam="1">  1       21 0.51751160E-01 0.12500012E+03</pdfrwt>
<pdfrwt beam="2">  1       21 0.17865454E-02 0.12500012E+03</pdfrwt>
<totfact> 0.51686688E+06</totfact>
</mgrwt>
</event>
<event>
 5    1  0.1829803E-009  0.1249985E+03  0.7818608E-02  0.1235072E+00
         21   -1    0    0  502  501  0.00000000000E+00  0.00000000000E+00  0.33637142735E+03  0.33637142735E+03  0.00000000000E+00 0. -1.
         21   -1    0    0  501  502 -0.00000000000E+00 -0.00000000000E+00 -0.11612634249E+02  0.11612634249E+02  0.00000000000E+00 0. -1.
         25    2    1    2    0    0  0.00000000000E+00  0.00000000000E+00  0.32475879310E+03  0.34798406160E+03  0.12499853371E+03 0.  0.
        -11    1    3    3    0    0  0.61759831867E+01  0.56257092138E+02  0.88558379830E+02  0.10509800104E+03  0.51100000000E-03 0.  1.
         11    1    3    3    0    0 -0.61759831867E+01 -0.56257092138E+02  0.23620041327E+03  0.24288606056E+03  0.51100000000E-03 0.  1.
<mgrwt>
<rscale>  0 0.12499853E+03</rscale>
<asrwt>0</asrwt>
<pdfrwt beam="1">  1       21 0.51749443E-01 0.12499853E+03</pdfrwt>
<pdfrwt beam="2">  1       21 0.17865594E-02 0.12499853E+03</pdfrwt>
<totfact> 0.51689562E+06</totfact>
</mgrwt>
</event>
<event>
 5    1  0.1829803E-009  0.1250003E+03  0.7818608E-02  0.1235069E+00
         21   -1    0    0  502  501  0.00000000000E+00  0.00000000000E+00  0.34270387135E+03  0.34270387135E+03  0.00000000000E+00 0. -1.
         21   -1    0    0  501  502 -0.00000000000E+00 -0.00000000000E+00 -0.11398377689E+02  0.11398377689E+02  0.00000000000E+00 0. -1.
         25    2    1    2    0    0  0.00000000000E+00  0.00000000000E+00  0.33130549366E+03  0.35410224904E+03  0.12500029058E+03 0.  0.
        -11    1    3    3    0    0 -0.19218270569E+02 -0.57440759549E+02  0.12199753481E+03  0.13620639222E+03  0.51100000000E-03 0. -1.
         11    1    3    3    0    0  0.19218270569E+02  0.57440759549E+02  0.20930795885E+03  0.21789585682E+03  0.51100000000E-03 0. -1.
<mgrwt>
<rscale>  0 0.12500029E+03</rscale>
<asrwt>0</asrwt>
<pdfrwt beam="1">  1       21 0.52723665E-01 0.12500029E+03</pdfrwt>
<pdfrwt beam="2">  1       21 0.17535968E-02 0.12500029E+03</pdfrwt>
<totfact> 0.51236520E+06</totfact>
</mgrwt>
</event>
<event>
 5    1  0.1829803E-009  0.1250014E+03  0.7818608E-02  0.1235067E+00
         21   -1    0    0  502  501  0.00000000000E+00  0.00000000000E+00  0.13510742640E+03  0.13510742640E+03  0.00000000000E+00 0. -1.
         21   -1    0    0  501  502 -0.00000000000E+00 -0.00000000000E+00 -0.28912803544E+02  0.28912803544E+02  0.00000000000E+00 0. -1.
         25    2    1    2    0    0  0.00000000000E+00  0.00000000000E+00  0.10619462286E+03  0.16402022995E+03  0.12500135162E+03 0.  0.
        -11    1    3    3    0    0 -0.56162586524E+02  0.26332622272E+02  0.63149711833E+02  0.88518524760E+02  0.51100000000E-03 0. -1.
         11    1    3    3    0    0  0.56162586524E+02 -0.26332622272E+02  0.43044911026E+02  0.75501705187E+02  0.51100000000E-03 0. -1.
<mgrwt>
<rscale>  0 0.12500135E+03</rscale>
<asrwt>0</asrwt>
<pdfrwt beam="1">  1       21 0.20785758E-01 0.12500135E+03</pdfrwt>
<pdfrwt beam="2">  1       21 0.44481237E-02 0.12500135E+03</pdfrwt>
<totfact> 0.69029202E+06</totfact>
</mgrwt>
</event>
<event>
 5    1  0.1829803E-009  0.1250017E+03  0.7818608E-02  0.1235067E+00
         21   -1    0    0  502  501  0.00000000000E+00  0.00000000000E+00  0.15103499688E+03  0.15103499688E+03  0.00000000000E+00 0.  1.
         21   -1    0    0  501  502 -0.00000000000E+00 -0.00000000000E+00 -0.25863922183E+02  0.25863922183E+02  0.00000000000E+00 0.  1.
         25    2    1    2    0    0  0.00000000000E+00  0.00000000000E+00  0.12517107470E+03  0.17689891906E+03  0.12500171849E+03 0.  0.
        -11    1    3    3    0    0  0.39682128393E+02 -0.18808448912E+02 -0.35268499277E+00  0.43915298602E+02  0.51100000000E-03 0. -1.
         11    1    3    3    0    0 -0.39682128393E+02  0.18808448912E+02  0.12552375969E+03  0.13298362046E+03  0.51100000000E-03 0. -1.
<mgrwt>
<rscale>  0 0.12500172E+03</rscale>
<asrwt>0</asrwt>
<pdfrwt beam="1">  1       21 0.23236153E-01 0.12500172E+03</pdfrwt>
<pdfrwt beam="2">  1       21 0.39790651E-02 0.12500172E+03</pdfrwt>
<totfact> 0.67506132E+06</totfact>
</mgrwt>
</event>
<event>
 5    1  0.1829803E-009  0.1250001E+03  0.7818608E-02  0.1235069E+00
         21   -1    0    0  502  501  0.00000000000E+00  0.00000000000E+00  0.16021117345E+03  0.16021117345E+03  0.00000000000E+00 0. -1.
         21   -1    0    0  501  502 -0.00000000000E+00 -0.00000000000E+00 -0.24381929891E+02  0.24381929891E+02  0.00000000000E+00 0. -1.
         25    2    1    2    0    0  0.00000000000E+00  0.00000000000E+00  0.13582924356E+03  0.18459310335E+03  0.12500012158E+03 0.  0.
        -11    1    3    3    0    0  0.50559203030E+02 -0.69032659801E+01  0.14621379204E+02  0.53081756021E+02  0.51100000000E-03 0.  1.
         11    1    3    3    0    0 -0.50559203030E+02  0.69032659801E+01  0.12120786436E+03  0.13151134732E+03  0.51100000000E-03 0.  1.
<mgrwt>
<rscale>  0 0.12500012E+03</rscale>
<asrwt>0</asrwt>
<pdfrwt beam="1">  1       21 0.24647872E-01 0.12500012E+03</pdfrwt>
<pdfrwt beam="2">  1       21 0.37510662E-02 0.12500012E+03</pdfrwt>
<totfact> 0.66628292E+06</totfact>
</mgrwt>
</event>
<event>
 5    1  0.1829803E-009  0.1249998E+03  0.7818608E-02  0.1235070E+00
         21   -1    0    0  502  501  0.00000000000E+00  0.00000000000E+00  0.37832737518E+02  0.37832737518E+02  0.00000000000E+00 0. -1.
         21   -1    0    0  501  502 -0.00000000000E+00 -0.00000000000E+00 -0.10325015765E+03  0.10325015765E+03  0.00000000000E+00 0. -1.
         25    2    1    2    0    0  0.00000000000E+00  0.00000000000E+00 -0.65417420130E+02  0.14108289517E+03  0.12499977781E+03 0.  0.
        -11    1    3    3    0    0 -0.33182032011E+02  0.46214097652E+02 -0.61911403648E+02  0.84082173926E+02  0.51100000000E-03 0. -1.
         11    1    3    3    0    0  0.33182032011E+02 -0.46214097652E+02 -0.35060164823E+01  0.57000721241E+02  0.51100000000E-03 0. -1.
<mgrwt>
<rscale>  0 0.12499978E+03</rscale>
<asrwt>0</asrwt>
<pdfrwt beam="1">  1       21 0.58204212E-02 0.12499978E+03</pdfrwt>
<pdfrwt beam="2">  1       21 0.15884640E-01 0.12499978E+03</pdfrwt>
<totfact> 0.71898659E+06</totfact>
</mgrwt>
</event>
<event>
 5    1  0.1829803E-009  0.1250024E+03  0.7818608E-02  0.1235065E+00
         21   -1    0    0  502  501  0.00000000000E+00  0.00000000000E+00  0.22754561771E+02  0.22754561771E+02  0.00000000000E+00 0. -1.
         21   -1    0    0  501  502 -0.00000000000E+00 -0.00000000000E+00 -0.17167556659E+03  0.17167556659E+03  0.00000000000E+00 0. -1.
         25    2    1    2    0    0  0.00000000000E+00  0.00000000000E+00 -0.14892100482E+03  0.19443012836E+03  0.12500243653E+03 0.  0.
        -11    1    3    3    0    0  0.14707948805E+02 -0.60706838673E+02 -0.71067615541E+02  0.94616330507E+02  0.51100000000E-03 0. -1.
         11    1    3    3    0    0 -0.14707948805E+02  0.60706838673E+02 -0.77853389276E+02  0.99813797852E+02  0.51100000000E-03 0. -1.
<mgrwt>
<rscale>  0 0.12500244E+03</rscale>
<asrwt>0</asrwt>
<pdfrwt beam="1">  1       21 0.35007017E-02 0.12500244E+03</pdfrwt>
<pdfrwt beam="2">  1       21 0.26411626E-01 0.12500244E+03</pdfrwt>
<totfact> 0.65529402E+06</totfact>
</mgrwt>
</event>
<event>
 5    1  0.1829803E-009  0.1249996E+03  0.7818608E-02  0.1235070E+00
         21   -1    0    0  502  501  0.00000000000E+00  0.00000000000E+00  0.11971204364E+03  0.11971204364E+03  0.00000000000E+00 0.  1.
         21   -1    0    0  501  502 -0.00000000000E+00 -0.00000000000E+00 -0.32630196562E+02  0.32630196562E+02  0.00000000000E+00 0.  1.
         25    2    1    2    0    0  0.00000000000E+00  0.00000000000E+00  0.87081847083E+02  0.15234224021E+03  0.12499964024E+03 0.  0.
        -11    1    3    3    0    0 -0.37666456844E+02  0.47438578872E+02  0.24776786201E+02  0.65445166905E+02  0.51100000000E-03 0. -1.
         11    1    3    3    0    0  0.37666456844E+02 -0.47438578872E+02  0.62305060882E+02  0.86897073301E+02  0.51100000000E-03 0. -1.
<mgrwt>
<rscale>  0 0.12499964E+03</rscale>
<asrwt>0</asrwt>
<pdfrwt beam="1">  1       21 0.18417237E-01 0.12499964E+03</pdfrwt>
<pdfrwt beam="2">  1       21 0.50200303E-02 0.12499964E+03</pdfrwt>
<totfact> 0.70466844E+06</totfact>
</mgrwt>
</event>
<event>
 5    1  0.1829803E-009  0.1249984E+03  0.7818608E-02  0.1235072E+00
         21   -1    0    0  502  501  0.00000000000E+00  0.00000000000E+00  0.71255069143E+02  0.71255069143E+02  0.00000000000E+00 0.  1.
         21   -1    0    0  501  502 -0.00000000000E+00 -0.00000000000E+00 -0.54819256457E+02  0.54819256457E+02  0.00000000000E+00 0.  1.
         25    2    1    2    0    0  0.00000000000E+00  0.00000000000E+00  0.16435812687E+02  0.12607432560E+03  0.12499839854E+03 0.  0.
        -11    1    3    3    0    0 -0.92094619420E+01  0.35451706902E+02 -0.42859000530E+02  0.56378467860E+02  0.51100000000E-03 0. -1.
         11    1    3    3    0    0  0.92094619420E+01 -0.35451706902E+02  0.59294813216E+02  0.69695857740E+02  0.51100000000E-03 0. -1.
<mgrwt>
<rscale>  0 0.12499840E+03</rscale>
<asrwt>0</asrwt>
<pdfrwt beam="1">  1       21 0.10962318E-01 0.12499840E+03</pdfrwt>
<pdfrwt beam="2">  1       21 0.84337317E-02 0.12499840E+03</pdfrwt>
<totfact> 0.73898816E+06</totfact>
</mgrwt>
</event>
<event>
 5    1  0.1829803E-009  0.1250033E+03  0.7818608E-02  0.1235064E+00
         21   -1    0    0  502  501  0.00000000000E+00  0.00000000000E+00  0.26929178953E+03  0.26929178953E+03  0.00000000000E+00 0. -1.
         21   -1    0    0  501  502 -0.00000000000E+00 -0.00000000000E+00 -0.14506415037E+02  0.14506415037E+02  0.00000000000E+00 0. -1.
         25    2    1    2    0    0  0.00000000000E+00  0.00000000000E+00  0.25478537449E+03  0.28379820457E+03  0.12500333540E+03 0.  0.
        -11    1    3    3    0    0 -0.48202592500E+02 -0.36958942140E+02  0.16083705958E+03  0.17192443998E+03  0.51100000000E-03 0.  1.
         11    1    3    3    0    0  0.48202592500E+02  0.36958942140E+02  0.93948314914E+02  0.11187376459E+03  0.51100000000E-03 0.  1.
<mgrwt>
<rscale>  0 0.12500334E+03</rscale>
<asrwt>0</asrwt>
<pdfrwt beam="1">  1       21 0.41429503E-01 0.12500334E+03</pdfrwt>
<pdfrwt beam="2">  1       21 0.22317563E-02 0.12500334E+03</pdfrwt>
<totfact> 0.56825304E+06</totfact>
</mgrwt>
</event>
<event>
 5    1  0.1829803E-009  0.1250018E+03  0.7818608E-02  0.1235066E+00
         21   -1    0    0  502  501  0.00000000000E+00  0.00000000000E+00  0.15670839897E+02  0.15670839897E+02  0.00000000000E+00 0.  1.
         21   -1    0    0  501  502 -0.00000000000E+00 -0.00000000000E+00 -0.24927598614E+03  0.24927598614E+03  0.00000000000E+00 0.  1.
         25    2    1    2    0    0  0.00000000000E+00  0.00000000000E+00 -0.23360514624E+03  0.26494682603E+03  0.12500182509E+03 0.  0.
        -11    1    3    3    0    0 -0.41376631291E+02 -0.14830804513E+02 -0.22622642869E+02  0.49434424748E+02  0.51100000000E-03 0. -1.
         11    1    3    3    0    0  0.41376631291E+02  0.14830804513E+02 -0.21098250337E+03  0.21551240129E+03  0.51100000000E-03 0. -1.
<mgrwt>
<rscale>  0 0.12500183E+03</rscale>
<asrwt>0</asrwt>
<pdfrwt beam="1">  1       21 0.24108983E-02 0.12500183E+03</pdfrwt>
<pdfrwt beam="2">  1       21 0.38350154E-01 0.12500183E+03</pdfrwt>
<totfact> 0.58496125E+06</totfact>
</mgrwt>
</event>
<event>
 4    1  0.1829803E-009  0.1254532E+03  0.7818608E-02  0.1234363E+00
         21   -1    0    0  502  501  0.00000000000E+00  0.00000000000E+00  0.11579845433E+03  0.11579845433E+03  0.00000000000E+00 0.  1.
         21   -1    0    0  501  502 -0.00000000000E+00 -0.00000000000E+00 -0.33978210463E+02  0.33978210463E+02  0.00000000000E+00 0.  1.
        -11    1    1    2    0    0 -0.18412773683E+02  0.15310061369E+02  0.11012659231E+03  0.11270002018E+03  0.51100000000E-03 0. -1.
         11    1    1    2    0    0  0.18412773683E+02 -0.15310061369E+02 -0.28306348441E+02  0.37076644618E+02  0.51100000000E-03 0. -1.
<mgrwt>
<rscale>  0 0.12545317E+03</rscale>
<asrwt>0</asrwt>
<pdfrwt beam="1">  1       21 0.17815147E-01 0.12545317E+03</pdfrwt>
<pdfrwt beam="2">  1       21 0.52274171E-02 0.12545317E+03</pdfrwt>
<totfact> 0.69976684E+06</totfact>
</mgrwt>
</event>
<event>
 4    1  0.1829803E-009  0.1250606E+03  0.7818608E-02  0.1234975E+00
         21   -1    0    0  502  501  0.00000000000E+00  0.00000000000E+00  0.13968668035E+03  0.13968668035E+03  0.00000000000E+00 0.  1.
         21   -1    0    0  501  502 -0.00000000000E+00 -0.00000000000E+00 -0.27991504418E+02  0.27991504418E+02  0.00000000000E+00 0.  1.
        -11    1    1    2    0    0  0.11509383112E+01 -0.23064573674E+02 -0.22064498064E+02  0.31939650794E+02  0.51100000000E-03 0.  1.
         11    1    1    2    0    0 -0.11509383112E+01  0.23064573674E+02  0.13375967399E+03  0.13573853397E+03  0.51100000000E-03 0.  1.
<mgrwt>
<rscale>  0 0.12506063E+03</rscale>
<asrwt>0</asrwt>
<pdfrwt beam="1">  1       21 0.21490258E-01 0.12506063E+03</pdfrwt>
<pdfrwt beam="2">  1       21 0.43063854E-02 0.12506063E+03</pdfrwt>
<totfact> 0.68487714E+06</totfact>
</mgrwt>
</event>
<event>
 5    1  0.1829803E-009  0.1249992E+03  0.7818608E-02  0.1235070E+00
         21   -1    0    0  502  501  0.00000000000E+00  0.00000000000E+00  0.65642425510E+02  0.65642425510E+02  0.00000000000E+00 0. -1.
         21   -1    0    0  501  502 -0.00000000000E+00 -0.00000000000E+00 -0.59507292736E+02  0.59507292736E+02  0.00000000000E+00 0. -1.
         25    2    1    2    0    0  0.00000000000E+00  0.00000000000E+00  0.61351327743E+01  0.12514971825E+03  0.12499924849E+03 0.  0.
        -11    1    3    3    0    0 -0.62444881984E+02 -0.25298458337E+01  0.24037263778E+01  0.62542316128E+02  0.51100000000E-03 0. -1.
         11    1    3    3    0    0  0.62444881984E+02  0.25298458337E+01  0.37314063965E+01  0.62607402117E+02  0.51100000000E-03 0. -1.
<mgrwt>
<rscale>  0 0.12499925E+03</rscale>
<asrwt>0</asrwt>
<pdfrwt beam="1">  1       21 0.10098835E-01 0.12499925E+03</pdfrwt>
<pdfrwt beam="2">  1       21 0.91549681E-02 0.12499925E+03</pdfrwt>
<totfact> 0.74024784E+06</totfact>
</mgrwt>
</event>
<event>
 5    1  0.1829803E-009  0.1250004E+03  0.7818608E-02  0.1235069E+00
         21   -1    0    0  502  501  0.00000000000E+00  0.00000000000E+00  0.18192432502E+03  0.18192432502E+03  0.00000000000E+00 0.  1.
         21   -1    0    0  501  502 -0.00000000000E+00 -0.00000000000E+00 -0.21471984107E+02  0.21471984107E+02  0.00000000000E+00 0.  1.
         25    2    1    2    0    0  0.00000000000E+00  0.00000000000E+00  0.16045234091E+03  0.20339630913E+03  0.12500041945E+03 0.  0.
        -11    1    3    3    0    0  0.58432075142E+02 -0.13779142587E+02  0.51944187019E+02  0.79387472193E+02  0.51100000000E-03 0. -1.
         11    1    3    3    0    0 -0.58432075142E+02  0.13779142587E+02  0.10850815389E+03  0.12400883693E+03  0.51100000000E-03 0. -1.
<mgrwt>
<rscale>  0 0.12500042E+03</rscale>
<asrwt>0</asrwt>
<pdfrwt beam="1">  1       21 0.27988357E-01 0.12500042E+03</pdfrwt>
<pdfrwt beam="2">  1       21 0.33033823E-02 0.12500042E+03</pdfrwt>
<totfact> 0.64560402E+06</totfact>
</mgrwt>
</event>
<event>
 5    1  0.1829803E-009  0.1250015E+03  0.7818608E-02  0.1235067E+00
         21   -1    0    0  502  501  0.00000000000E+00  0.00000000000E+00  0.18976127996E+03  0.18976127996E+03  0.00000000000E+00 0. -1.
         21   -1    0    0  501  502 -0.00000000000E+00 -0.00000000000E+00 -0.20585579517E+02  0.20585579517E+02  0.00000000000E+00 0. -1.
         25    2    1    2    0    0  0.00000000000E+00  0.00000000000E+00  0.16917570044E+03  0.21034685947E+03  0.12500153468E+03 0.  0.
        -11    1    3    3    0    0  0.30519466613E+02  0.48319492187E+02  0.42012680373E+02  0.70931491454E+02  0.51100000000E-03 0. -1.
         11    1    3    3    0    0 -0.30519466613E+02 -0.48319492187E+02  0.12716302007E+03  0.13941536802E+03  0.51100000000E-03 0. -1.
<mgrwt>
<rscale>  0 0.12500153E+03</rscale>
<asrwt>0</asrwt>
<pdfrwt beam="1">  1       21 0.29194042E-01 0.12500153E+03</pdfrwt>
<pdfrwt beam="2">  1       21 0.31670124E-02 0.12500153E+03</pdfrwt>
<totfact> 0.63820584E+06</totfact>
</mgrwt>
</event>
<event>
 5    1  0.1829803E-009  0.1250083E+03  0.7818608E-02  0.1235056E+00
         21   -1    0    0  502  501  0.00000000000E+00  0.00000000000E+00  0.82039743034E+02  0.82039743034E+02  0.00000000000E+00 0.  1.
         21   -1    0    0  501  502 -0.00000000000E+00 -0.00000000000E+00 -0.47620454362E+02  0.47620454362E+02  0.00000000000E+00 0.  1.
         25    2    1    2    0    0  0.00000000000E+00  0.00000000000E+00  0.34419288671E+02  0.12966019740E+03  0.12500831715E+03 0.  0.
        -11    1    3    3    0    0  0.50155337668E+02 -0.12780911136E+02  0.53554440720E+02  0.74478102199E+02  0.51100000000E-03 0. -1.
         11    1    3    3    0    0 -0.50155337668E+02  0.12780911136E+02 -0.19135152049E+02  0.55182095197E+02  0.51100000000E-03 0. -1.
<mgrwt>
<rscale>  0 0.12500832E+03</rscale>
<asrwt>0</asrwt>
<pdfrwt beam="1">  1       21 0.12621499E-01 0.12500832E+03</pdfrwt>
<pdfrwt beam="2">  1       21 0.73262238E-02 0.12500832E+03</pdfrwt>
<totfact> 0.73394779E+06</totfact>
</mgrwt>
</event>
<event>
 5    1  0.1829803E-009  0.1249925E+03  0.7818608E-02  0.1235081E+00
         21   -1    0    0  502  501  0.00000000000E+00  0.00000000000E+00  0.41570921434E+02  0.41570921434E+02  0.00000000000E+00 0. -1.
         21   -1    0    0  501  502 -0.00000000000E+00 -0.00000000000E+00 -0.93954669929E+02  0.93954669929E+02  0.00000000000E+00 0. -1.
         25    2    1    2    0    0  0.00000000000E+00  0.00000000000E+00 -0.52383748495E+02  0.13552559136E+03  0.12499251501E+03 0.  0.
        -11    1    3    3    0    0  0.76129427561E+01  0.17498953107E+02  0.38334578515E+02  0.42821842177E+02  0.51100000000E-03 0. -1.
         11    1    3    3    0    0 -0.76129427561E+01 -0.17498953107E+02 -0.90718327010E+02  0.92703749186E+02  0.51100000000E-03 0. -1.
<mgrwt>
<rscale>  0 0.12499252E+03</rscale>
<asrwt>0</asrwt>
<pdfrwt beam="1">  1       21 0.63955264E-02 0.12499252E+03</pdfrwt>
<pdfrwt beam="2">  1       21 0.14454564E-01 0.12499252E+03</pdfrwt>
<totfact> 0.72640821E+06</totfact>
</mgrwt>
</event>
<event>
 5    1  0.1829803E-009  0.1250005E+03  0.7818608E-02  0.1235069E+00
         21   -1    0    0  502  501  0.00000000000E+00  0.00000000000E+00  0.56479879280E+02  0.56479879280E+02  0.00000000000E+00 0.  1.
         21   -1    0    0  501  502 -0.00000000000E+00 -0.00000000000E+00 -0.69162340422E+02  0.69162340422E+02  0.00000000000E+00 0.  1.
         25    2    1    2    0    0  0.00000000000E+00  0.00000000000E+00 -0.12682461142E+02  0.12564221970E+03  0.12500049020E+03 0.  0.
        -11    1    3    3    0    0  0.47913286128E+02  0.32782966965E+02  0.16926580128E+02  0.60472431948E+02  0.51100000000E-03 0.  1.
         11    1    3    3    0    0 -0.47913286128E+02 -0.32782966965E+02 -0.29609041270E+02  0.65169787753E+02  0.51100000000E-03 0.  1.
<mgrwt>
<rscale>  0 0.12500049E+03</rscale>
<asrwt>0</asrwt>
<pdfrwt beam="1">  1       21 0.86892122E-02 0.12500049E+03</pdfrwt>
<pdfrwt beam="2">  1       21 0.10640360E-01 0.12500049E+03</pdfrwt>
<totfact> 0.73954642E+06</totfact>
</mgrwt>
</event>
<event>
 5    1  0.1829803E-009  0.1250001E+03  0.7818608E-02  0.1235069E+00
         21   -1    0    0  502  501  0.00000000000E+00  0.00000000000E+00  0.15201054321E+02  0.15201054321E+02  0.00000000000E+00 0. -1.
         21   -1    0    0  501  502 -0.00000000000E+00 -0.00000000000E+00 -0.25697252909E+03  0.25697252909E+03  0.00000000000E+00 0. -1.
         25    2    1    2    0    0  0.00000000000E+00  0.00000000000E+00 -0.24177147477E+03  0.27217358342E+03  0.12500005398E+03 0.  0.
        -11    1    3    3    0    0 -0.50692629725E+02 -0.28815690737E+02 -0.71898547549E+02  0.92571528458E+02  0.51100000000E-03 0.  1.
         11    1    3    3    0    0  0.50692629725E+02  0.28815690737E+02 -0.16987292722E+03  0.17960205496E+03  0.51100000000E-03 0.  1.
<mgrwt>
<rscale>  0 0.12500005E+03</rscale>
<asrwt>0</asrwt>
<pdfrwt beam="1">  1       21 0.23386238E-02 0.12500005E+03</pdfrwt>
<pdfrwt beam="2">  1       21 0.39534234E-01 0.12500005E+03</pdfrwt>
<totfact> 0.57850868E+06</totfact>
</mgrwt>
</event>
<event>
 5    1  0.1829803E-009  0.1250060E+03  0.7818608E-02  0.1235060E+00
         21   -1    0    0  502  501  0.00000000000E+00  0.00000000000E+00  0.29941858486E+02  0.29941858486E+02  0.00000000000E+00 0.  1.
         21   -1    0    0  501  502 -0.00000000000E+00 -0.00000000000E+00 -0.13047360045E+03  0.13047360045E+03  0.00000000000E+00 0.  1.
         25    2    1    2    0    0  0.00000000000E+00  0.00000000000E+00 -0.10053174197E+03  0.16041545894E+03  0.12500595315E+03 0.  0.
        -11    1    3    3    0    0  0.35515986077E+02 -0.44575736623E+02 -0.83189509762E+02  0.10084084538E+03  0.51100000000E-03 0. -1.
         11    1    3    3    0    0 -0.35515986077E+02  0.44575736623E+02 -0.17342232206E+02  0.59574613559E+02  0.51100000000E-03 0. -1.
<mgrwt>
<rscale>  0 0.12500595E+03</rscale>
<asrwt>0</asrwt>
<pdfrwt beam="1">  1       21 0.46064397E-02 0.12500595E+03</pdfrwt>
<pdfrwt beam="2">  1       21 0.20072862E-01 0.12500595E+03</pdfrwt>
<totfact> 0.69458254E+06</totfact>
</mgrwt>
</event>
<event>
 5    1  0.1829803E-009  0.1249956E+03  0.7818608E-02  0.1235076E+00
         21   -1    0    0  502  501  0.00000000000E+00  0.00000000000E+00  0.86762739089E+02  0.86762739089E+02  0.00000000000E+00 0.  1.
         21   -1    0    0  501  502 -0.00000000000E+00 -0.00000000000E+00 -0.45019020043E+02  0.45019020043E+02  0.00000000000E+00 0.  1.
         25    2    1    2    0    0  0.00000000000E+00  0.00000000000E+00  0.41743719046E+02  0.13178175913E+03  0.12499557576E+03 0.  0.
        -11    1    3    3    0    0  0.33619111525E+02  0.73089900154E+01 -0.34136570318E+02  0.48466188504E+02  0.51100000000E-03 0.  1.
         11    1    3    3    0    0 -0.33619111525E+02 -0.73089900154E+01  0.75880289364E+02  0.83315570627E+02  0.51100000000E-03 0.  1.
<mgrwt>
<rscale>  0 0.12499558E+03</rscale>
<asrwt>0</asrwt>
<pdfrwt beam="1">  1       21 0.13348114E-01 0.12499558E+03</pdfrwt>
<pdfrwt beam="2">  1       21 0.69260031E-02 0.12499558E+03</pdfrwt>
<totfact> 0.73133770E+06</totfact>
</mgrwt>
</event>
<event>
 5    1  0.1829803E-009  0.1249999E+03  0.7818608E-02  0.1235069E+00
         21   -1    0    0  502  501  0.00000000000E+00  0.00000000000E+00  0.41380587480E+03  0.41380587480E+03  0.00000000000E+00 0.  1.
         21   -1    0    0  501  502 -0.00000000000E+00 -0.00000000000E+00 -0.94397960263E+01  0.94397960263E+01  0.00000000000E+00 0.  1.
         25    2    1    2    0    0  0.00000000000E+00  0.00000000000E+00  0.40436607877E+03  0.42324567082E+03  0.12499988884E+03 0.  0.
        -11    1    3    3    0    0  0.10708661229E+02 -0.60093877881E+02  0.15671848965E+03  0.16818630914E+03  0.51100000000E-03 0. -1.
         11    1    3    3    0    0 -0.10708661229E+02  0.60093877881E+02  0.24764758912E+03  0.25505936168E+03  0.51100000000E-03 0. -1.
<mgrwt>
<rscale>  0 0.12499989E+03</rscale>
<asrwt>0</asrwt>
<pdfrwt beam="1">  1       21 0.63662428E-01 0.12499989E+03</pdfrwt>
<pdfrwt beam="2">  1       21 0.14522766E-02 0.12499989E+03</pdfrwt>
<totfact> 0.46536901E+06</totfact>
</mgrwt>
</event>
<event>
 5    1  0.1829803E-009  0.1249983E+03  0.7818608E-02  0.1235072E+00
         21   -1    0    0  502  501  0.00000000000E+00  0.00000000000E+00  0.44761145860E+02  0.44761145860E+02  0.00000000000E+00 0.  1.
         21   -1    0    0  501  502 -0.00000000000E+00 -0.00000000000E+00 -0.87266445842E+02  0.87266445842E+02  0.00000000000E+00 0.  1.
         25    2    1    2    0    0  0.00000000000E+00  0.00000000000E+00 -0.42505299982E+02  0.13202759170E+03  0.12499833777E+03 0.  0.
        -11    1    3    3    0    0 -0.74247329292E+01  0.33502053033E+02  0.33921155471E+02  0.48251000044E+02  0.51100000000E-03 0.  1.
         11    1    3    3    0    0  0.74247329292E+01 -0.33502053033E+02 -0.76426455453E+02  0.83776591658E+02  0.51100000000E-03 0.  1.
<mgrwt>
<rscale>  0 0.12499834E+03</rscale>
<asrwt>0</asrwt>
<pdfrwt beam="1">  1       21 0.68863303E-02 0.12499834E+03</pdfrwt>
<pdfrwt beam="2">  1       21 0.13425607E-01 0.12499834E+03</pdfrwt>
<totfact> 0.73095628E+06</totfact>
</mgrwt>
</event>
<event>
 5    1  0.1829803E-009  0.1250002E+03  0.7818608E-02  0.1235069E+00
         21   -1    0    0  502  501  0.00000000000E+00  0.00000000000E+00  0.24320741924E+03  0.24320741924E+03  0.00000000000E+00 0.  1.
         21   -1    0    0  501  502 -0.00000000000E+00 -0.00000000000E+00 -0.16061451527E+02  0.16061451527E+02  0.00000000000E+00 0.  1.
         25    2    1    2    0    0  0.00000000000E+00  0.00000000000E+00  0.22714596771E+03  0.25926887077E+03  0.12500022680E+03 0.  0.
        -11    1    3    3    0    0  0.34799545589E+02 -0.50941083308E+02  0.13434159216E+03  0.14782985397E+03  0.51100000000E-03 0.  1.
         11    1    3    3    0    0 -0.34799545589E+02  0.50941083308E+02  0.92804375556E+02  0.11143901680E+03  0.51100000000E-03 0.  1.
<mgrwt>
<rscale>  0 0.12500023E+03</rscale>
<asrwt>0</asrwt>
<pdfrwt beam="1">  1       21 0.37416523E-01 0.12500023E+03</pdfrwt>
<pdfrwt beam="2">  1       21 0.24709927E-02 0.12500023E+03</pdfrwt>
<totfact> 0.59016013E+06</totfact>
</mgrwt>
</event>
<event>
 5    1  0.1829803E-009  0.1250022E+03  0.7818608E-02  0.1235066E+00
         21   -1    0    0  502  501  0.00000000000E+00  0.00000000000E+00  0.16021331783E+03  0.16021331783E+03  0.00000000000E+00 0. -1.
         21   -1    0    0  501  502 -0.00000000000E+00 -0.00000000000E+00 -0.24382422221E+02  0.24382422221E+02  0.00000000000E+00 0. -1.
         25    2    1    2    0    0  0.00000000000E+00  0.00000000000E+00  0.13583089561E+03  0.18459574005E+03  0.12500222015E+03 0.  0.
        -11    1    3    3    0    0 -0.53923550447E+02  0.13374850544E+01  0.21290432689E+02  0.57989832586E+02  0.51100000000E-03 0.  1.
         11    1    3    3    0    0  0.53923550447E+02 -0.13374850544E+01  0.11454046292E+03  0.12660590747E+03  0.51100000000E-03 0.  1.
<mgrwt>
<rscale>  0 0.12500222E+03</rscale>
<asrwt>0</asrwt>
<pdfrwt beam="1">  1       21 0.24648202E-01 0.12500222E+03</pdfrwt>
<pdfrwt beam="2">  1       21 0.37511420E-02 0.12500222E+03</pdfrwt>
<totfact> 0.66624449E+06</totfact>
</mgrwt>
</event>
<event>
 5    1  0.1829803E-009  0.1250010E+03  0.7818608E-02  0.1235068E+00
         21   -1    0    0  502  501  0.00000000000E+00  0.00000000000E+00  0.41076671282E+02  0.41076671282E+02  0.00000000000E+00 0. -1.
         21   -1    0    0  501  502 -0.00000000000E+00 -0.00000000000E+00 -0.95098023687E+02  0.95098023687E+02  0.00000000000E+00 0. -1.
         25    2    1    2    0    0  0.00000000000E+00  0.00000000000E+00 -0.54021352405E+02  0.13617469497E+03  0.12500096413E+03 0.  0.
        -11    1    3    3    0    0 -0.17753443286E+02  0.31109972537E+01 -0.92205381303E+02  0.93950494378E+02  0.51100000000E-03 0.  1.
         11    1    3    3    0    0  0.17753443286E+02 -0.31109972537E+01  0.38184028898E+02  0.42224200591E+02  0.51100000000E-03 0.  1.
<mgrwt>
<rscale>  0 0.12500096E+03</rscale>
<asrwt>0</asrwt>
<pdfrwt beam="1">  1       21 0.63194879E-02 0.12500096E+03</pdfrwt>
<pdfrwt beam="2">  1       21 0.14630465E-01 0.12500096E+03</pdfrwt>
<totfact> 0.72539523E+06</totfact>
</mgrwt>
</event>
<event>
 5    1  0.1829803E-009  0.1250008E+03  0.7818608E-02  0.1235068E+00
         21   -1    0    0  502  501  0.00000000000E+00  0.00000000000E+00  0.46923811594E+02  0.46923811594E+02  0.00000000000E+00 0. -1.
         21   -1    0    0  501  502 -0.00000000000E+00 -0.00000000000E+00 -0.83247675360E+02  0.83247675360E+02  0.00000000000E+00 0. -1.
         25    2    1    2    0    0  0.00000000000E+00  0.00000000000E+00 -0.36323863766E+02  0.13017148695E+03  0.12500077175E+03 0.  0.
        -11    1    3    3    0    0  0.87251196994E+01 -0.42344943329E+02  0.28839037907E+02  0.51970299662E+02  0.51100000000E-03 0. -1.
         11    1    3    3    0    0 -0.87251196994E+01  0.42344943329E+02 -0.65162901672E+02  0.78201187292E+02  0.51100000000E-03 0. -1.
<mgrwt>
<rscale>  0 0.12500077E+03</rscale>
<asrwt>0</asrwt>
<pdfrwt beam="1">  1       21 0.72190480E-02 0.12500077E+03</pdfrwt>
<pdfrwt beam="2">  1       21 0.12807335E-01 0.12500077E+03</pdfrwt>
<totfact> 0.73340560E+06</totfact>
</mgrwt>
</event>
<event>
 5    1  0.1829803E-009  0.1249888E+03  0.7818608E-02  0.1235087E+00
         21   -1    0    0  502  501  0.00000000000E+00  0.00000000000E+00  0.45353925764E+03  0.45353925764E+03  0.00000000000E+00 0.  1.
         21   -1    0    0  501  502 -0.00000000000E+00 -0.00000000000E+00 -0.86112753626E+01  0.86112753626E+01  0.00000000000E+00 0.  1.
         25    2    1    2    0    0  0.00000000000E+00  0.00000000000E+00  0.44492798228E+03  0.46215053300E+03  0.12498882246E+03 0.  0.
        -11    1    3    3    0    0  0.60993428468E+02  0.37842298476E+01  0.27082016018E+03  0.27762938943E+03  0.51100000000E-03 0.  1.
         11    1    3    3    0    0 -0.60993428468E+02 -0.37842298476E+01  0.17410782210E+03  0.18452114358E+03  0.51100000000E-03 0.  1.
<mgrwt>
<rscale>  0 0.12498882E+03</rscale>
<asrwt>0</asrwt>
<pdfrwt beam="1">  1       21 0.69775252E-01 0.12498882E+03</pdfrwt>
<pdfrwt beam="2">  1       21 0.13248119E-02 0.12498882E+03</pdfrwt>
<totfact> 0.44186341E+06</totfact>
</mgrwt>
</event>
<event>
 5    1  0.1829803E-009  0.1250001E+03  0.7818608E-02  0.1235069E+00
         21   -1    0    0  502  501  0.00000000000E+00  0.00000000000E+00  0.50798573484E+02  0.50798573484E+02  0.00000000000E+00 0. -1.
         21   -1    0    0  501  502 -0.00000000000E+00 -0.00000000000E+00 -0.76897026723E+02  0.76897026723E+02  0.00000000000E+00 0. -1.
         25    2    1    2    0    0  0.00000000000E+00  0.00000000000E+00 -0.26098453239E+02  0.12769560021E+03  0.12500014820E+03 0.  0.
        -11    1    3    3    0    0 -0.15476003139E+02 -0.38945913605E+01 -0.74780622588E+02  0.76464475607E+02  0.51100000000E-03 0.  1.
         11    1    3    3    0    0  0.15476003139E+02  0.38945913605E+01  0.48682169349E+02  0.51231124600E+02  0.51100000000E-03 0.  1.
<mgrwt>
<rscale>  0 0.12500015E+03</rscale>
<asrwt>0</asrwt>
<pdfrwt beam="1">  1       21 0.78151652E-02 0.12500015E+03</pdfrwt>
<pdfrwt beam="2">  1       21 0.11830312E-01 0.12500015E+03</pdfrwt>
<totfact> 0.73674443E+06</totfact>
</mgrwt>
</event>
<event>
 5    1  0.1829803E-009  0.1250041E+03  0.7818608E-02  0.1235063E+00
         21   -1    0    0  502  501  0.00000000000E+00  0.00000000000E+00  0.30515010310E+03  0.30515010310E+03  0.00000000000E+00 0. -1.
         21   -1    0    0  501  502 -0.00000000000E+00 -0.00000000000E+00 -0.12801913496E+02  0.12801913496E+02  0.00000000000E+00 0. -1.
         25    2    1    2    0    0  0.00000000000E+00  0.00000000000E+00  0.29234818961E+03  0.31795201660E+03  0.12500408350E+03 0.  0.
        -11    1    3    3    0    0  0.38434300817E+02  0.32999277756E+02  0.53053081422E+02  0.73353781500E+02  0.51100000000E-03 0.  1.
         11    1    3    3    0    0 -0.38434300817E+02 -0.32999277756E+02  0.23929510819E+03  0.24459823510E+03  0.51100000000E-03 0.  1.
<mgrwt>
<rscale>  0 0.12500408E+03</rscale>
<asrwt>0</asrwt>
<pdfrwt beam="1">  1       21 0.46946164E-01 0.12500408E+03</pdfrwt>
<pdfrwt beam="2">  1       21 0.19695254E-02 0.12500408E+03</pdfrwt>
<totfact> 0.53990505E+06</totfact>
</mgrwt>
</event>
<event>
 5    1  0.1829803E-009  0.1249919E+03  0.7818608E-02  0.1235082E+00
         21   -1    0    0  502  501  0.00000000000E+00  0.00000000000E+00  0.38700074329E+03  0.38700074329E+03  0.00000000000E+00 0.  1.
         21   -1    0    0  501  502 -0.00000000000E+00 -0.00000000000E+00 -0.10092343608E+02  0.10092343608E+02  0.00000000000E+00 0.  1.
         25    2    1    2    0    0  0.00000000000E+00  0.00000000000E+00  0.37690839968E+03  0.39709308690E+03  0.12499191139E+03 0.  0.
        -11    1    3    3    0    0  0.13118376982E+02 -0.60947215746E+02  0.17457359699E+03  0.18537150721E+03  0.51100000000E-03 0. -1.
         11    1    3    3    0    0 -0.13118376982E+02  0.60947215746E+02  0.20233480270E+03  0.21172157969E+03  0.51100000000E-03 0. -1.
<mgrwt>
<rscale>  0 0.12499191E+03</rscale>
<asrwt>0</asrwt>
<pdfrwt beam="1">  1       21 0.59538564E-01 0.12499191E+03</pdfrwt>
<pdfrwt beam="2">  1       21 0.15526685E-02 0.12499191E+03</pdfrwt>
<totfact> 0.48244521E+06</totfact>
</mgrwt>
</event>
<event>
 5    1  0.1829803E-009  0.1249981E+03  0.7818608E-02  0.1235072E+00
         21   -1    0    0  502  501  0.00000000000E+00  0.00000000000E+00  0.29009977330E+02  0.29009977330E+02  0.00000000000E+00 0.  1.
         21   -1    0    0  501  502 -0.00000000000E+00 -0.00000000000E+00 -0.13464793258E+03  0.13464793258E+03  0.00000000000E+00 0.  1.
         25    2    1    2    0    0  0.00000000000E+00  0.00000000000E+00 -0.10563795525E+03  0.16365790991E+03  0.12499813553E+03 0.  0.
        -11    1    3    3    0    0  0.11313413255E+02  0.53223539089E+02 -0.12562096539E+02  0.55843931652E+02  0.51100000000E-03 0.  1.
         11    1    3    3    0    0 -0.11313413255E+02 -0.53223539089E+02 -0.93075858709E+02  0.10781397826E+03  0.51100000000E-03 0.  1.
<mgrwt>
<rscale>  0 0.12499814E+03</rscale>
<asrwt>0</asrwt>
<pdfrwt beam="1">  1       21 0.44630734E-02 0.12499814E+03</pdfrwt>
<pdfrwt beam="2">  1       21 0.20715067E-01 0.12499814E+03</pdfrwt>
<totfact> 0.69078551E+06</totfact>
</mgrwt>
</event>
<event>
 5    1  0.1829803E-009  0.1249965E+03  0.7818608E-02  0.1235075E+00
         21   -1    0    0  502  501  0.00000000000E+00  0.00000000000E+00  0.51032766519E+03  0.51032766519E+03  0.00000000000E+00 0.  1.
         21   -1    0    0  501  502 -0.00000000000E+00 -0.00000000000E+00 -0.76539681520E+01  0.76539681520E+01  0.00000000000E+00 0.  1.
         25    2    1    2    0    0  0.00000000000E+00  0.00000000000E+00  0.50267369704E+03  0.51798163334E+03  0.12499650709E+03 0.  0.
        -11    1    3    3    0    0 -0.59869194026E+02  0.16197182446E+02  0.21940876278E+03  0.22800630319E+03  0.51100000000E-03 0. -1.
         11    1    3    3    0    0  0.59869194026E+02 -0.16197182446E+02  0.28326493426E+03  0.28997533015E+03  0.51100000000E-03 0. -1.
<mgrwt>
<rscale>  0 0.12499651E+03</rscale>
<asrwt>0</asrwt>
<pdfrwt beam="1">  1       21 0.78511922E-01 0.12499651E+03</pdfrwt>
<pdfrwt beam="2">  1       21 0.11775340E-02 0.12499651E+03</pdfrwt>
<totfact> 0.41088961E+06</totfact>
</mgrwt>
</event>
<event>
 5    1  0.1829803E-009  0.1249657E+03  0.7818608E-02  0.1235123E+00
         21   -1    0    0  502  501  0.00000000000E+00  0.00000000000E+00  0.92794661550E+02  0.92794661550E+02  0.00000000000E+00 0. -1.
         21   -1    0    0  501  502 -0.00000000000E+00 -0.00000000000E+00 -0.42072535518E+02  0.42072535518E+02  0.00000000000E+00 0. -1.
         25    2    1    2    0    0  0.00000000000E+00  0.00000000000E+00  0.50722126032E+02  0.13486719707E+03  0.12496570240E+03 0.  0.
        -11    1    3    3    0    0 -0.45705076584E+01 -0.20435400473E+02  0.88894951875E+02  0.91328021997E+02  0.51100000000E-03 0.  1.
         11    1    3    3    0    0  0.45705076584E+01  0.20435400473E+02 -0.38172825843E+02  0.43539175071E+02  0.51100000000E-03 0.  1.
<mgrwt>
<rscale>  0 0.12496570E+03</rscale>
<asrwt>0</asrwt>
<pdfrwt beam="1">  1       21 0.14276102E-01 0.12496570E+03</pdfrwt>
<pdfrwt beam="2">  1       21 0.64726978E-02 0.12496570E+03</pdfrwt>
<totfact> 0.72777706E+06</totfact>
</mgrwt>
</event>
<event>
 5    1  0.1829803E-009  0.1250002E+03  0.7818608E-02  0.1235069E+00
         21   -1    0    0  502  501  0.00000000000E+00  0.00000000000E+00  0.18603327207E+03  0.18603327207E+03  0.00000000000E+00 0.  1.
         21   -1    0    0  501  502 -0.00000000000E+00 -0.00000000000E+00 -0.20997667793E+02  0.20997667793E+02  0.00000000000E+00 0.  1.
         25    2    1    2    0    0  0.00000000000E+00  0.00000000000E+00  0.16503560428E+03  0.20703093987E+03  0.12500023753E+03 0.  0.
        -11    1    3    3    0    0  0.59484219298E+02 -0.15736755169E+02  0.64355888492E+02  0.89037622344E+02  0.51100000000E-03 0.  1.
         11    1    3    3    0    0 -0.59484219298E+02  0.15736755169E+02  0.10067971579E+03  0.11799331752E+03  0.51100000000E-03 0.  1.
<mgrwt>
<rscale>  0 0.12500024E+03</rscale>
<asrwt>0</asrwt>
<pdfrwt beam="1">  1       21 0.28620502E-01 0.12500024E+03</pdfrwt>
<pdfrwt beam="2">  1       21 0.32304106E-02 0.12500024E+03</pdfrwt>
<totfact> 0.64172890E+06</totfact>
</mgrwt>
</event>
<event>
 5    1  0.1829803E-009  0.1249997E+03  0.7818608E-02  0.1235070E+00
         21   -1    0    0  502  501  0.00000000000E+00  0.00000000000E+00  0.27874508490E+03  0.27874508490E+03  0.00000000000E+00 0.  1.
         21   -1    0    0  501  502 -0.00000000000E+00 -0.00000000000E+00 -0.14013625216E+02  0.14013625216E+02  0.00000000000E+00 0.  1.
         25    2    1    2    0    0  0.00000000000E+00  0.00000000000E+00  0.26473145969E+03  0.29275871012E+03  0.12499966641E+03 0.  0.
        -11    1    3    3    0    0 -0.42014410875E+02 -0.32595651253E+02  0.20928222589E+03  0.21593225159E+03  0.51100000000E-03 0.  1.
         11    1    3    3    0    0  0.42014410875E+02  0.32595651253E+02  0.55449233797E+02  0.76826458533E+02  0.51100000000E-03 0.  1.
<mgrwt>
<rscale>  0 0.12499967E+03</rscale>
<asrwt>0</asrwt>
<pdfrwt beam="1">  1       21 0.42883855E-01 0.12499967E+03</pdfrwt>
<pdfrwt beam="2">  1       21 0.21559426E-02 0.12499967E+03</pdfrwt>
<totfact> 0.56063845E+06</totfact>
</mgrwt>
</event>
<event>
 5    1  0.1829803E-009  0.1249952E+03  0.7818608E-02  0.1235077E+00
         21   -1    0    0  502  501  0.00000000000E+00  0.00000000000E+00  0.43529479905E+02  0.43529479905E+02  0.00000000000E+00 0. -1.
         21   -1    0    0  501  502 -0.00000000000E+00 -0.00000000000E+00 -0.89731162313E+02  0.89731162313E+02  0.00000000000E+00 0. -1.
         25    2    1    2    0    0  0.00000000000E+00  0.00000000000E+00 -0.46201682408E+02  0.13326064222E+03  0.12499521314E+03 0.  0.
        -11    1    3    3    0    0 -0.42818477809E+02 -0.43827648993E+02 -0.99712080590E+01  0.62078255844E+02  0.51100000000E-03 0.  1.
         11    1    3    3    0    0  0.42818477809E+02  0.43827648993E+02 -0.36230474349E+02  0.71182386375E+02  0.51100000000E-03 0.  1.
<mgrwt>
<rscale>  0 0.12499521E+03</rscale>
<asrwt>0</asrwt>
<pdfrwt beam="1">  1       21 0.66968431E-02 0.12499521E+03</pdfrwt>
<pdfrwt beam="2">  1       21 0.13804794E-01 0.12499521E+03</pdfrwt>
<totfact> 0.72936519E+06</totfact>
</mgrwt>
</event>
<event>
 4    1  0.1829803E-009  0.1250804E+03  0.7818608E-02  0.1234944E+00
         21   -1    0    0  502  501  0.00000000000E+00  0.00000000000E+00  0.12875541292E+02  0.12875541292E+02  0.00000000000E+00 0. -1.
         21   -1    0    0  501  502 -0.00000000000E+00 -0.00000000000E+00 -0.30377583110E+03  0.30377583110E+03  0.00000000000E+00 0. -1.
        -11    1    1    2    0    0  0.47284660541E+02 -0.30753470631E+02 -0.77066343796E+02  0.95503070237E+02  0.51100000000E-03 0. -1.
         11    1    1    2    0    0 -0.47284660541E+02  0.30753470631E+02 -0.21383394601E+03  0.22114830215E+03  0.51100000000E-03 0. -1.
<mgrwt>
<rscale>  0 0.12508043E+03</rscale>
<asrwt>0</asrwt>
<pdfrwt beam="1">  1       21 0.19808526E-02 0.12508043E+03</pdfrwt>
<pdfrwt beam="2">  1       21 0.46734742E-01 0.12508043E+03</pdfrwt>
<totfact> 0.53990734E+06</totfact>
</mgrwt>
</event>
<event>
 5    1  0.1829803E-009  0.1249991E+03  0.7818608E-02  0.1235071E+00
         21   -1    0    0  502  501  0.00000000000E+00  0.00000000000E+00  0.18433216628E+03  0.18433216628E+03  0.00000000000E+00 0. -1.
         21   -1    0    0  501  502 -0.00000000000E+00 -0.00000000000E+00 -0.21191075390E+02  0.21191075390E+02  0.00000000000E+00 0. -1.
         25    2    1    2    0    0  0.00000000000E+00  0.00000000000E+00  0.16314109089E+03  0.20552324167E+03  0.12499914932E+03 0.  0.
        -11    1    3    3    0    0 -0.22271676595E+02  0.32385874592E+02  0.16146777300E+03  0.16618277339E+03  0.51100000000E-03 0.  1.
         11    1    3    3    0    0  0.22271676595E+02 -0.32385874592E+02  0.16733178826E+01  0.39340468280E+02  0.51100000000E-03 0.  1.
<mgrwt>
<rscale>  0 0.12499915E+03</rscale>
<asrwt>0</asrwt>
<pdfrwt beam="1">  1       21 0.28358794E-01 0.12499915E+03</pdfrwt>
<pdfrwt beam="2">  1       21 0.32601656E-02 0.12499915E+03</pdfrwt>
<totfact> 0.64335027E+06</totfact>
</mgrwt>
</event>
<event>
 5    1  0.1829803E-009  0.1250000E+03  0.7818608E-02  0.1235069E+00
         21   -1    0    0  502  501  0.00000000000E+00  0.00000000000E+00  0.30143476001E+03  0.30143476001E+03  0.00000000000E+00 0.  1.
         21   -1    0    0  501  502 -0.00000000000E+00 -0.00000000000E+00 -0.12958858674E+02  0.12958858674E+02  0.00000000000E+00 0.  1.
         25    2    1    2    0    0  0.00000000000E+00  0.00000000000E+00  0.28847590134E+03  0.31439361869E+03  0.12500000727E+03 0.  0.
        -11    1    3    3    0    0  0.17181914179E+02 -0.41662383011E+02  0.25315516558E+03  0.25713519828E+03  0.51100000000E-03 0. -1.
         11    1    3    3    0    0 -0.17181914179E+02  0.41662383011E+02  0.35320735759E+02  0.57258420409E+02  0.51100000000E-03 0. -1.
<mgrwt>
<rscale>  0 0.12500001E+03</rscale>
<asrwt>0</asrwt>
<pdfrwt beam="1">  1       21 0.46374573E-01 0.12500001E+03</pdfrwt>
<pdfrwt beam="2">  1       21 0.19936708E-02 0.12500001E+03</pdfrwt>
<totfact> 0.54280624E+06</totfact>
</mgrwt>
</event>
<event>
 5    1  0.1829803E-009  0.1250008E+03  0.7818608E-02  0.1235068E+00
         21   -1    0    0  502  501  0.00000000000E+00  0.00000000000E+00  0.52929569034E+02  0.52929569034E+02  0.00000000000E+00 0. -1.
         21   -1    0    0  501  502 -0.00000000000E+00 -0.00000000000E+00 -0.73801861708E+02  0.73801861708E+02  0.00000000000E+00 0. -1.
         25    2    1    2    0    0  0.00000000000E+00  0.00000000000E+00 -0.20872292673E+02  0.12673143074E+03  0.12500081174E+03 0.  0.
        -11    1    3    3    0    0 -0.26411878477E+02 -0.47761329816E+02  0.20441526886E+02  0.58280253707E+02  0.51100000000E-03 0. -1.
         11    1    3    3    0    0  0.26411878477E+02  0.47761329816E+02 -0.41313819560E+02  0.68451177034E+02  0.51100000000E-03 0. -1.
<mgrwt>
<rscale>  0 0.12500081E+03</rscale>
<asrwt>0</asrwt>
<pdfrwt beam="1">  1       21 0.81430106E-02 0.12500081E+03</pdfrwt>
<pdfrwt beam="2">  1       21 0.11354133E-01 0.12500081E+03</pdfrwt>
<totfact> 0.73804215E+06</totfact>
</mgrwt>
</event>
<event>
 5    1  0.1829803E-009  0.1250032E+03  0.7818608E-02  0.1235064E+00
         21   -1    0    0  502  501  0.00000000000E+00  0.00000000000E+00  0.16075485900E+02  0.16075485900E+02  0.00000000000E+00 0. -1.
         21   -1    0    0  501  502 -0.00000000000E+00 -0.00000000000E+00 -0.24300670587E+03  0.24300670587E+03  0.00000000000E+00 0. -1.
         25    2    1    2    0    0  0.00000000000E+00  0.00000000000E+00 -0.22693121997E+03  0.25908219177E+03  0.12500321394E+03 0.  0.
        -11    1    3    3    0    0 -0.17888593532E+02  0.51670120516E+02 -0.17621617193E+03  0.18450458635E+03  0.51100000000E-03 0. -1.
         11    1    3    3    0    0  0.17888593532E+02 -0.51670120516E+02 -0.50715048035E+02  0.74577605420E+02  0.51100000000E-03 0. -1.
<mgrwt>
<rscale>  0 0.12500321E+03</rscale>
<asrwt>0</asrwt>
<pdfrwt beam="1">  1       21 0.24731517E-02 0.12500321E+03</pdfrwt>
<pdfrwt beam="2">  1       21 0.37385647E-01 0.12500321E+03</pdfrwt>
<totfact> 0.59028716E+06</totfact>
</mgrwt>
</event>
<event>
 5    1  0.1829803E-009  0.1250011E+03  0.7818608E-02  0.1235068E+00
         21   -1    0    0  502  501  0.00000000000E+00  0.00000000000E+00  0.19896973348E+02  0.19896973348E+02  0.00000000000E+00 0.  1.
         21   -1    0    0  501  502 -0.00000000000E+00 -0.00000000000E+00 -0.19632728303E+03  0.19632728303E+03  0.00000000000E+00 0.  1.
         25    2    1    2    0    0  0.00000000000E+00  0.00000000000E+00 -0.17643030968E+03  0.21622425638E+03  0.12500109948E+03 0.  0.
        -11    1    3    3    0    0 -0.59602768771E+02  0.11523382089E+02 -0.11393251264E+03  0.12909645935E+03  0.51100000000E-03 0.  1.
         11    1    3    3    0    0  0.59602768771E+02 -0.11523382089E+02 -0.62497797044E+02  0.87127797031E+02  0.51100000000E-03 0.  1.
<mgrwt>
<rscale>  0 0.12500110E+03</rscale>
<asrwt>0</asrwt>
<pdfrwt beam="1">  1       21 0.30610726E-02 0.12500110E+03</pdfrwt>
<pdfrwt beam="2">  1       21 0.30204199E-01 0.12500110E+03</pdfrwt>
<totfact> 0.63208806E+06</totfact>
</mgrwt>
</event>
<event>
 5    1  0.1829803E-009  0.1249996E+03  0.7818608E-02  0.1235070E+00
         21   -1    0    0  502  501  0.00000000000E+00  0.00000000000E+00  0.43190429528E+03  0.43190429528E+03  0.00000000000E+00 0.  1.
         21   -1    0    0  501  502 -0.00000000000E+00 -0.00000000000E+00 -0.90441958233E+01  0.90441958233E+01  0.00000000000E+00 0.  1.
         25    2    1    2    0    0  0.00000000000E+00  0.00000000000E+00  0.42286009946E+03  0.44094849111E+03  0.12499963238E+03 0.  0.
        -11    1    3    3    0    0  0.35192179192E+02 -0.48695571896E+02  0.27217021443E+03  0.27872275440E+03  0.51100000000E-03 0. -1.
         11    1    3    3    0    0 -0.35192179192E+02  0.48695571896E+02  0.15068988503E+03  0.16222573671E+03  0.51100000000E-03 0. -1.
<mgrwt>
<rscale>  0 0.12499963E+03</rscale>
<asrwt>0</asrwt>
<pdfrwt beam="1">  1       21 0.66446798E-01 0.12499963E+03</pdfrwt>
<pdfrwt beam="2">  1       21 0.13914151E-02 0.12499963E+03</pdfrwt>
<totfact> 0.45439225E+06</totfact>
</mgrwt>
</event>
<event>
 5    1  0.1829803E-009  0.1250022E+03  0.7818608E-02  0.1235066E+00
         21   -1    0    0  502  501  0.00000000000E+00  0.00000000000E+00  0.88862522233E+02  0.88862522233E+02  0.00000000000E+00 0. -1.
         21   -1    0    0  501  502 -0.00000000000E+00 -0.00000000000E+00 -0.43959915327E+02  0.43959915327E+02  0.00000000000E+00 0. -1.
         25    2    1    2    0    0  0.00000000000E+00  0.00000000000E+00  0.44902606906E+02  0.13282243756E+03  0.12500222323E+03 0.  0.
        -11    1    3    3    0    0 -0.44473761419E+02  0.28955409149E+02 -0.12630221889E+02  0.54551385675E+02  0.51100000000E-03 0.  1.
         11    1    3    3    0    0  0.44473761419E+02 -0.28955409149E+02  0.57532828795E+02  0.78271051885E+02  0.51100000000E-03 0.  1.
<mgrwt>
<rscale>  0 0.12500222E+03</rscale>
<asrwt>0</asrwt>
<pdfrwt beam="1">  1       21 0.13671157E-01 0.12500222E+03</pdfrwt>
<pdfrwt beam="2">  1       21 0.67630639E-02 0.12500222E+03</pdfrwt>
<totfact> 0.72981979E+06</totfact>
</mgrwt>
</event>
<event>
 5    1  0.1829803E-009  0.1250060E+03  0.7818608E-02  0.1235060E+00
         21   -1    0    0  502  501  0.00000000000E+00  0.00000000000E+00  0.15405236475E+02  0.15405236475E+02  0.00000000000E+00 0.  1.
         21   -1    0    0  501  502 -0.00000000000E+00 -0.00000000000E+00 -0.25359054313E+03  0.25359054313E+03  0.00000000000E+00 0.  1.
         25    2    1    2    0    0  0.00000000000E+00  0.00000000000E+00 -0.23818530666E+03  0.26899577961E+03  0.12500595641E+03 0.  0.
        -11    1    3    3    0    0 -0.32337324547E+02  0.36654943958E+02 -0.20291416128E+03  0.20871857685E+03  0.51100000000E-03 0. -1.
         11    1    3    3    0    0  0.32337324547E+02 -0.36654943958E+02 -0.35271145379E+02  0.60277202756E+02  0.51100000000E-03 0. -1.
<mgrwt>
<rscale>  0 0.12500596E+03</rscale>
<asrwt>0</asrwt>
<pdfrwt beam="1">  1       21 0.23700363E-02 0.12500596E+03</pdfrwt>
<pdfrwt beam="2">  1       21 0.39013932E-01 0.12500596E+03</pdfrwt>
<totfact> 0.58125725E+06</totfact>
</mgrwt>
</event>
<event>
 5    1  0.1829803E-009  0.1249998E+03  0.7818608E-02  0.1235070E+00
         21   -1    0    0  502  501  0.00000000000E+00  0.00000000000E+00  0.17705889904E+02  0.17705889904E+02  0.00000000000E+00 0.  1.
         21   -1    0    0  501  502 -0.00000000000E+00 -0.00000000000E+00 -0.22061814557E+03  0.22061814557E+03  0.00000000000E+00 0.  1.
         25    2    1    2    0    0  0.00000000000E+00  0.00000000000E+00 -0.20291225567E+03  0.23832403548E+03  0.12499984954E+03 0.  0.
        -11    1    3    3    0    0  0.55176429936E+00 -0.59423532273E+02 -0.13836633958E+03  0.15058786326E+03  0.51100000000E-03 0. -1.
         11    1    3    3    0    0 -0.55176429936E+00  0.59423532273E+02 -0.64545916090E+02  0.87736172219E+02  0.51100000000E-03 0. -1.
<mgrwt>
<rscale>  0 0.12499985E+03</rscale>
<asrwt>0</asrwt>
<pdfrwt beam="1">  1       21 0.27239828E-02 0.12499985E+03</pdfrwt>
<pdfrwt beam="2">  1       21 0.33941256E-01 0.12499985E+03</pdfrwt>
<totfact> 0.60995450E+06</totfact>
</mgrwt>
</event>
<event>
 5    1  0.1829803E-009  0.1250001E+03  0.7818608E-02  0.1235069E+00
         21   -1    0    0  502  501  0.00000000000E+00  0.00000000000E+00  0.75021707431E+01  0.75021707431E+01  0.00000000000E+00 0. -1.
         21   -1    0    0  501  502 -0.00000000000E+00 -0.00000000000E+00 -0.52068326520E+03  0.52068326520E+03  0.00000000000E+00 0. -1.
         25    2    1    2    0    0  0.00000000000E+00  0.00000000000E+00 -0.51318109446E+03  0.52818543595E+03  0.12500007614E+03 0.  0.
        -11    1    3    3    0    0  0.59898634005E+02  0.54561864379E+01 -0.18480232098E+03  0.19434380403E+03  0.51100000000E-03 0. -1.
         11    1    3    3    0    0 -0.59898634005E+02 -0.54561864379E+01 -0.32837877348E+03  0.33384163191E+03  0.51100000000E-03 0. -1.
<mgrwt>
<rscale>  0 0.12500008E+03</rscale>
<asrwt>0</asrwt>
<pdfrwt beam="1">  1       21 0.11541798E-02 0.12500008E+03</pdfrwt>
<pdfrwt beam="2">  1       21 0.80105138E-01 0.12500008E+03</pdfrwt>
<totfact> 0.40555550E+06</totfact>
</mgrwt>
</event>
<event>
 5    1  0.1829803E-009  0.1250056E+03  0.7818608E-02  0.1235061E+00
         21   -1    0    0  502  501  0.00000000000E+00  0.00000000000E+00  0.24888584979E+02  0.24888584979E+02  0.00000000000E+00 0.  1.
         21   -1    0    0  501  502 -0.00000000000E+00 -0.00000000000E+00 -0.15696356100E+03  0.15696356100E+03  0.00000000000E+00 0.  1.
         25    2    1    2    0    0  0.00000000000E+00  0.00000000000E+00 -0.13207497603E+03  0.18185214598E+03  0.12500561470E+03 0.  0.
        -11    1    3    3    0    0  0.48066147400E+02 -0.26437576308E+02 -0.22460423000E+02  0.59277066126E+02  0.51100000000E-03 0.  1.
         11    1    3    3    0    0 -0.48066147400E+02  0.26437576308E+02 -0.10961455303E+03  0.12257507986E+03  0.51100000000E-03 0.  1.
<mgrwt>
<rscale>  0 0.12500561E+03</rscale>
<asrwt>0</asrwt>
<pdfrwt beam="1">  1       21 0.38290131E-02 0.12500561E+03</pdfrwt>
<pdfrwt beam="2">  1       21 0.24148240E-01 0.12500561E+03</pdfrwt>
<totfact> 0.66930167E+06</totfact>
</mgrwt>
</event>
<event>
 5    1  0.1829803E-009  0.1249839E+03  0.7818608E-02  0.1235094E+00
         21   -1    0    0  502  501  0.00000000000E+00  0.00000000000E+00  0.12843998337E+03  0.12843998337E+03  0.00000000000E+00 0.  1.
         21   -1    0    0  501  502 -0.00000000000E+00 -0.00000000000E+00 -0.30405221380E+02  0.30405221380E+02  0.00000000000E+00 0.  1.
         25    2    1    2    0    0  0.00000000000E+00  0.00000000000E+00  0.98034761990E+02  0.15884520475E+03  0.12498393702E+03 0.  0.
        -11    1    3    3    0    0  0.19894973141E+02 -0.25229096241E+02 -0.19103827673E+02  0.37380121528E+02  0.51100000000E-03 0.  1.
         11    1    3    3    0    0 -0.19894973141E+02  0.25229096241E+02  0.11713858966E+03  0.12146508322E+03  0.51100000000E-03 0.  1.
<mgrwt>
<rscale>  0 0.12498394E+03</rscale>
<asrwt>0</asrwt>
<pdfrwt beam="1">  1       21 0.19759997E-01 0.12498394E+03</pdfrwt>
<pdfrwt beam="2">  1       21 0.46777264E-02 0.12498394E+03</pdfrwt>
<totfact> 0.69689335E+06</totfact>
</mgrwt>
</event>
<event>
 5    1  0.1829803E-009  0.1249964E+03  0.7818608E-02  0.1235075E+00
         21   -1    0    0  502  501  0.00000000000E+00  0.00000000000E+00  0.80916916673E+02  0.80916916673E+02  0.00000000000E+00 0.  1.
         21   -1    0    0  501  502 -0.00000000000E+00 -0.00000000000E+00 -0.48272006266E+02  0.48272006266E+02  0.00000000000E+00 0.  1.
         25    2    1    2    0    0  0.00000000000E+00  0.00000000000E+00  0.32644910406E+02  0.12918892294E+03  0.12499635049E+03 0.  0.
        -11    1    3    3    0    0  0.29253550254E+02 -0.93946973444E+01  0.72572107034E+02  0.78808256295E+02  0.51100000000E-03 0.  1.
         11    1    3    3    0    0 -0.29253550254E+02  0.93946973444E+01 -0.39927196628E+02  0.50380666644E+02  0.51100000000E-03 0.  1.
<mgrwt>
<rscale>  0 0.12499635E+03</rscale>
<asrwt>0</asrwt>
<pdfrwt beam="1">  1       21 0.12448756E-01 0.12499635E+03</pdfrwt>
<pdfrwt beam="2">  1       21 0.74264625E-02 0.12499635E+03</pdfrwt>
<totfact> 0.73480367E+06</totfact>
</mgrwt>
</event>
<event>
 5    1  0.1829803E-009  0.1249995E+03  0.7818608E-02  0.1235070E+00
         21   -1    0    0  502  501  0.00000000000E+00  0.00000000000E+00  0.18788003994E+02  0.18788003994E+02  0.00000000000E+00 0. -1.
         21   -1    0    0  501  502 -0.00000000000E+00 -0.00000000000E+00 -0.20791010117E+03  0.20791010117E+03  0.00000000000E+00 0. -1.
         25    2    1    2    0    0  0.00000000000E+00  0.00000000000E+00 -0.18912209717E+03  0.22669810516E+03  0.12499945298E+03 0.  0.
        -11    1    3    3    0    0  0.34067675427E+02  0.39425127820E+02 -0.31965330685E+02  0.61128795004E+02  0.51100000000E-03 0.  1.
         11    1    3    3    0    0 -0.34067675427E+02 -0.39425127820E+02 -0.15715676649E+03  0.16556931016E+03  0.51100000000E-03 0.  1.
<mgrwt>
<rscale>  0 0.12499945E+03</rscale>
<asrwt>0</asrwt>
<pdfrwt beam="1">  1       21 0.28904622E-02 0.12499945E+03</pdfrwt>
<pdfrwt beam="2">  1       21 0.31986168E-01 0.12499945E+03</pdfrwt>
<totfact> 0.62144977E+06</totfact>
</mgrwt>
</event>
<event>
 5    1  0.1829803E-009  0.1250401E+03  0.7818608E-02  0.1235007E+00
         21   -1    0    0  502  501  0.00000000000E+00  0.00000000000E+00  0.23354199653E+03  0.23354199653E+03  0.00000000000E+00 0.  1.
         21   -1    0    0  501  502 -0.00000000000E+00 -0.00000000000E+00 -0.16736844486E+02  0.16736844486E+02  0.00000000000E+00 0.  1.
         25    2    1    2    0    0  0.00000000000E+00  0.00000000000E+00  0.21680515204E+03  0.25027884101E+03  0.12504009080E+03 0.  0.
        -11    1    3    3    0    0 -0.51177056411E+02  0.16903906221E+02  0.17182240131E+03  0.18007712443E+03  0.51100000000E-03 0.  1.
         11    1    3    3    0    0  0.51177056411E+02 -0.16903906221E+02  0.44982750727E+02  0.70201716587E+02  0.51100000000E-03 0.  1.
<mgrwt>
<rscale>  0 0.12504009E+03</rscale>
<asrwt>0</asrwt>
<pdfrwt beam="1">  1       21 0.35929536E-01 0.12504009E+03</pdfrwt>
<pdfrwt beam="2">  1       21 0.25748993E-02 0.12504009E+03</pdfrwt>
<totfact> 0.59791502E+06</totfact>
</mgrwt>
</event>
<event>
 5    1  0.1829803E-009  0.1250007E+03  0.7818608E-02  0.1235068E+00
         21   -1    0    0  502  501  0.00000000000E+00  0.00000000000E+00  0.79662672806E+02  0.79662672806E+02  0.00000000000E+00 0.  1.
         21   -1    0    0  501  502 -0.00000000000E+00 -0.00000000000E+00 -0.49035467047E+02  0.49035467047E+02  0.00000000000E+00 0.  1.
         25    2    1    2    0    0  0.00000000000E+00  0.00000000000E+00  0.30627205759E+02  0.12869813985E+03  0.12500074187E+03 0.  0.
        -11    1    3    3    0    0  0.49847266335E+02  0.23485228254E+02 -0.15054448424E+02  0.57122170169E+02  0.51100000000E-03 0.  1.
         11    1    3    3    0    0 -0.49847266335E+02 -0.23485228254E+02  0.45681654182E+02  0.71575969685E+02  0.51100000000E-03 0.  1.
<mgrwt>
<rscale>  0 0.12500074E+03</rscale>
<asrwt>0</asrwt>
<pdfrwt beam="1">  1       21 0.12255796E-01 0.12500074E+03</pdfrwt>
<pdfrwt beam="2">  1       21 0.75439180E-02 0.12500074E+03</pdfrwt>
<totfact> 0.73538060E+06</totfact>
</mgrwt>
</event>
<event>
 5    1  0.1829803E-009  0.1250000E+03  0.7818608E-02  0.1235069E+00
         21   -1    0    0  502  501  0.00000000000E+00  0.00000000000E+00  0.14280969143E+03  0.14280969143E+03  0.00000000000E+00 0. -1.
         21   -1    0    0  501  502 -0.00000000000E+00 -0.00000000000E+00 -0.27352825763E+02  0.27352825763E+02  0.00000000000E+00 0. -1.
         25    2    1    2    0    0  0.00000000000E+00  0.00000000000E+00  0.11545686567E+03  0.17016251719E+03  0.12499997771E+03 0.  0.
        -11    1    3    3    0    0  0.52483818900E+02  0.13934796754E+02  0.15604625218E+02  0.56499859605E+02  0.51100000000E-03 0. -1.
         11    1    3    3    0    0 -0.52483818900E+02 -0.13934796754E+02  0.99852240449E+02  0.11366265759E+03  0.51100000000E-03 0. -1.
<mgrwt>
<rscale>  0 0.12499998E+03</rscale>
<asrwt>0</asrwt>
<pdfrwt beam="1">  1       21 0.21970721E-01 0.12499998E+03</pdfrwt>
<pdfrwt beam="2">  1       21 0.42081271E-02 0.12499998E+03</pdfrwt>
<totfact> 0.68298414E+06</totfact>
</mgrwt>
</event>
<event>
 5    1  0.1829803E-009  0.1250022E+03  0.7818608E-02  0.1235066E+00
         21   -1    0    0  502  501  0.00000000000E+00  0.00000000000E+00  0.19130456810E+02  0.19130456810E+02  0.00000000000E+00 0. -1.
         21   -1    0    0  501  502 -0.00000000000E+00 -0.00000000000E+00 -0.20419725128E+03  0.20419725128E+03  0.00000000000E+00 0. -1.
         25    2    1    2    0    0  0.00000000000E+00  0.00000000000E+00 -0.18506679447E+03  0.22332770809E+03  0.12500218712E+03 0.  0.
        -11    1    3    3    0    0  0.52637775142E+02 -0.27522884321E+02 -0.57791578569E+02  0.82874067639E+02  0.51100000000E-03 0. -1.
         11    1    3    3    0    0 -0.52637775142E+02  0.27522884321E+02 -0.12727521590E+03  0.14045364045E+03  0.51100000000E-03 0. -1.
<mgrwt>
<rscale>  0 0.12500219E+03</rscale>
<asrwt>0</asrwt>
<pdfrwt beam="1">  1       21 0.29431470E-02 0.12500219E+03</pdfrwt>
<pdfrwt beam="2">  1       21 0.31414964E-01 0.12500219E+03</pdfrwt>
<totfact> 0.62480555E+06</totfact>
</mgrwt>
</event>
<event>
 5    1  0.1829803E-009  0.1250000E+03  0.7818608E-02  0.1235069E+00
         21   -1    0    0  502  501  0.00000000000E+00  0.00000000000E+00  0.41998543402E+03  0.41998543402E+03  0.00000000000E+00 0. -1.
         21   -1    0    0  501  502 -0.00000000000E+00 -0.00000000000E+00 -0.93009149646E+01  0.93009149646E+01  0.00000000000E+00 0. -1.
         25    2    1    2    0    0  0.00000000000E+00  0.00000000000E+00  0.41068451905E+03  0.42928634898E+03  0.12499998093E+03 0.  0.
        -11    1    3    3    0    0  0.44162031846E+02 -0.41028430184E+02  0.26204777228E+03  0.26889152478E+03  0.51100000000E-03 0.  1.
         11    1    3    3    0    0 -0.44162031846E+02  0.41028430184E+02  0.14863674677E+03  0.16039482420E+03  0.51100000000E-03 0.  1.
<mgrwt>
<rscale>  0 0.12499998E+03</rscale>
<asrwt>0</asrwt>
<pdfrwt beam="1">  1       21 0.64613129E-01 0.12499998E+03</pdfrwt>
<pdfrwt beam="2">  1       21 0.14309103E-02 0.12499998E+03</pdfrwt>
<totfact> 0.46157633E+06</totfact>
</mgrwt>
</event>
<event>
 5    1  0.1829803E-009  0.1249991E+03  0.7818608E-02  0.1235071E+00
         21   -1    0    0  502  501  0.00000000000E+00  0.00000000000E+00  0.99288922269E+02  0.99288922269E+02  0.00000000000E+00 0.  1.
         21   -1    0    0  501  502 -0.00000000000E+00 -0.00000000000E+00 -0.39341683780E+02  0.39341683780E+02  0.00000000000E+00 0.  1.
         25    2    1    2    0    0  0.00000000000E+00  0.00000000000E+00  0.59947238488E+02  0.13863060605E+03  0.12499909412E+03 0.  0.
        -11    1    3    3    0    0 -0.78703341110E+01  0.61036666131E+02  0.42060596955E+02  0.74542005526E+02  0.51100000000E-03 0. -1.
         11    1    3    3    0    0  0.78703341110E+01 -0.61036666131E+02  0.17886641533E+02  0.64088600523E+02  0.51100000000E-03 0. -1.
<mgrwt>
<rscale>  0 0.12499909E+03</rscale>
<asrwt>0</asrwt>
<pdfrwt beam="1">  1       21 0.15275219E-01 0.12499909E+03</pdfrwt>
<pdfrwt beam="2">  1       21 0.60525668E-02 0.12499909E+03</pdfrwt>
<totfact> 0.72220254E+06</totfact>
</mgrwt>
</event>
<event>
 5    1  0.1829803E-009  0.1250085E+03  0.7818608E-02  0.1235056E+00
         21   -1    0    0  502  501  0.00000000000E+00  0.00000000000E+00  0.22015183250E+03  0.22015183250E+03  0.00000000000E+00 0. -1.
         21   -1    0    0  501  502 -0.00000000000E+00 -0.00000000000E+00 -0.17745854575E+02  0.17745854575E+02  0.00000000000E+00 0. -1.
         25    2    1    2    0    0  0.00000000000E+00  0.00000000000E+00  0.20240597793E+03  0.23789768708E+03  0.12500851817E+03 0.  0.
        -11    1    3    3    0    0 -0.32780640007E+02 -0.24007240554E+02  0.10815751680E+02  0.42046384421E+02  0.51100000000E-03 0. -1.
         11    1    3    3    0    0  0.32780640007E+02  0.24007240554E+02  0.19159022625E+03  0.19585130266E+03  0.51100000000E-03 0. -1.
<mgrwt>
<rscale>  0 0.12500852E+03</rscale>
<asrwt>0</asrwt>
<pdfrwt beam="1">  1       21 0.33869511E-01 0.12500852E+03</pdfrwt>
<pdfrwt beam="2">  1       21 0.27301316E-02 0.12500852E+03</pdfrwt>
<totfact> 0.61023579E+06</totfact>
</mgrwt>
</event>
<event>
 5    1  0.1829803E-009  0.1249993E+03  0.7818608E-02  0.1235070E+00
         21   -1    0    0  502  501  0.00000000000E+00  0.00000000000E+00  0.10088236032E+03  0.10088236032E+03  0.00000000000E+00 0. -1.
         21   -1    0    0  501  502 -0.00000000000E+00 -0.00000000000E+00 -0.38720383218E+02  0.38720383218E+02  0.00000000000E+00 0. -1.
         25    2    1    2    0    0  0.00000000000E+00  0.00000000000E+00  0.62161977104E+02  0.13960274354E+03  0.12499925842E+03 0.  0.
        -11    1    3    3    0    0  0.15421562965E+02  0.11870125412E+02  0.97412324723E+02  0.99337231136E+02  0.51100000000E-03 0. -1.
         11    1    3    3    0    0 -0.15421562965E+02 -0.11870125412E+02 -0.35250347619E+02  0.40265512403E+02  0.51100000000E-03 0. -1.
<mgrwt>
<rscale>  0 0.12499926E+03</rscale>
<asrwt>0</asrwt>
<pdfrwt beam="1">  1       21 0.15520363E-01 0.12499926E+03</pdfrwt>
<pdfrwt beam="2">  1       21 0.59569821E-02 0.12499926E+03</pdfrwt>
<totfact> 0.72092574E+06</totfact>
</mgrwt>
</event>
<event>
 5    1  0.1829803E-009  0.1250033E+03  0.7818608E-02  0.1235064E+00
         21   -1    0    0  502  501  0.00000000000E+00  0.00000000000E+00  0.52460656125E+02  0.52460656125E+02  0.00000000000E+00 0. -1.
         21   -1    0    0  501  502 -0.00000000000E+00 -0.00000000000E+00 -0.74464455756E+02  0.74464455756E+02  0.00000000000E+00 0. -1.
         25    2    1    2    0    0  0.00000000000E+00  0.00000000000E+00 -0.22003799631E+02  0.12692511188E+03  0.12500326727E+03 0.  0.
        -11    1    3    3    0    0  0.10145301444E+02  0.55838308239E+02  0.15584827926E+02  0.58853467783E+02  0.51100000000E-03 0.  1.
         11    1    3    3    0    0 -0.10145301444E+02 -0.55838308239E+02 -0.37588627557E+02  0.68071644098E+02  0.51100000000E-03 0.  1.
<mgrwt>
<rscale>  0 0.12500327E+03</rscale>
<asrwt>0</asrwt>
<pdfrwt beam="1">  1       21 0.80708702E-02 0.12500327E+03</pdfrwt>
<pdfrwt beam="2">  1       21 0.11456070E-01 0.12500327E+03</pdfrwt>
<totfact> 0.73773182E+06</totfact>
</mgrwt>
</event>
<event>
 5    1  0.1829803E-009  0.1250022E+03  0.7818608E-02  0.1235066E+00
         21   -1    0    0  502  501  0.00000000000E+00  0.00000000000E+00  0.22062854181E+02  0.22062854181E+02  0.00000000000E+00 0. -1.
         21   -1    0    0  501  502 -0.00000000000E+00 -0.00000000000E+00 -0.17705708983E+03  0.17705708983E+03  0.00000000000E+00 0. -1.
         25    2    1    2    0    0  0.00000000000E+00  0.00000000000E+00 -0.15499423565E+03  0.19911994401E+03  0.12500215606E+03 0.  0.
        -11    1    3    3    0    0  0.23693172139E+02 -0.36106643365E+02 -0.55267498061E+01  0.43538500948E+02  0.51100000000E-03 0. -1.
         11    1    3    3    0    0 -0.23693172139E+02  0.36106643365E+02 -0.14946748585E+03  0.15558144307E+03  0.51100000000E-03 0. -1.
<mgrwt>
<rscale>  0 0.12500216E+03</rscale>
<asrwt>0</asrwt>
<pdfrwt beam="1">  1       21 0.33942853E-02 0.12500216E+03</pdfrwt>
<pdfrwt beam="2">  1       21 0.27239552E-01 0.12500216E+03</pdfrwt>
<totfact> 0.65019187E+06</totfact>
</mgrwt>
</event>
<event>
 5    1  0.1829803E-009  0.1250001E+03  0.7818608E-02  0.1235069E+00
         21   -1    0    0  502  501  0.00000000000E+00  0.00000000000E+00  0.84576205549E+01  0.84576205549E+01  0.00000000000E+00 0. -1.
         21   -1    0    0  501  502 -0.00000000000E+00 -0.00000000000E+00 -0.46186208496E+03  0.46186208496E+03  0.00000000000E+00 0. -1.
         25    2    1    2    0    0  0.00000000000E+00  0.00000000000E+00 -0.45340446440E+03  0.47031970551E+03  0.12500006821E+03 0.  0.
        -11    1    3    3    0    0  0.55009041872E+02  0.29633764383E+02 -0.23215415296E+03  0.24041569295E+03  0.51100000000E-03 0.  1.
         11    1    3    3    0    0 -0.55009041872E+02 -0.29633764383E+02 -0.22125031144E+03  0.22990401256E+03  0.51100000000E-03 0.  1.
<mgrwt>
<rscale>  0 0.12500007E+03</rscale>
<asrwt>0</asrwt>
<pdfrwt beam="1">  1       21 0.13011724E-02 0.12500007E+03</pdfrwt>
<pdfrwt beam="2">  1       21 0.71055707E-01 0.12500007E+03</pdfrwt>
<totfact> 0.43700756E+06</totfact>
</mgrwt>
</event>
<event>
 5    1  0.1829803E-009  0.1250103E+03  0.7818608E-02  0.1235053E+00
         21   -1    0    0  502  501  0.00000000000E+00  0.00000000000E+00  0.58511613711E+02  0.58511613711E+02  0.00000000000E+00 0.  1.
         21   -1    0    0  501  502 -0.00000000000E+00 -0.00000000000E+00 -0.66771303450E+02  0.66771303450E+02  0.00000000000E+00 0.  1.
         25    2    1    2    0    0  0.00000000000E+00  0.00000000000E+00 -0.82596897390E+01  0.12528291716E+03  0.12501034700E+03 0.  0.
        -11    1    3    3    0    0 -0.42756341817E+02  0.37980012602E+02 -0.29410042955E+02  0.64308139063E+02  0.51100000000E-03 0.  1.
         11    1    3    3    0    0  0.42756341817E+02 -0.37980012602E+02  0.21150353216E+02  0.60974778099E+02  0.51100000000E-03 0.  1.
<mgrwt>
<rscale>  0 0.12501035E+03</rscale>
<asrwt>0</asrwt>
<pdfrwt beam="1">  1       21 0.90017867E-02 0.12501035E+03</pdfrwt>
<pdfrwt beam="2">  1       21 0.10272508E-01 0.12501035E+03</pdfrwt>
<totfact> 0.73985805E+06</totfact>
</mgrwt>
</event>
<event>
 5    1  0.1829803E-009  0.1249983E+03  0.7818608E-02  0.1235072E+00
         21   -1    0    0  502  501  0.00000000000E+00  0.00000000000E+00  0.15308490045E+02  0.15308490045E+02  0.00000000000E+00 0. -1.
         21   -1    0    0  501  502 -0.00000000000E+00 -0.00000000000E+00 -0.25516212023E+03  0.25516212023E+03  0.00000000000E+00 0. -1.
         25    2    1    2    0    0  0.00000000000E+00  0.00000000000E+00 -0.23985363019E+03  0.27047061028E+03  0.12499834843E+03 0.  0.
        -11    1    3    3    0    0  0.45264881553E+02 -0.41358210131E+02 -0.93715805795E+02  0.11199135370E+03  0.51100000000E-03 0. -1.
         11    1    3    3    0    0 -0.45264881553E+02  0.41358210131E+02 -0.14613782439E+03  0.15847925658E+03  0.51100000000E-03 0. -1.
<mgrwt>
<rscale>  0 0.12499835E+03</rscale>
<asrwt>0</asrwt>
<pdfrwt beam="1">  1       21 0.23551525E-02 0.12499835E+03</pdfrwt>
<pdfrwt beam="2">  1       21 0.39255708E-01 0.12499835E+03</pdfrwt>
<totfact> 0.58005084E+06</totfact>
</mgrwt>
</event>
<event>
 5    1  0.1829803E-009  0.1249994E+03  0.7818608E-02  0.1235070E+00
         21   -1    0    0  502  501  0.00000000000E+00  0.00000000000E+00  0.64588569337E+02  0.64588569337E+02  0.00000000000E+00 0.  1.
         21   -1    0    0  501  502 -0.00000000000E+00 -0.00000000000E+00 -0.60478345985E+02  0.60478345985E+02  0.00000000000E+00 0.  1.
         25    2    1    2    0    0  0.00000000000E+00  0.00000000000E+00  0.41102233516E+01  0.12506691532E+03  0.12499935749E+03 0.  0.
        -11    1    3    3    0    0 -0.48858990883E+02 -0.38246809304E+02  0.95551906780E+01  0.62779941711E+02  0.51100000000E-03 0. -1.
         11    1    3    3    0    0  0.48858990883E+02  0.38246809304E+02 -0.54449673264E+01  0.62286973610E+02  0.51100000000E-03 0. -1.
<mgrwt>
<rscale>  0 0.12499936E+03</rscale>
<asrwt>0</asrwt>
<pdfrwt beam="1">  1       21 0.99367029E-02 0.12499936E+03</pdfrwt>
<pdfrwt beam="2">  1       21 0.93043610E-02 0.12499936E+03</pdfrwt>
<totfact> 0.74035760E+06</totfact>
</mgrwt>
</event>
<event>
 5    1  0.1829803E-009  0.1249971E+03  0.7818608E-02  0.1235074E+00
         21   -1    0    0  502  501  0.00000000000E+00  0.00000000000E+00  0.18759947072E+03  0.18759947072E+03  0.00000000000E+00 0. -1.
         21   -1    0    0  501  502 -0.00000000000E+00 -0.00000000000E+00 -0.20821318591E+02  0.20821318591E+02  0.00000000000E+00 0. -1.
         25    2    1    2    0    0  0.00000000000E+00  0.00000000000E+00  0.16677815213E+03  0.20842078931E+03  0.12499709352E+03 0.  0.
        -11    1    3    3    0    0  0.62440974163E+02  0.26647708990E+01  0.83895068934E+02  0.10461528975E+03  0.51100000000E-03 0. -1.
         11    1    3    3    0    0 -0.62440974163E+02 -0.26647708990E+01  0.82883083196E+02  0.10380549956E+03  0.51100000000E-03 0. -1.
<mgrwt>
<rscale>  0 0.12499709E+03</rscale>
<asrwt>0</asrwt>
<pdfrwt beam="1">  1       21 0.28861456E-01 0.12499709E+03</pdfrwt>
<pdfrwt beam="2">  1       21 0.32032799E-02 0.12499709E+03</pdfrwt>
<totfact> 0.64030779E+06</totfact>
</mgrwt>
</event>
<event>
 5    1  0.1829803E-009  0.1250002E+03  0.7818608E-02  0.1235069E+00
         21   -1    0    0  502  501  0.00000000000E+00  0.00000000000E+00  0.48842889570E+02  0.48842889570E+02  0.00000000000E+00 0.  1.
         21   -1    0    0  501  502 -0.00000000000E+00 -0.00000000000E+00 -0.79976095163E+02  0.79976095163E+02  0.00000000000E+00 0.  1.
         25    2    1    2    0    0  0.00000000000E+00  0.00000000000E+00 -0.31133205594E+02  0.12881898473E+03  0.12500021735E+03 0.  0.
        -11    1    3    3    0    0  0.42516254931E+02  0.29563831334E+02 -0.51630136205E+02  0.73125392452E+02  0.51100000000E-03 0.  1.
         11    1    3    3    0    0 -0.42516254931E+02 -0.29563831334E+02  0.20496930611E+02  0.55693592281E+02  0.51100000000E-03 0.  1.
<mgrwt>
<rscale>  0 0.12500022E+03</rscale>
<asrwt>0</asrwt>
<pdfrwt beam="1">  1       21 0.75142907E-02 0.12500022E+03</pdfrwt>
<pdfrwt beam="2">  1       21 0.12304015E-01 0.12500022E+03</pdfrwt>
<totfact> 0.73522795E+06</totfact>
</mgrwt>
</event>
<event>
 5    1  0.1829803E-009  0.1250012E+03  0.7818608E-02  0.1235067E+00
         21   -1    0    0  502  501  0.00000000000E+00  0.00000000000E+00  0.56761248515E+03  0.56761248515E+03  0.00000000000E+00 0.  1.
         21   -1    0    0  501  502 -0.00000000000E+00 -0.00000000000E+00 -0.68820326350E+01  0.68820326350E+01  0.00000000000E+00 0.  1.
         25    2    1    2    0    0  0.00000000000E+00  0.00000000000E+00  0.56073045251E+03  0.57449451778E+03  0.12500124234E+03 0.  0.
        -11    1    3    3    0    0 -0.15939602525E+02  0.59793799877E+02  0.24004721981E+03  0.24789521410E+03  0.51100000000E-03 0.  1.
         11    1    3    3    0    0  0.15939602525E+02 -0.59793799877E+02  0.32068323270E+03  0.32659930368E+03  0.51100000000E-03 0.  1.
<mgrwt>
<rscale>  0 0.12500124E+03</rscale>
<asrwt>0</asrwt>
<pdfrwt beam="1">  1       21 0.87324961E-01 0.12500124E+03</pdfrwt>
<pdfrwt beam="2">  1       21 0.10587747E-02 0.12500124E+03</pdfrwt>
<totfact> 0.38270915E+06</totfact>
</mgrwt>
</event>
<event>
 5    1  0.1829803E-009  0.1249937E+03  0.7818608E-02  0.1235079E+00
         21   -1    0    0  502  501  0.00000000000E+00  0.00000000000E+00  0.26674541033E+02  0.26674541033E+02  0.00000000000E+00 0. -1.
         21   -1    0    0  501  502 -0.00000000000E+00 -0.00000000000E+00 -0.14642641492E+03  0.14642641492E+03  0.00000000000E+00 0. -1.
         25    2    1    2    0    0  0.00000000000E+00  0.00000000000E+00 -0.11975187389E+03  0.17310095595E+03  0.12499371845E+03 0.  0.
        -11    1    3    3    0    0 -0.32268318443E+01 -0.50511379640E+02 -0.91046393491E+01  0.51426708769E+02  0.51100000000E-03 0.  1.
         11    1    3    3    0    0  0.32268318443E+01  0.50511379640E+02 -0.11064723454E+03  0.12167424718E+03  0.51100000000E-03 0.  1.
<mgrwt>
<rscale>  0 0.12499372E+03</rscale>
<asrwt>0</asrwt>
<pdfrwt beam="1">  1       21 0.41037755E-02 0.12499372E+03</pdfrwt>
<pdfrwt beam="2">  1       21 0.22527141E-01 0.12499372E+03</pdfrwt>
<totfact> 0.67962757E+06</totfact>
</mgrwt>
</event>
<event>
 5    1  0.1829803E-009  0.1249998E+03  0.7818608E-02  0.1235070E+00
         21   -1    0    0  502  501  0.00000000000E+00  0.00000000000E+00  0.41351575097E+02  0.41351575097E+02  0.00000000000E+00 0. -1.
         21   -1    0    0  501  502 -0.00000000000E+00 -0.00000000000E+00 -0.94464000683E+02  0.94464000683E+02  0.00000000000E+00 0. -1.
         25    2    1    2    0    0  0.00000000000E+00  0.00000000000E+00 -0.53112425586E+02  0.13581557578E+03  0.12499976349E+03 0.  0.
        -11    1    3    3    0    0  0.35819075233E+02  0.30415094423E+02 -0.71330486835E+02  0.85417342921E+02  0.51100000000E-03 0. -1.
         11    1    3    3    0    0 -0.35819075233E+02 -0.30415094423E+02  0.18218061249E+02  0.50398232858E+02  0.51100000000E-03 0. -1.
<mgrwt>
<rscale>  0 0.12499976E+03</rscale>
<asrwt>0</asrwt>
<pdfrwt beam="1">  1       21 0.63617809E-02 0.12499976E+03</pdfrwt>
<pdfrwt beam="2">  1       21 0.14532923E-01 0.12499976E+03</pdfrwt>
<totfact> 0.72589102E+06</totfact>
</mgrwt>
</event>
<event>
 5    1  0.1829803E-009  0.1249993E+03  0.7818608E-02  0.1235070E+00
         21   -1    0    0  502  501  0.00000000000E+00  0.00000000000E+00  0.35627738524E+02  0.35627738524E+02  0.00000000000E+00 0. -1.
         21   -1    0    0  501  502 -0.00000000000E+00 -0.00000000000E+00 -0.10963946805E+03  0.10963946805E+03  0.00000000000E+00 0. -1.
         25    2    1    2    0    0  0.00000000000E+00  0.00000000000E+00 -0.74011729529E+02  0.14526720658E+03  0.12499930079E+03 0.  0.
        -11    1    3    3    0    0  0.16760584005E+02  0.30635140417E+02 -0.97244598820E+02  0.10332444534E+03  0.51100000000E-03 0. -1.
         11    1    3    3    0    0 -0.16760584005E+02 -0.30635140417E+02  0.23232869290E+02  0.41942761238E+02  0.51100000000E-03 0. -1.
<mgrwt>
<rscale>  0 0.12499930E+03</rscale>
<asrwt>0</asrwt>
<pdfrwt beam="1">  1       21 0.54811906E-02 0.12499930E+03</pdfrwt>
<pdfrwt beam="2">  1       21 0.16867610E-01 0.12499930E+03</pdfrwt>
<totfact> 0.71360191E+06</totfact>
</mgrwt>
</event>
<event>
 5    1  0.1829803E-009  0.1249977E+03  0.7818608E-02  0.1235073E+00
         21   -1    0    0  502  501  0.00000000000E+00  0.00000000000E+00  0.20200531648E+03  0.20200531648E+03  0.00000000000E+00 0. -1.
         21   -1    0    0  501  502 -0.00000000000E+00 -0.00000000000E+00 -0.19336655238E+02  0.19336655238E+02  0.00000000000E+00 0. -1.
         25    2    1    2    0    0  0.00000000000E+00  0.00000000000E+00  0.18266866124E+03  0.22134197171E+03  0.12499771456E+03 0.  0.
        -11    1    3    3    0    0  0.54714351964E+02  0.20311243379E+02  0.13092596001E+03  0.14334508685E+03  0.51100000000E-03 0. -1.
         11    1    3    3    0    0 -0.54714351964E+02 -0.20311243379E+02  0.51742701228E+02  0.77996884868E+02  0.51100000000E-03 0. -1.
<mgrwt>
<rscale>  0 0.12499771E+03</rscale>
<asrwt>0</asrwt>
<pdfrwt beam="1">  1       21 0.31077740E-01 0.12499771E+03</pdfrwt>
<pdfrwt beam="2">  1       21 0.29748702E-02 0.12499771E+03</pdfrwt>
<totfact> 0.62689252E+06</totfact>
</mgrwt>
</event>
<event>
 5    1  0.1829803E-009  0.1250001E+03  0.7818608E-02  0.1235069E+00
         21   -1    0    0  502  501  0.00000000000E+00  0.00000000000E+00  0.38089905473E+02  0.38089905473E+02  0.00000000000E+00 0.  1.
         21   -1    0    0  501  502 -0.00000000000E+00 -0.00000000000E+00 -0.10255363186E+03  0.10255363186E+03  0.00000000000E+00 0.  1.
         25    2    1    2    0    0  0.00000000000E+00  0.00000000000E+00 -0.64463726390E+02  0.14064353734E+03  0.12500013030E+03 0.  0.
        -11    1    3    3    0    0 -0.16103947760E+02 -0.44070832565E+02 -0.78686716758E+02  0.91614271873E+02  0.51100000000E-03 0.  1.
         11    1    3    3    0    0  0.16103947760E+02  0.44070832565E+02  0.14222990368E+02  0.49029265462E+02  0.51100000000E-03 0.  1.
<mgrwt>
<rscale>  0 0.12500013E+03</rscale>
<asrwt>0</asrwt>
<pdfrwt beam="1">  1       21 0.58599855E-02 0.12500013E+03</pdfrwt>
<pdfrwt beam="2">  1       21 0.15777482E-01 0.12500013E+03</pdfrwt>
<totfact> 0.71955168E+06</totfact>
</mgrwt>
</event>
<event>
 5    1  0.1829803E-009  0.1250006E+03  0.7818608E-02  0.1235068E+00
         21   -1    0    0  502  501  0.00000000000E+00  0.00000000000E+00  0.40260181946E+02  0.40260181946E+02  0.00000000000E+00 0.  1.
         21   -1    0    0  501  502 -0.00000000000E+00 -0.00000000000E+00 -0.97026026127E+02  0.97026026127E+02  0.00000000000E+00 0.  1.
         25    2    1    2    0    0  0.00000000000E+00  0.00000000000E+00 -0.56765844181E+02  0.13728620807E+03  0.12500056744E+03 0.  0.
        -11    1    3    3    0    0 -0.53689688720E+02 -0.31085628355E+02 -0.36702854426E+02  0.72083274678E+02  0.51100000000E-03 0. -1.
         11    1    3    3    0    0  0.53689688720E+02  0.31085628355E+02 -0.20062989756E+02  0.65202933395E+02  0.51100000000E-03 0. -1.
<mgrwt>
<rscale>  0 0.12500057E+03</rscale>
<asrwt>0</asrwt>
<pdfrwt beam="1">  1       21 0.61938742E-02 0.12500057E+03</pdfrwt>
<pdfrwt beam="2">  1       21 0.14927081E-01 0.12500057E+03</pdfrwt>
<totfact> 0.72394107E+06</totfact>
</mgrwt>
</event>
<event>
 5    1  0.1829803E-009  0.1249967E+03  0.7818608E-02  0.1235074E+00
         21   -1    0    0  502  501  0.00000000000E+00  0.00000000000E+00  0.85017692624E+02  0.85017692624E+02  0.00000000000E+00 0. -1.
         21   -1    0    0  501  502 -0.00000000000E+00 -0.00000000000E+00 -0.45943901717E+02  0.45943901717E+02  0.00000000000E+00 0. -1.
         25    2    1    2    0    0  0.00000000000E+00  0.00000000000E+00  0.39073790907E+02  0.13096159434E+03  0.12499671218E+03 0.  0.
        -11    1    3    3    0    0  0.22553108891E+02 -0.58270657833E+02  0.18080515638E+02  0.65046270692E+02  0.51100000000E-03 0. -1.
         11    1    3    3    0    0 -0.22553108891E+02  0.58270657833E+02  0.20993275269E+02  0.65915323649E+02  0.51100000000E-03 0. -1.
<mgrwt>
<rscale>  0 0.12499671E+03</rscale>
<asrwt>0</asrwt>
<pdfrwt beam="1">  1       21 0.13079645E-01 0.12499671E+03</pdfrwt>
<pdfrwt beam="2">  1       21 0.70682926E-02 0.12499671E+03</pdfrwt>
<totfact> 0.73241990E+06</totfact>
</mgrwt>
</event>
<event>
 5    1  0.1829803E-009  0.1249997E+03  0.7818608E-02  0.1235070E+00
         21   -1    0    0  502  501  0.00000000000E+00  0.00000000000E+00  0.32030257218E+02  0.32030257218E+02  0.00000000000E+00 0. -1.
         21   -1    0    0  501  502 -0.00000000000E+00 -0.00000000000E+00 -0.12195441407E+03  0.12195441407E+03  0.00000000000E+00 0. -1.
         25    2    1    2    0    0  0.00000000000E+00  0.00000000000E+00 -0.89924156856E+02  0.15398467129E+03  0.12499970003E+03 0.  0.
        -11    1    3    3    0    0 -0.47285544991E+02  0.10094744625E+02 -0.93748343999E+02  0.10548259874E+03  0.51100000000E-03 0.  1.
         11    1    3    3    0    0  0.47285544991E+02 -0.10094744625E+02  0.38241871437E+01  0.48502072551E+02  0.51100000000E-03 0.  1.
<mgrwt>
<rscale>  0 0.12499970E+03</rscale>
<asrwt>0</asrwt>
<pdfrwt beam="1">  1       21 0.49277319E-02 0.12499970E+03</pdfrwt>
<pdfrwt beam="2">  1       21 0.18762217E-01 0.12499970E+03</pdfrwt>
<totfact> 0.70262607E+06</totfact>
</mgrwt>
</event>
<event>
 5    1  0.1829803E-009  0.1250029E+03  0.7818608E-02  0.1235065E+00
         21   -1    0    0  502  501  0.00000000000E+00  0.00000000000E+00  0.55096547498E+02  0.55096547498E+02  0.00000000000E+00 0. -1.
         21   -1    0    0  501  502 -0.00000000000E+00 -0.00000000000E+00 -0.70901565925E+02  0.70901565925E+02  0.00000000000E+00 0. -1.
         25    2    1    2    0    0  0.00000000000E+00  0.00000000000E+00 -0.15805018427E+02  0.12599811342E+03  0.12500290388E+03 0.  0.
        -11    1    3    3    0    0  0.44073080663E+02  0.28027059183E+02 -0.42504801162E+02  0.67339517430E+02  0.51100000000E-03 0. -1.
         11    1    3    3    0    0 -0.44073080663E+02 -0.28027059183E+02  0.26699782735E+02  0.58658595994E+02  0.51100000000E-03 0. -1.
<mgrwt>
<rscale>  0 0.12500290E+03</rscale>
<asrwt>0</asrwt>
<pdfrwt beam="1">  1       21 0.84763919E-02 0.12500290E+03</pdfrwt>
<pdfrwt beam="2">  1       21 0.10907933E-01 0.12500290E+03</pdfrwt>
<totfact> 0.73900824E+06</totfact>
</mgrwt>
</event>
<event>
 5    1  0.1829803E-009  0.1249979E+03  0.7818608E-02  0.1235073E+00
         21   -1    0    0  502  501  0.00000000000E+00  0.00000000000E+00  0.76054376815E+02  0.76054376815E+02  0.00000000000E+00 0.  1.
         21   -1    0    0  501  502 -0.00000000000E+00 -0.00000000000E+00 -0.51359574058E+02  0.51359574058E+02  0.00000000000E+00 0.  1.
         25    2    1    2    0    0  0.00000000000E+00  0.00000000000E+00  0.24694802757E+02  0.12741395087E+03  0.12499792636E+03 0.  0.
        -11    1    3    3    0    0 -0.43310318128E+02  0.44733372409E+02  0.68333961052E+01  0.62638275567E+02  0.51100000000E-03 0. -1.
         11    1    3    3    0    0  0.43310318128E+02 -0.44733372409E+02  0.17861406652E+02  0.64775675306E+02  0.51100000000E-03 0. -1.
<mgrwt>
<rscale>  0 0.12499793E+03</rscale>
<asrwt>0</asrwt>
<pdfrwt beam="1">  1       21 0.11700673E-01 0.12499793E+03</pdfrwt>
<pdfrwt beam="2">  1       21 0.79014729E-02 0.12499793E+03</pdfrwt>
<totfact> 0.73716789E+06</totfact>
</mgrwt>
</event>
<event>
 5    1  0.1829803E-009  0.1249998E+03  0.7818608E-02  0.1235070E+00
         21   -1    0    0  502  501  0.00000000000E+00  0.00000000000E+00  0.99214162764E+02  0.99214162764E+02  0.00000000000E+00 0. -1.
         21   -1    0    0  501  502 -0.00000000000E+00 -0.00000000000E+00 -0.39371771198E+02  0.39371771198E+02  0.00000000000E+00 0. -1.
         25    2    1    2    0    0  0.00000000000E+00  0.00000000000E+00  0.59842391567E+02  0.13858593396E+03  0.12499979705E+03 0.  0.
        -11    1    3    3    0    0  0.29611246779E+02  0.55040084159E+02  0.29896021004E+02  0.69282096332E+02  0.51100000000E-03 0. -1.
         11    1    3    3    0    0 -0.29611246779E+02 -0.55040084159E+02  0.29946370563E+02  0.69303837630E+02  0.51100000000E-03 0. -1.
<mgrwt>
<rscale>  0 0.12499980E+03</rscale>
<asrwt>0</asrwt>
<pdfrwt beam="1">  1       21 0.15263717E-01 0.12499980E+03</pdfrwt>
<pdfrwt beam="2">  1       21 0.60571956E-02 0.12499980E+03</pdfrwt>
<totfact> 0.72224827E+06</totfact>
</mgrwt>
</event>
<event>
 5    1  0.1829803E-009  0.1249976E+03  0.7818608E-02  0.1235073E+00
         21   -1    0    0  502  501  0.00000000000E+00  0.00000000000E+00  0.40395402173E+02  0.40395402173E+02  0.00000000000E+00 0.  1.
         21   -1    0    0  501  502 -0.00000000000E+00 -0.00000000000E+00 -0.96696688314E+02  0.96696688314E+02  0.00000000000E+00 0.  1.
         25    2    1    2    0    0  0.00000000000E+00  0.00000000000E+00 -0.56301286140E+02  0.13709209049E+03  0.12499762579E+03 0.  0.
        -11    1    3    3    0    0 -0.10031821678E+02 -0.17876935823E+02  0.36603388041E+02  0.41952715013E+02  0.51100000000E-03 0. -1.
         11    1    3    3    0    0  0.10031821678E+02  0.17876935823E+02 -0.92904674181E+02  0.95139375474E+02  0.51100000000E-03 0. -1.
<mgrwt>
<rscale>  0 0.12499763E+03</rscale>
<asrwt>0</asrwt>
<pdfrwt beam="1">  1       21 0.62146773E-02 0.12499763E+03</pdfrwt>
<pdfrwt beam="2">  1       21 0.14876414E-01 0.12499763E+03</pdfrwt>
<totfact> 0.72425018E+06</totfact>
</mgrwt>
</event>
<event>
 5    1  0.1829803E-009  0.1249985E+03  0.7818608E-02  0.1235072E+00
         21   -1    0    0  502  501  0.00000000000E+00  0.00000000000E+00  0.88136885659E+01  0.88136885659E+01  0.00000000000E+00 0.  1.
         21   -1    0    0  501  502 -0.00000000000E+00 -0.00000000000E+00 -0.44319203583E+03  0.44319203583E+03  0.00000000000E+00 0.  1.
         25    2    1    2    0    0  0.00000000000E+00  0.00000000000E+00 -0.43437834727E+03  0.45200572440E+03  0.12499850525E+03 0.  0.
        -11    1    3    3    0    0  0.28042199247E+02  0.55833965525E+02 -0.22274423693E+03  0.23134128842E+03  0.51100000000E-03 0. -1.
         11    1    3    3    0    0 -0.28042199247E+02 -0.55833965525E+02 -0.21163411034E+03  0.22066443598E+03  0.51100000000E-03 0. -1.
<mgrwt>
<rscale>  0 0.12499851E+03</rscale>
<asrwt>0</asrwt>
<pdfrwt beam="1">  1       21 0.13559525E-02 0.12499851E+03</pdfrwt>
<pdfrwt beam="2">  1       21 0.68183372E-01 0.12499851E+03</pdfrwt>
<totfact> 0.44774170E+06</totfact>
</mgrwt>
</event>
<event>
 5    1  0.1829803E-009  0.1249973E+03  0.7818608E-02  0.1235074E+00
         21   -1    0    0  502  501  0.00000000000E+00  0.00000000000E+00  0.31767255446E+02  0.31767255446E+02  0.00000000000E+00 0. -1.
         21   -1    0    0  501  502 -0.00000000000E+00 -0.00000000000E+00 -0.12295934987E+03  0.12295934987E+03  0.00000000000E+00 0. -1.
         25    2    1    2    0    0  0.00000000000E+00  0.00000000000E+00 -0.91192094426E+02  0.15472660532E+03  0.12499729720E+03 0.  0.
        -11    1    3    3    0    0 -0.35584283304E+02 -0.24452833782E+02  0.10338674216E+02  0.44396739554E+02  0.51100000000E-03 0.  1.
         11    1    3    3    0    0  0.35584283304E+02  0.24452833782E+02 -0.10153076864E+03  0.11032986576E+03  0.51100000000E-03 0.  1.
<mgrwt>
<rscale>  0 0.12499730E+03</rscale>
<asrwt>0</asrwt>
<pdfrwt beam="1">  1       21 0.48872701E-02 0.12499730E+03</pdfrwt>
<pdfrwt beam="2">  1       21 0.18916823E-01 0.12499730E+03</pdfrwt>
<totfact> 0.70174479E+06</totfact>
</mgrwt>
</event>
<event>
 5    1  0.1829803E-009  0.1250085E+03  0.7818608E-02  0.1235056E+00
         21   -1    0    0  502  501  0.00000000000E+00  0.00000000000E+00  0.24441539781E+02  0.24441539781E+02  0.00000000000E+00 0.  1.
         21   -1    0    0  501  502 -0.00000000000E+00 -0.00000000000E+00 -0.15984196594E+03  0.15984196594E+03  0.00000000000E+00 0.  1.
         25    2    1    2    0    0  0.00000000000E+00  0.00000000000E+00 -0.13540042616E+03  0.18428350572E+03  0.12500854002E+03 0.  0.
        -11    1    3    3    0    0  0.25097100695E+02  0.53730441109E+02 -0.96811155060E+02  0.11353072055E+03  0.51100000000E-03 0. -1.
         11    1    3    3    0    0 -0.25097100695E+02 -0.53730441109E+02 -0.38589271101E+02  0.70752785171E+02  0.51100000000E-03 0. -1.
<mgrwt>
<rscale>  0 0.12500854E+03</rscale>
<asrwt>0</asrwt>
<pdfrwt beam="1">  1       21 0.37602369E-02 0.12500854E+03</pdfrwt>
<pdfrwt beam="2">  1       21 0.24591072E-01 0.12500854E+03</pdfrwt>
<totfact> 0.66649079E+06</totfact>
</mgrwt>
</event>
<event>
 5    1  0.1829803E-009  0.1249995E+03  0.7818608E-02  0.1235070E+00
         21   -1    0    0  502  501  0.00000000000E+00  0.00000000000E+00  0.10279831129E+02  0.10279831129E+02  0.00000000000E+00 0. -1.
         21   -1    0    0  501  502 -0.00000000000E+00 -0.00000000000E+00 -0.37998835619E+03  0.37998835619E+03  0.00000000000E+00 0. -1.
         25    2    1    2    0    0  0.00000000000E+00  0.00000000000E+00 -0.36970852506E+03  0.39026818731E+03  0.12499945812E+03 0.  0.
        -11    1    3    3    0    0 -0.15929730802E+02 -0.54917005388E+02 -0.26362815574E+03  0.26975811073E+03  0.51100000000E-03 0.  1.
         11    1    3    3    0    0  0.15929730802E+02  0.54917005388E+02 -0.10608036931E+03  0.12051007658E+03  0.51100000000E-03 0.  1.
<mgrwt>
<rscale>  0 0.12499946E+03</rscale>
<asrwt>0</asrwt>
<pdfrwt beam="1">  1       21 0.15815123E-02 0.12499946E+03</pdfrwt>
<pdfrwt beam="2">  1       21 0.58459754E-01 0.12499946E+03</pdfrwt>
<totfact> 0.48694278E+06</totfact>
</mgrwt>
</event>
<event>
 5    1  0.1829803E-009  0.1249994E+03  0.7818608E-02  0.1235070E+00
         21   -1    0    0  502  501  0.00000000000E+00  0.00000000000E+00  0.96245448928E+02  0.96245448928E+02  0.00000000000E+00 0.  1.
         21   -1    0    0  501  502 -0.00000000000E+00 -0.00000000000E+00 -0.40585946036E+02  0.40585946036E+02  0.00000000000E+00 0.  1.
         25    2    1    2    0    0  0.00000000000E+00  0.00000000000E+00  0.55659502892E+02  0.13683139496E+03  0.12499940154E+03 0.  0.
        -11    1    3    3    0    0  0.15603248037E+02 -0.60520335781E+02  0.27610263150E+02  0.68326415271E+02  0.51100000000E-03 0. -1.
         11    1    3    3    0    0 -0.15603248037E+02  0.60520335781E+02  0.28049239741E+02  0.68504979693E+02  0.51100000000E-03 0. -1.
<mgrwt>
<rscale>  0 0.12499940E+03</rscale>
<asrwt>0</asrwt>
<pdfrwt beam="1">  1       21 0.14806992E-01 0.12499940E+03</pdfrwt>
<pdfrwt beam="2">  1       21 0.62439917E-02 0.12499940E+03</pdfrwt>
<totfact> 0.72455986E+06</totfact>
</mgrwt>
</event>
<event>
 5    1  0.1829803E-009  0.1250008E+03  0.7818608E-02  0.1235068E+00
         21   -1    0    0  502  501  0.00000000000E+00  0.00000000000E+00  0.13131774500E+02  0.13131774500E+02  0.00000000000E+00 0. -1.
         21   -1    0    0  501  502 -0.00000000000E+00 -0.00000000000E+00 -0.29746922194E+03  0.29746922194E+03  0.00000000000E+00 0. -1.
         25    2    1    2    0    0  0.00000000000E+00  0.00000000000E+00 -0.28433744744E+03  0.31060099644E+03  0.12500077989E+03 0.  0.
        -11    1    3    3    0    0 -0.49540422884E+02 -0.18673129853E+02 -0.59631732255E+02  0.79742603231E+02  0.51100000000E-03 0.  1.
         11    1    3    3    0    0  0.49540422884E+02  0.18673129853E+02 -0.22470571518E+03  0.23085839321E+03  0.51100000000E-03 0.  1.
<mgrwt>
<rscale>  0 0.12500078E+03</rscale>
<asrwt>0</asrwt>
<pdfrwt beam="1">  1       21 0.20202731E-02 0.12500078E+03</pdfrwt>
<pdfrwt beam="2">  1       21 0.45764494E-01 0.12500078E+03</pdfrwt>
<totfact> 0.54585468E+06</totfact>
</mgrwt>
</event>
<event>
 5    1  0.1829803E-009  0.1249900E+03  0.7818608E-02  0.1235085E+00
         21   -1    0    0  502  501  0.00000000000E+00  0.00000000000E+00  0.13451588312E+02  0.13451588312E+02  0.00000000000E+00 0.  1.
         21   -1    0    0  501  502 -0.00000000000E+00 -0.00000000000E+00 -0.29034663463E+03  0.29034663463E+03  0.00000000000E+00 0.  1.
         25    2    1    2    0    0  0.00000000000E+00  0.00000000000E+00 -0.27689504632E+03  0.30379822295E+03  0.12498997395E+03 0.  0.
        -11    1    3    3    0    0  0.17967995421E+02 -0.45310704710E+02 -0.43383704858E+02  0.65253771295E+02  0.51100000000E-03 0.  1.
         11    1    3    3    0    0 -0.17967995421E+02  0.45310704710E+02 -0.23351134146E+03  0.23854445165E+03  0.51100000000E-03 0.  1.
<mgrwt>
<rscale>  0 0.12498997E+03</rscale>
<asrwt>0</asrwt>
<pdfrwt beam="1">  1       21 0.20694750E-02 0.12498997E+03</pdfrwt>
<pdfrwt beam="2">  1       21 0.44668716E-01 0.12498997E+03</pdfrwt>
<totfact> 0.55155885E+06</totfact>
</mgrwt>
</event>
<event>
 5    1  0.1829803E-009  0.1250065E+03  0.7818608E-02  0.1235059E+00
         21   -1    0    0  502  501  0.00000000000E+00  0.00000000000E+00  0.25104219261E+02  0.25104219261E+02  0.00000000000E+00 0. -1.
         21   -1    0    0  501  502 -0.00000000000E+00 -0.00000000000E+00 -0.15561745922E+03  0.15561745922E+03  0.00000000000E+00 0. -1.
         25    2    1    2    0    0  0.00000000000E+00  0.00000000000E+00 -0.13051323996E+03  0.18072167848E+03  0.12500647690E+03 0.  0.
        -11    1    3    3    0    0 -0.13502282637E+02 -0.31689209043E+02  0.10143691815E+02  0.35908384676E+02  0.51100000000E-03 0. -1.
         11    1    3    3    0    0  0.13502282637E+02  0.31689209043E+02 -0.14065693177E+03  0.14481329380E+03  0.51100000000E-03 0. -1.
<mgrwt>
<rscale>  0 0.12500648E+03</rscale>
<asrwt>0</asrwt>
<pdfrwt beam="1">  1       21 0.38621877E-02 0.12500648E+03</pdfrwt>
<pdfrwt beam="2">  1       21 0.23941147E-01 0.12500648E+03</pdfrwt>
<totfact> 0.67057828E+06</totfact>
</mgrwt>
</event>
<event>
 5    1  0.1829803E-009  0.1250002E+03  0.7818608E-02  0.1235069E+00
         21   -1    0    0  502  501  0.00000000000E+00  0.00000000000E+00  0.31046365047E+02  0.31046365047E+02  0.00000000000E+00 0. -1.
         21   -1    0    0  501  502 -0.00000000000E+00 -0.00000000000E+00 -0.12582032131E+03  0.12582032131E+03  0.00000000000E+00 0. -1.
         25    2    1    2    0    0  0.00000000000E+00  0.00000000000E+00 -0.94773956260E+02  0.15686668635E+03  0.12500021801E+03 0.  0.
        -11    1    3    3    0    0 -0.51687243961E+02 -0.11468700092E+02 -0.57058493186E+01  0.53250905971E+02  0.51100000000E-03 0. -1.
         11    1    3    3    0    0  0.51687243961E+02  0.11468700092E+02 -0.89068106942E+02  0.10361578038E+03  0.51100000000E-03 0. -1.
<mgrwt>
<rscale>  0 0.12500022E+03</rscale>
<asrwt>0</asrwt>
<pdfrwt beam="1">  1       21 0.47763638E-02 0.12500022E+03</pdfrwt>
<pdfrwt beam="2">  1       21 0.19356973E-01 0.12500022E+03</pdfrwt>
<totfact> 0.69904006E+06</totfact>
</mgrwt>
</event>
<event>
 5    1  0.1829803E-009  0.1250261E+03  0.7818608E-02  0.1235029E+00
         21   -1    0    0  502  501  0.00000000000E+00  0.00000000000E+00  0.43721683738E+02  0.43721683738E+02  0.00000000000E+00 0.  1.
         21   -1    0    0  501  502 -0.00000000000E+00 -0.00000000000E+00 -0.89380798944E+02  0.89380798944E+02  0.00000000000E+00 0.  1.
         25    2    1    2    0    0  0.00000000000E+00  0.00000000000E+00 -0.45659115206E+02  0.13310248268E+03  0.12502606166E+03 0.  0.
        -11    1    3    3    0    0  0.30284422450E+02 -0.43164937024E+02 -0.58577242674E+02  0.78814030420E+02  0.51100000000E-03 0.  1.
         11    1    3    3    0    0 -0.30284422450E+02  0.43164937024E+02  0.12918127469E+02  0.54288452262E+02  0.51100000000E-03 0.  1.
<mgrwt>
<rscale>  0 0.12502606E+03</rscale>
<asrwt>0</asrwt>
<pdfrwt beam="1">  1       21 0.67264129E-02 0.12502606E+03</pdfrwt>
<pdfrwt beam="2">  1       21 0.13750892E-01 0.12502606E+03</pdfrwt>
<totfact> 0.72900240E+06</totfact>
</mgrwt>
</event>
<event>
 5    1  0.1829803E-009  0.1249856E+03  0.7818608E-02  0.1235092E+00
         21   -1    0    0  502  501  0.00000000000E+00  0.00000000000E+00  0.11480289395E+03  0.11480289395E+03  0.00000000000E+00 0.  1.
         21   -1    0    0  501  502 -0.00000000000E+00 -0.00000000000E+00 -0.34017897570E+02  0.34017897570E+02  0.00000000000E+00 0.  1.
         25    2    1    2    0    0  0.00000000000E+00  0.00000000000E+00  0.80784996381E+02  0.14882079152E+03  0.12498564857E+03 0.  0.
        -11    1    3    3    0    0 -0.50500381704E+02 -0.35592004273E+02  0.51579643795E+02  0.80483159573E+02  0.51100000000E-03 0.  1.
         11    1    3    3    0    0  0.50500381704E+02  0.35592004273E+02  0.29205352586E+02  0.68337631949E+02  0.51100000000E-03 0.  1.
<mgrwt>
<rscale>  0 0.12498565E+03</rscale>
<asrwt>0</asrwt>
<pdfrwt beam="1">  1       21 0.17661984E-01 0.12498565E+03</pdfrwt>
<pdfrwt beam="2">  1       21 0.52335228E-02 0.12498565E+03</pdfrwt>
<totfact> 0.70933560E+06</totfact>
</mgrwt>
</event>
<event>
 5    1  0.1829803E-009  0.1250005E+03  0.7818608E-02  0.1235069E+00
         21   -1    0    0  502  501  0.00000000000E+00  0.00000000000E+00  0.74429677964E+01  0.74429677964E+01  0.00000000000E+00 0. -1.
         21   -1    0    0  501  502 -0.00000000000E+00 -0.00000000000E+00 -0.52482808624E+03  0.52482808624E+03  0.00000000000E+00 0. -1.
         25    2    1    2    0    0  0.00000000000E+00  0.00000000000E+00 -0.51738511844E+03  0.53227105403E+03  0.12500045671E+03 0.  0.
        -11    1    3    3    0    0 -0.60067088898E+02  0.15449976200E+02 -0.29154431515E+03  0.29806852338E+03  0.51100000000E-03 0. -1.
         11    1    3    3    0    0  0.60067088898E+02 -0.15449976200E+02 -0.22584080329E+03  0.23420253065E+03  0.51100000000E-03 0. -1.
<mgrwt>
<rscale>  0 0.12500046E+03</rscale>
<asrwt>0</asrwt>
<pdfrwt beam="1">  1       21 0.11450717E-02 0.12500046E+03</pdfrwt>
<pdfrwt beam="2">  1       21 0.80742801E-01 0.12500046E+03</pdfrwt>
<totfact> 0.40345863E+06</totfact>
</mgrwt>
</event>
<event>
 5    1  0.1829803E-009  0.1250010E+03  0.7818608E-02  0.1235068E+00
         21   -1    0    0  502  501  0.00000000000E+00  0.00000000000E+00  0.70139257556E+02  0.70139257556E+02  0.00000000000E+00 0.  1.
         21   -1    0    0  501  502 -0.00000000000E+00 -0.00000000000E+00 -0.55693661298E+02  0.55693661298E+02  0.00000000000E+00 0.  1.
         25    2    1    2    0    0  0.00000000000E+00  0.00000000000E+00  0.14445596257E+02  0.12583291885E+03  0.12500099286E+03 0.  0.
        -11    1    3    3    0    0 -0.57500998808E+02 -0.17720992369E+02 -0.97987175740E+01  0.60962392512E+02  0.51100000000E-03 0. -1.
         11    1    3    3    0    0  0.57500998808E+02  0.17720992369E+02  0.24244313831E+02  0.64870526342E+02  0.51100000000E-03 0. -1.
<mgrwt>
<rscale>  0 0.12500099E+03</rscale>
<asrwt>0</asrwt>
<pdfrwt beam="1">  1       21 0.10790655E-01 0.12500099E+03</pdfrwt>
<pdfrwt beam="2">  1       21 0.85682556E-02 0.12500099E+03</pdfrwt>
<totfact> 0.73927243E+06</totfact>
</mgrwt>
</event>
<event>
 5    1  0.1829803E-009  0.1250007E+03  0.7818608E-02  0.1235068E+00
         21   -1    0    0  502  501  0.00000000000E+00  0.00000000000E+00  0.21846951093E+03  0.21846951093E+03  0.00000000000E+00 0.  1.
         21   -1    0    0  501  502 -0.00000000000E+00 -0.00000000000E+00 -0.17880276155E+02  0.17880276155E+02  0.00000000000E+00 0.  1.
         25    2    1    2    0    0  0.00000000000E+00  0.00000000000E+00  0.20058923478E+03  0.23634978709E+03  0.12500072299E+03 0.  0.
        -11    1    3    3    0    0  0.29626969143E+02  0.54949580371E+02  0.94596629040E+02  0.11333903083E+03  0.51100000000E-03 0. -1.
         11    1    3    3    0    0 -0.29626969143E+02 -0.54949580371E+02  0.10599260574E+03  0.12301075626E+03  0.51100000000E-03 0. -1.
<mgrwt>
<rscale>  0 0.12500072E+03</rscale>
<asrwt>0</asrwt>
<pdfrwt beam="1">  1       21 0.33610692E-01 0.12500072E+03</pdfrwt>
<pdfrwt beam="2">  1       21 0.27508119E-02 0.12500072E+03</pdfrwt>
<totfact> 0.61186569E+06</totfact>
</mgrwt>
</event>
<event>
 5    1  0.1829803E-009  0.1250011E+03  0.7818608E-02  0.1235068E+00
         21   -1    0    0  502  501  0.00000000000E+00  0.00000000000E+00  0.46336991080E+02  0.46336991080E+02  0.00000000000E+00 0. -1.
         21   -1    0    0  501  502 -0.00000000000E+00 -0.00000000000E+00 -0.84302355575E+02  0.84302355575E+02  0.00000000000E+00 0. -1.
         25    2    1    2    0    0  0.00000000000E+00  0.00000000000E+00 -0.37965364495E+02  0.13063934665E+03  0.12500107997E+03 0.  0.
        -11    1    3    3    0    0 -0.54449658040E+02  0.28781634564E+02 -0.30100650033E+02  0.68550688410E+02  0.51100000000E-03 0.  1.
         11    1    3    3    0    0  0.54449658040E+02 -0.28781634564E+02 -0.78647144620E+01  0.62088658245E+02  0.51100000000E-03 0.  1.
<mgrwt>
<rscale>  0 0.12500108E+03</rscale>
<asrwt>0</asrwt>
<pdfrwt beam="1">  1       21 0.71287680E-02 0.12500108E+03</pdfrwt>
<pdfrwt beam="2">  1       21 0.12969593E-01 0.12500108E+03</pdfrwt>
<totfact> 0.73277295E+06</totfact>
</mgrwt>
</event>
<event>
 5    1  0.1829803E-009  0.1250040E+03  0.7818608E-02  0.1235063E+00
         21   -1    0    0  502  501  0.00000000000E+00  0.00000000000E+00  0.23300029425E+03  0.23300029425E+03  0.00000000000E+00 0. -1.
         21   -1    0    0  501  502 -0.00000000000E+00 -0.00000000000E+00 -0.16766074427E+02  0.16766074427E+02  0.00000000000E+00 0. -1.
         25    2    1    2    0    0  0.00000000000E+00  0.00000000000E+00  0.21623421983E+03  0.24976636868E+03  0.12500400434E+03 0.  0.
        -11    1    3    3    0    0  0.33179150635E+02  0.45373975977E+02  0.53512951025E+02  0.77609855434E+02  0.51100000000E-03 0.  1.
         11    1    3    3    0    0 -0.33179150635E+02 -0.45373975977E+02  0.16272126880E+03  0.17215651325E+03  0.51100000000E-03 0.  1.
<mgrwt>
<rscale>  0 0.12500400E+03</rscale>
<asrwt>0</asrwt>
<pdfrwt beam="1">  1       21 0.35846197E-01 0.12500400E+03</pdfrwt>
<pdfrwt beam="2">  1       21 0.25793962E-02 0.12500400E+03</pdfrwt>
<totfact> 0.59894147E+06</totfact>
</mgrwt>
</event>
<event>
 5    1  0.1829803E-009  0.1249979E+03  0.7818608E-02  0.1235072E+00
         21   -1    0    0  502  501  0.00000000000E+00  0.00000000000E+00  0.27092999122E+02  0.27092999122E+02  0.00000000000E+00 0. -1.
         21   -1    0    0  501  502 -0.00000000000E+00 -0.00000000000E+00 -0.14417457594E+03  0.14417457594E+03  0.00000000000E+00 0. -1.
         25    2    1    2    0    0  0.00000000000E+00  0.00000000000E+00 -0.11708157682E+03  0.17126757506E+03  0.12499794653E+03 0.  0.
        -11    1    3    3    0    0 -0.32915614830E+02  0.12444758122E+02 -0.12931089951E+03  0.13401350095E+03  0.51100000000E-03 0.  1.
         11    1    3    3    0    0  0.32915614830E+02 -0.12444758122E+02  0.12229322690E+02  0.37254074114E+02  0.51100000000E-03 0.  1.
<mgrwt>
<rscale>  0 0.12499795E+03</rscale>
<asrwt>0</asrwt>
<pdfrwt beam="1">  1       21 0.41681538E-02 0.12499795E+03</pdfrwt>
<pdfrwt beam="2">  1       21 0.22180704E-01 0.12499795E+03</pdfrwt>
<totfact> 0.68171242E+06</totfact>
</mgrwt>
</event>
<event>
 5    1  0.1829803E-009  0.1249990E+03  0.7818608E-02  0.1235071E+00
         21   -1    0    0  502  501  0.00000000000E+00  0.00000000000E+00  0.77193694475E+01  0.77193694475E+01  0.00000000000E+00 0.  1.
         21   -1    0    0  501  502 -0.00000000000E+00 -0.00000000000E+00 -0.50602407467E+03  0.50602407467E+03  0.00000000000E+00 0.  1.
         25    2    1    2    0    0  0.00000000000E+00  0.00000000000E+00 -0.49830470522E+03  0.51374344412E+03  0.12499898850E+03 0.  0.
        -11    1    3    3    0    0 -0.57764737434E+02  0.12815887192E+02 -0.16642272395E+03  0.17662823925E+03  0.51100000000E-03 0.  1.
         11    1    3    3    0    0  0.57764737434E+02 -0.12815887192E+02 -0.33188198127E+03  0.33711520486E+03  0.51100000000E-03 0.  1.
<mgrwt>
<rscale>  0 0.12499899E+03</rscale>
<asrwt>0</asrwt>
<pdfrwt beam="1">  1       21 0.11875951E-02 0.12499899E+03</pdfrwt>
<pdfrwt beam="2">  1       21 0.77849871E-01 0.12499899E+03</pdfrwt>
<totfact> 0.41309443E+06</totfact>
</mgrwt>
</event>
<event>
 5    1  0.1829803E-009  0.1249992E+03  0.7818608E-02  0.1235071E+00
         21   -1    0    0  502  501  0.00000000000E+00  0.00000000000E+00  0.21797635825E+03  0.21797635825E+03  0.00000000000E+00 0.  1.
         21   -1    0    0  501  502 -0.00000000000E+00 -0.00000000000E+00 -0.17920287805E+02  0.17920287805E+02  0.00000000000E+00 0.  1.
         25    2    1    2    0    0  0.00000000000E+00  0.00000000000E+00  0.20005607044E+03  0.23589664605E+03  0.12499918519E+03 0.  0.
        -11    1    3    3    0    0 -0.52075448665E+02  0.30148690659E+02  0.13190991957E+03  0.14498628481E+03  0.51100000000E-03 0. -1.
         11    1    3    3    0    0  0.52075448665E+02 -0.30148690659E+02  0.68146150875E+02  0.90910361244E+02  0.51100000000E-03 0. -1.
<mgrwt>
<rscale>  0 0.12499919E+03</rscale>
<asrwt>0</asrwt>
<pdfrwt beam="1">  1       21 0.33534823E-01 0.12499919E+03</pdfrwt>
<pdfrwt beam="2">  1       21 0.27569675E-02 0.12499919E+03</pdfrwt>
<totfact> 0.61233270E+06</totfact>
</mgrwt>
</event>
<event>
 5    1  0.1829803E-009  0.1250025E+03  0.7818608E-02  0.1235065E+00
         21   -1    0    0  502  501  0.00000000000E+00  0.00000000000E+00  0.37286062595E+03  0.37286062595E+03  0.00000000000E+00 0.  1.
         21   -1    0    0  501  502 -0.00000000000E+00 -0.00000000000E+00 -0.10476857471E+02  0.10476857471E+02  0.00000000000E+00 0.  1.
         25    2    1    2    0    0  0.00000000000E+00  0.00000000000E+00  0.36238376848E+03  0.38333748342E+03  0.12500252213E+03 0.  0.
        -11    1    3    3    0    0 -0.40106629120E+02  0.45144648360E+02  0.23062344992E+03  0.23839831507E+03  0.51100000000E-03 0.  1.
         11    1    3    3    0    0  0.40106629120E+02 -0.45144648360E+02  0.13176031856E+03  0.14493916835E+03  0.51100000000E-03 0.  1.
<mgrwt>
<rscale>  0 0.12500252E+03</rscale>
<asrwt>0</asrwt>
<pdfrwt beam="1">  1       21 0.57363163E-01 0.12500252E+03</pdfrwt>
<pdfrwt beam="2">  1       21 0.16118245E-02 0.12500252E+03</pdfrwt>
<totfact> 0.49163459E+06</totfact>
</mgrwt>
</event>
<event>
 5    1  0.1829803E-009  0.1249987E+03  0.7818608E-02  0.1235071E+00
         21   -1    0    0  502  501  0.00000000000E+00  0.00000000000E+00  0.24189901998E+03  0.24189901998E+03  0.00000000000E+00 0.  1.
         21   -1    0    0  501  502 -0.00000000000E+00 -0.00000000000E+00 -0.16147919557E+02  0.16147919557E+02  0.00000000000E+00 0.  1.
         25    2    1    2    0    0  0.00000000000E+00  0.00000000000E+00  0.22575110042E+03  0.25804693954E+03  0.12499865464E+03 0.  0.
        -11    1    3    3    0    0  0.21272132446E+02  0.46612089094E+02  0.18676182600E+03  0.19366251604E+03  0.51100000000E-03 0. -1.
         11    1    3    3    0    0 -0.21272132446E+02 -0.46612089094E+02  0.38989274423E+02  0.64384423495E+02  0.51100000000E-03 0. -1.
<mgrwt>
<rscale>  0 0.12499865E+03</rscale>
<asrwt>0</asrwt>
<pdfrwt beam="1">  1       21 0.37215231E-01 0.12499865E+03</pdfrwt>
<pdfrwt beam="2">  1       21 0.24842955E-02 0.12499865E+03</pdfrwt>
<totfact> 0.59130751E+06</totfact>
</mgrwt>
</event>
<event>
 5    1  0.1829803E-009  0.1249998E+03  0.7818608E-02  0.1235070E+00
         21   -1    0    0  502  501  0.00000000000E+00  0.00000000000E+00  0.95172808162E+02  0.95172808162E+02  0.00000000000E+00 0. -1.
         21   -1    0    0  501  502 -0.00000000000E+00 -0.00000000000E+00 -0.41043601768E+02  0.41043601768E+02  0.00000000000E+00 0. -1.
         25    2    1    2    0    0  0.00000000000E+00  0.00000000000E+00  0.54129206394E+02  0.13621640993E+03  0.12499975740E+03 0.  0.
        -11    1    3    3    0    0 -0.13560340957E+02  0.60976909471E+02  0.29289501880E+02  0.68992327517E+02  0.51100000000E-03 0.  1.
         11    1    3    3    0    0  0.13560340957E+02 -0.60976909471E+02  0.24839704514E+02  0.67224082412E+02  0.51100000000E-03 0.  1.
<mgrwt>
<rscale>  0 0.12499976E+03</rscale>
<asrwt>0</asrwt>
<pdfrwt beam="1">  1       21 0.14641970E-01 0.12499976E+03</pdfrwt>
<pdfrwt beam="2">  1       21 0.63144003E-02 0.12499976E+03</pdfrwt>
<totfact> 0.72536258E+06</totfact>
</mgrwt>
</event>
<event>
 5    1  0.1829803E-009  0.1250008E+03  0.7818608E-02  0.1235068E+00
         21   -1    0    0  502  501  0.00000000000E+00  0.00000000000E+00  0.30422183597E+03  0.30422183597E+03  0.00000000000E+00 0.  1.
         21   -1    0    0  501  502 -0.00000000000E+00 -0.00000000000E+00 -0.12840294172E+02  0.12840294172E+02  0.00000000000E+00 0.  1.
         25    2    1    2    0    0  0.00000000000E+00  0.00000000000E+00  0.29138154180E+03  0.31706213014E+03  0.12500076587E+03 0.  0.
        -11    1    3    3    0    0 -0.39916950630E+02 -0.26039388200E+02  0.24825013699E+03  0.25278358966E+03  0.51100000000E-03 0.  1.
         11    1    3    3    0    0  0.39916950630E+02  0.26039388200E+02  0.43131404807E+02  0.64278540481E+02  0.51100000000E-03 0.  1.
<mgrwt>
<rscale>  0 0.12500077E+03</rscale>
<asrwt>0</asrwt>
<pdfrwt beam="1">  1       21 0.46803354E-01 0.12500077E+03</pdfrwt>
<pdfrwt beam="2">  1       21 0.19754301E-02 0.12500077E+03</pdfrwt>
<totfact> 0.54065941E+06</totfact>
</mgrwt>
</event>
<event>
 5    1  0.1829803E-009  0.1250011E+03  0.7818608E-02  0.1235068E+00
         21   -1    0    0  502  501  0.00000000000E+00  0.00000000000E+00  0.48412091431E+03  0.48412091431E+03  0.00000000000E+00 0.  1.
         21   -1    0    0  501  502 -0.00000000000E+00 -0.00000000000E+00 -0.80688958438E+01  0.80688958438E+01  0.00000000000E+00 0.  1.
         25    2    1    2    0    0  0.00000000000E+00  0.00000000000E+00  0.47605201846E+03  0.49218981015E+03  0.12500113973E+03 0.  0.
        -11    1    3    3    0    0  0.34707662195E+02  0.51830062242E+02  0.22260229837E+03  0.23117690284E+03  0.51100000000E-03 0. -1.
         11    1    3    3    0    0 -0.34707662195E+02 -0.51830062242E+02  0.25344972010E+03  0.26101290731E+03  0.51100000000E-03 0. -1.
<mgrwt>
<rscale>  0 0.12500114E+03</rscale>
<asrwt>0</asrwt>
<pdfrwt beam="1">  1       21 0.74480118E-01 0.12500114E+03</pdfrwt>
<pdfrwt beam="2">  1       21 0.12413690E-02 0.12500114E+03</pdfrwt>
<totfact> 0.42469629E+06</totfact>
</mgrwt>
</event>
<event>
 5    1  0.1829803E-009  0.1250010E+03  0.7818608E-02  0.1235068E+00
         21   -1    0    0  502  501  0.00000000000E+00  0.00000000000E+00  0.22180786733E+03  0.22180786733E+03  0.00000000000E+00 0. -1.
         21   -1    0    0  501  502 -0.00000000000E+00 -0.00000000000E+00 -0.17611234643E+02  0.17611234643E+02  0.00000000000E+00 0. -1.
         25    2    1    2    0    0  0.00000000000E+00  0.00000000000E+00  0.20419663268E+03  0.23941910197E+03  0.12500096635E+03 0.  0.
        -11    1    3    3    0    0  0.56274837488E+02 -0.13793748094E+02  0.57212927872E+02  0.81427537950E+02  0.51100000000E-03 0.  1.
         11    1    3    3    0    0 -0.56274837488E+02  0.13793748094E+02  0.14698370481E+03  0.15799156402E+03  0.51100000000E-03 0.  1.
<mgrwt>
<rscale>  0 0.12500097E+03</rscale>
<asrwt>0</asrwt>
<pdfrwt beam="1">  1       21 0.34124285E-01 0.12500097E+03</pdfrwt>
<pdfrwt beam="2">  1       21 0.27094209E-02 0.12500097E+03</pdfrwt>
<totfact> 0.60887437E+06</totfact>
</mgrwt>
</event>
<event>
 5    1  0.1829803E-009  0.1249979E+03  0.7818608E-02  0.1235073E+00
         21   -1    0    0  502  501  0.00000000000E+00  0.00000000000E+00  0.23044602593E+02  0.23044602593E+02  0.00000000000E+00 0.  1.
         21   -1    0    0  501  502 -0.00000000000E+00 -0.00000000000E+00 -0.16950253756E+03  0.16950253756E+03  0.00000000000E+00 0.  1.
         25    2    1    2    0    0  0.00000000000E+00  0.00000000000E+00 -0.14645793496E+03  0.19254714015E+03  0.12499789785E+03 0.  0.
        -11    1    3    3    0    0  0.19907190465E+02  0.57788843624E+02 -0.53128511888E+02  0.80984476631E+02  0.51100000000E-03 0.  1.
         11    1    3    3    0    0 -0.19907190465E+02 -0.57788843624E+02 -0.93329423075E+02  0.11156266352E+03  0.51100000000E-03 0.  1.
<mgrwt>
<rscale>  0 0.12499790E+03</rscale>
<asrwt>0</asrwt>
<pdfrwt beam="1">  1       21 0.35453236E-02 0.12499790E+03</pdfrwt>
<pdfrwt beam="2">  1       21 0.26077313E-01 0.12499790E+03</pdfrwt>
<totfact> 0.65743988E+06</totfact>
</mgrwt>
</event>
<event>
 5    1  0.1829803E-009  0.1250053E+03  0.7818608E-02  0.1235061E+00
         21   -1    0    0  502  501  0.00000000000E+00  0.00000000000E+00  0.72757785938E+02  0.72757785938E+02  0.00000000000E+00 0.  1.
         21   -1    0    0  501  502 -0.00000000000E+00 -0.00000000000E+00 -0.53692970467E+02  0.53692970467E+02  0.00000000000E+00 0.  1.
         25    2    1    2    0    0  0.00000000000E+00  0.00000000000E+00  0.19064815471E+02  0.12645075641E+03  0.12500530631E+03 0.  0.
        -11    1    3    3    0    0 -0.32653294015E+02 -0.47715304538E+02  0.33547047079E+02  0.66846034027E+02  0.51100000000E-03 0.  1.
         11    1    3    3    0    0  0.32653294015E+02  0.47715304538E+02 -0.14482231609E+02  0.59604722378E+02  0.51100000000E-03 0.  1.
<mgrwt>
<rscale>  0 0.12500531E+03</rscale>
<asrwt>0</asrwt>
<pdfrwt beam="1">  1       21 0.11193506E-01 0.12500531E+03</pdfrwt>
<pdfrwt beam="2">  1       21 0.82604570E-02 0.12500531E+03</pdfrwt>
<totfact> 0.73834115E+06</totfact>
</mgrwt>
</event>
<event>
 5    1  0.1829803E-009  0.1250015E+03  0.7818608E-02  0.1235067E+00
         21   -1    0    0  502  501  0.00000000000E+00  0.00000000000E+00  0.10048110454E+02  0.10048110454E+02  0.00000000000E+00 0.  1.
         21   -1    0    0  501  502 -0.00000000000E+00 -0.00000000000E+00 -0.38876418679E+03  0.38876418679E+03  0.00000000000E+00 0.  1.
         25    2    1    2    0    0  0.00000000000E+00  0.00000000000E+00 -0.37871607634E+03  0.39881229725E+03  0.12500152782E+03 0.  0.
        -11    1    3    3    0    0  0.36412042123E+02 -0.49536269361E+02 -0.15345059843E+03  0.16530809101E+03  0.51100000000E-03 0. -1.
         11    1    3    3    0    0 -0.36412042123E+02  0.49536269361E+02 -0.22526547791E+03  0.23350420624E+03  0.51100000000E-03 0. -1.
<mgrwt>
<rscale>  0 0.12500153E+03</rscale>
<asrwt>0</asrwt>
<pdfrwt beam="1">  1       21 0.15458629E-02 0.12500153E+03</pdfrwt>
<pdfrwt beam="2">  1       21 0.59809886E-01 0.12500153E+03</pdfrwt>
<totfact> 0.48118387E+06</totfact>
</mgrwt>
</event>
<event>
 5    1  0.1829803E-009  0.1249957E+03  0.7818608E-02  0.1235076E+00
         21   -1    0    0  502  501  0.00000000000E+00  0.00000000000E+00  0.21202229142E+03  0.21202229142E+03  0.00000000000E+00 0. -1.
         21   -1    0    0  501  502 -0.00000000000E+00 -0.00000000000E+00 -0.18422504823E+02  0.18422504823E+02  0.00000000000E+00 0. -1.
         25    2    1    2    0    0  0.00000000000E+00  0.00000000000E+00  0.19359978659E+03  0.23044479624E+03  0.12499570690E+03 0.  0.
        -11    1    3    3    0    0  0.19907352139E+02 -0.49090971997E+02  0.15793911093E+03  0.16658628083E+03  0.51100000000E-03 0. -1.
         11    1    3    3    0    0 -0.19907352139E+02  0.49090971997E+02  0.35660675667E+02  0.63858515408E+02  0.51100000000E-03 0. -1.
<mgrwt>
<rscale>  0 0.12499571E+03</rscale>
<asrwt>0</asrwt>
<pdfrwt beam="1">  1       21 0.32618812E-01 0.12499571E+03</pdfrwt>
<pdfrwt beam="2">  1       21 0.28342317E-02 0.12499571E+03</pdfrwt>
<totfact> 0.61776438E+06</totfact>
</mgrwt>
</event>
<event>
 5    1  0.1829803E-009  0.1249994E+03  0.7818608E-02  0.1235070E+00
         21   -1    0    0  502  501  0.00000000000E+00  0.00000000000E+00  0.13740706516E+03  0.13740706516E+03  0.00000000000E+00 0. -1.
         21   -1    0    0  501  502 -0.00000000000E+00 -0.00000000000E+00 -0.28428015969E+02  0.28428015969E+02  0.00000000000E+00 0. -1.
         25    2    1    2    0    0  0.00000000000E+00  0.00000000000E+00  0.10897904919E+03  0.16583508113E+03  0.12499936388E+03 0.  0.
        -11    1    3    3    0    0  0.70802059020E+01  0.43097419640E+02 -0.48223551445E+01  0.43940550801E+02  0.51100000000E-03 0. -1.
         11    1    3    3    0    0 -0.70802059020E+01 -0.43097419640E+02  0.11380140434E+03  0.12189453033E+03  0.51100000000E-03 0. -1.
<mgrwt>
<rscale>  0 0.12499936E+03</rscale>
<asrwt>0</asrwt>
<pdfrwt beam="1">  1       21 0.21139548E-01 0.12499936E+03</pdfrwt>
<pdfrwt beam="2">  1       21 0.43735410E-02 0.12499936E+03</pdfrwt>
<totfact> 0.68814560E+06</totfact>
</mgrwt>
</event>
<event>
 5    1  0.1829803E-009  0.1250107E+03  0.7818608E-02  0.1235053E+00
         21   -1    0    0  502  501  0.00000000000E+00  0.00000000000E+00  0.26832570714E+02  0.26832570714E+02  0.00000000000E+00 0. -1.
         21   -1    0    0  501  502 -0.00000000000E+00 -0.00000000000E+00 -0.14560353887E+03  0.14560353887E+03  0.00000000000E+00 0. -1.
         25    2    1    2    0    0  0.00000000000E+00  0.00000000000E+00 -0.11877096815E+03  0.17243610958E+03  0.12501067559E+03 0.  0.
        -11    1    3    3    0    0  0.30810608578E+02 -0.48516967864E+02 -0.25493141604E+02  0.62873603688E+02  0.51100000000E-03 0.  1.
         11    1    3    3    0    0 -0.30810608578E+02  0.48516967864E+02 -0.93277826550E+02  0.10956250589E+03  0.51100000000E-03 0.  1.
<mgrwt>
<rscale>  0 0.12501068E+03</rscale>
<asrwt>0</asrwt>
<pdfrwt beam="1">  1       21 0.41280878E-02 0.12501068E+03</pdfrwt>
<pdfrwt beam="2">  1       21 0.22400545E-01 0.12501068E+03</pdfrwt>
<totfact> 0.68011585E+06</totfact>
</mgrwt>
</event>
<event>
 5    1  0.1829803E-009  0.1249975E+03  0.7818608E-02  0.1235073E+00
         21   -1    0    0  502  501  0.00000000000E+00  0.00000000000E+00  0.33850896251E+02  0.33850896251E+02  0.00000000000E+00 0. -1.
         21   -1    0    0  501  502 -0.00000000000E+00 -0.00000000000E+00 -0.11539108722E+03  0.11539108722E+03  0.00000000000E+00 0. -1.
         25    2    1    2    0    0  0.00000000000E+00  0.00000000000E+00 -0.81540190968E+02  0.14924198347E+03  0.12499746752E+03 0.  0.
        -11    1    3    3    0    0 -0.34264513459E+02 -0.51487796102E+02 -0.51518501083E+02  0.80493515168E+02  0.51100000000E-03 0. -1.
         11    1    3    3    0    0  0.34264513459E+02  0.51487796102E+02 -0.30021689885E+02  0.68748468301E+02  0.51100000000E-03 0. -1.
<mgrwt>
<rscale>  0 0.12499747E+03</rscale>
<asrwt>0</asrwt>
<pdfrwt beam="1">  1       21 0.52078302E-02 0.12499747E+03</pdfrwt>
<pdfrwt beam="2">  1       21 0.17752475E-01 0.12499747E+03</pdfrwt>
<totfact> 0.70859120E+06</totfact>
</mgrwt>
</event>
<event>
 5    1  0.1829803E-009  0.1249979E+03  0.7818608E-02  0.1235073E+00
         21   -1    0    0  502  501  0.00000000000E+00  0.00000000000E+00  0.94066547850E+01  0.94066547850E+01  0.00000000000E+00 0. -1.
         21   -1    0    0  501  502 -0.00000000000E+00 -0.00000000000E+00 -0.41525051544E+03  0.41525051544E+03  0.00000000000E+00 0. -1.
         25    2    1    2    0    0  0.00000000000E+00  0.00000000000E+00 -0.40584386066E+03  0.42465717023E+03  0.12499789195E+03 0.  0.
        -11    1    3    3    0    0 -0.43949443829E+01  0.61695432305E+02 -0.23339876735E+03  0.24145522670E+03  0.51100000000E-03 0.  1.
         11    1    3    3    0    0  0.43949443829E+01 -0.61695432305E+02 -0.17244509331E+03  0.18320194352E+03  0.51100000000E-03 0.  1.
<mgrwt>
<rscale>  0 0.12499789E+03</rscale>
<asrwt>0</asrwt>
<pdfrwt beam="1">  1       21 0.14471774E-02 0.12499789E+03</pdfrwt>
<pdfrwt beam="2">  1       21 0.63884704E-01 0.12499789E+03</pdfrwt>
<totfact> 0.46450185E+06</totfact>
</mgrwt>
</event>
<event>
 5    1  0.1829803E-009  0.1250006E+03  0.7818608E-02  0.1235068E+00
         21   -1    0    0  502  501  0.00000000000E+00  0.00000000000E+00  0.66028831340E+02  0.66028831340E+02  0.00000000000E+00 0. -1.
         21   -1    0    0  501  502 -0.00000000000E+00 -0.00000000000E+00 -0.59160292917E+02  0.59160292917E+02  0.00000000000E+00 0. -1.
         25    2    1    2    0    0  0.00000000000E+00  0.00000000000E+00  0.68685384229E+01  0.12518912426E+03  0.12500056005E+03 0.  0.
        -11    1    3    3    0    0 -0.49400310744E+02  0.33744931939E+02  0.21549503193E+02  0.63588459813E+02  0.51100000000E-03 0.  1.
         11    1    3    3    0    0  0.49400310744E+02 -0.33744931939E+02 -0.14680964770E+02  0.61600664445E+02  0.51100000000E-03 0.  1.
<mgrwt>
<rscale>  0 0.12500056E+03</rscale>
<asrwt>0</asrwt>
<pdfrwt beam="1">  1       21 0.10158282E-01 0.12500056E+03</pdfrwt>
<pdfrwt beam="2">  1       21 0.91015835E-02 0.12500056E+03</pdfrwt>
<totfact> 0.74016981E+06</totfact>
</mgrwt>
</event>
