<event>
 5    1  0.7431090E-001  0.9180153E+02  0.7818608E-02  0.1298547E+00
          3   -1    0    0  501    0  0.00000000000E+00  0.00000000000E+00  0.46723600678E+02  0.46723693233E+02  0.93000000000E-01 0. -1.
         -3   -1    0    0    0  501 -0.00000000000E+00 -0.00000000000E+00 -0.45092232408E+02  0.45092328311E+02  0.93000000000E-01 0.  1.
         23    2    1    2    0    0  0.00000000000E+00  0.00000000000E+00  0.16313682702E+01  0.91816021544E+02  0.91801527491E+02 0.  0.
        -11    1    3    3    0    0  0.17401157654E+02  0.40812640157E+02  0.12582244229E+02  0.46117076602E+02  0.51100000000E-03 0.  1.
         11    1    3    3    0    0 -0.17401157654E+02 -0.40812640157E+02 -0.10950875959E+02  0.45698944942E+02  0.51100000000E-03 0. -1.
<mgrwt>
<rscale>  0 0.91801527E+02</rscale>
<asrwt>0</asrwt>
<pdfrwt beam="1">  1        3 0.71882607E-02 0.91801527E+02</pdfrwt>
<pdfrwt beam="2">  1       -3 0.69372811E-02 0.91801527E+02</pdfrwt>
<totfact> 0.34637596E+04</totfact>
</mgrwt>
</event>
<event>
 5    1  0.7431090E-001  0.8683532E+02  0.7818608E-02  0.1310702E+00
         -3   -1    0    0    0  501 -0.00000000000E+00  0.00000000000E+00  0.21946376597E+02  0.21946573644E+02  0.93000000000E-01 0.  1.
          3   -1    0    0  501    0  0.00000000000E+00 -0.00000000000E+00 -0.85894817851E+02  0.85894868198E+02  0.93000000000E-01 0. -1.
         23    2    1    2    0    0  0.00000000000E+00  0.00000000000E+00 -0.63948441254E+02  0.10784144184E+03  0.86835323686E+02 0.  0.
        -11    1    3    3    0    0 -0.41003117732E+02  0.31308026657E+01 -0.14674855781E+02  0.43662443604E+02  0.51100000000E-03 0.  1.
         11    1    3    3    0    0  0.41003117732E+02 -0.31308026657E+01 -0.49273585474E+02  0.64178998237E+02  0.51100000000E-03 0. -1.
<mgrwt>
<rscale>  0 0.86835324E+02</rscale>
<asrwt>0</asrwt>
<pdfrwt beam="2">  1        3 0.13214606E-01 0.86835324E+02</pdfrwt>
<pdfrwt beam="1">  1       -3 0.33763847E-02 0.86835324E+02</pdfrwt>
<totfact> 0.38913982E+04</totfact>
</mgrwt>
</event>
<event>
 5    1  0.7431090E-001  0.9020158E+02  0.7818608E-02  0.1302364E+00
          3   -1    0    0  501    0  0.00000000000E+00  0.00000000000E+00  0.28582524738E+02  0.28582676036E+02  0.93000000000E-01 0. -1.
         -3   -1    0    0    0  501 -0.00000000000E+00 -0.00000000000E+00 -0.71164843719E+02  0.71164904487E+02  0.93000000000E-01 0.  1.
         23    2    1    2    0    0  0.00000000000E+00  0.00000000000E+00 -0.42582318981E+02  0.99747580523E+02  0.90201584966E+02 0.  0.
        -11    1    3    3    0    0  0.41828322148E+02 -0.15773172756E+02 -0.27896579550E+02  0.52693649174E+02  0.51100000000E-03 0.  1.
         11    1    3    3    0    0 -0.41828322148E+02  0.15773172756E+02 -0.14685739431E+02  0.47053931349E+02  0.51100000000E-03 0. -1.
<mgrwt>
<rscale>  0 0.90201585E+02</rscale>
<asrwt>0</asrwt>
<pdfrwt beam="1">  1        3 0.43973278E-02 0.90201585E+02</pdfrwt>
<pdfrwt beam="2">  1       -3 0.10948454E-01 0.90201585E+02</pdfrwt>
<totfact> 0.35719687E+04</totfact>
</mgrwt>
</event>
<event>
 5    1  0.7431090E-001  0.9088537E+02  0.7818608E-02  0.1300722E+00
          3   -1    0    0  501    0  0.00000000000E+00  0.00000000000E+00  0.23473107429E+03  0.23473109272E+03  0.93000000000E-01 0.  1.
         -3   -1    0    0    0  501 -0.00000000000E+00 -0.00000000000E+00 -0.87971972774E+01  0.87976888407E+01  0.93000000000E-01 0. -1.
         23    2    1    2    0    0  0.00000000000E+00  0.00000000000E+00  0.22593387702E+03  0.24352878156E+03  0.90885371009E+02 0.  0.
        -11    1    3    3    0    0  0.28017674347E+02  0.24249109155E+02  0.18345543340E+03  0.18716010636E+03  0.51100000000E-03 0.  1.
         11    1    3    3    0    0 -0.28017674347E+02 -0.24249109155E+02  0.42478443621E+02  0.56368675196E+02  0.51100000000E-03 0. -1.
<mgrwt>
<rscale>  0 0.90885371E+02</rscale>
<asrwt>0</asrwt>
<pdfrwt beam="1">  1        3 0.36112508E-01 0.90885371E+02</pdfrwt>
<pdfrwt beam="2">  1       -3 0.13534543E-02 0.90885371E+02</pdfrwt>
<totfact> 0.26622284E+04</totfact>
</mgrwt>
</event>
<event>
 5    1  0.7431090E-001  0.9174208E+02  0.7818608E-02  0.1298687E+00
          3   -1    0    0  501    0  0.00000000000E+00  0.00000000000E+00  0.44013786354E+02  0.44013884607E+02  0.93000000000E-01 0. -1.
         -3   -1    0    0    0  501 -0.00000000000E+00 -0.00000000000E+00 -0.47806465231E+02  0.47806555689E+02  0.93000000000E-01 0.  1.
         23    2    1    2    0    0  0.00000000000E+00  0.00000000000E+00 -0.37926788768E+01  0.91820440297E+02  0.91742077823E+02 0.  0.
        -11    1    3    3    0    0 -0.51070178802E+01  0.40033115038E+02 -0.23719098126E+02  0.46811617655E+02  0.51100000000E-03 0.  1.
         11    1    3    3    0    0  0.51070178802E+01 -0.40033115038E+02  0.19926419250E+02  0.45008822642E+02  0.51100000000E-03 0. -1.
<mgrwt>
<rscale>  0 0.91742078E+02</rscale>
<asrwt>0</asrwt>
<pdfrwt beam="1">  1        3 0.67713663E-02 0.91742078E+02</pdfrwt>
<pdfrwt beam="2">  1       -3 0.73548553E-02 0.91742078E+02</pdfrwt>
<totfact> 0.34698759E+04</totfact>
</mgrwt>
</event>
<event>
 5    1  0.7431090E-001  0.9002704E+02  0.7818608E-02  0.1302786E+00
          3   -1    0    0  501    0  0.00000000000E+00  0.00000000000E+00  0.78730368892E+02  0.78730423820E+02  0.93000000000E-01 0. -1.
         -3   -1    0    0    0  501 -0.00000000000E+00 -0.00000000000E+00 -0.25736008091E+02  0.25736176124E+02  0.93000000000E-01 0.  1.
         23    2    1    2    0    0  0.00000000000E+00  0.00000000000E+00  0.52994360801E+02  0.10446659994E+03  0.90027041643E+02 0.  0.
        -11    1    3    3    0    0  0.62599034295E+01  0.44275945804E+02  0.20504425974E+02  0.49193264300E+02  0.51100000000E-03 0.  1.
         11    1    3    3    0    0 -0.62599034295E+01 -0.44275945804E+02  0.32489934827E+02  0.55273335643E+02  0.51100000000E-03 0. -1.
<mgrwt>
<rscale>  0 0.90027042E+02</rscale>
<asrwt>0</asrwt>
<pdfrwt beam="1">  1        3 0.12112381E-01 0.90027042E+02</pdfrwt>
<pdfrwt beam="2">  1       -3 0.39594031E-02 0.90027042E+02</pdfrwt>
<totfact> 0.35546742E+04</totfact>
</mgrwt>
</event>
<event>
 5    1  0.7431090E-001  0.9902930E+02  0.7818608E-02  0.1282351E+00
          3   -1    0    0  501    0  0.00000000000E+00  0.00000000000E+00  0.50820494381E+02  0.50820579475E+02  0.93000000000E-01 0. -1.
         -3   -1    0    0    0  501 -0.00000000000E+00 -0.00000000000E+00 -0.48242191378E+02  0.48242281019E+02  0.93000000000E-01 0.  1.
         23    2    1    2    0    0  0.00000000000E+00  0.00000000000E+00  0.25783030034E+01  0.99062860494E+02  0.99029302143E+02 0.  0.
        -11    1    3    3    0    0  0.12293990890E+02 -0.13290580693E+02 -0.44812460667E+02  0.48331546410E+02  0.51100000000E-03 0.  1.
         11    1    3    3    0    0 -0.12293990890E+02  0.13290580693E+02  0.47390763670E+02  0.50731314084E+02  0.51100000000E-03 0. -1.
<mgrwt>
<rscale>  0 0.99029302E+02</rscale>
<asrwt>0</asrwt>
<pdfrwt beam="1">  1        3 0.78185510E-02 0.99029302E+02</pdfrwt>
<pdfrwt beam="2">  1       -3 0.74218891E-02 0.99029302E+02</pdfrwt>
<totfact> 0.27706208E+04</totfact>
</mgrwt>
</event>
<event>
 5    1  0.7431090E-001  0.9212463E+02  0.7818608E-02  0.1297787E+00
         -3   -1    0    0    0  501 -0.00000000000E+00  0.00000000000E+00  0.78671128382E+01  0.78676625124E+01  0.93000000000E-01 0.  1.
          3   -1    0    0  501    0  0.00000000000E+00 -0.00000000000E+00 -0.26968701176E+03  0.26968702779E+03  0.93000000000E-01 0. -1.
         23    2    1    2    0    0  0.00000000000E+00  0.00000000000E+00 -0.26181989892E+03  0.27755469030E+03  0.92124625591E+02 0.  0.
        -11    1    3    3    0    0 -0.28255541286E+02 -0.33537739584E+02 -0.17336621180E+03  0.17882672894E+03  0.51100000000E-03 0. -1.
         11    1    3    3    0    0  0.28255541286E+02  0.33537739584E+02 -0.88453687119E+02  0.98727961364E+02  0.51100000000E-03 0.  1.
<mgrwt>
<rscale>  0 0.92124626E+02</rscale>
<asrwt>0</asrwt>
<pdfrwt beam="2">  1        3 0.41490346E-01 0.92124626E+02</pdfrwt>
<pdfrwt beam="1">  1       -3 0.12103688E-02 0.92124626E+02</pdfrwt>
<totfact> 0.24242100E+04</totfact>
</mgrwt>
</event>
<event>
 5    1  0.7431090E-001  0.8732052E+02  0.7818608E-02  0.1309473E+00
          3   -1    0    0  501    0  0.00000000000E+00  0.00000000000E+00  0.80436816817E+02  0.80436870580E+02  0.93000000000E-01 0. -1.
         -3   -1    0    0    0  501 -0.00000000000E+00 -0.00000000000E+00 -0.23698179837E+02  0.23698362319E+02  0.93000000000E-01 0.  1.
         23    2    1    2    0    0  0.00000000000E+00  0.00000000000E+00  0.56738636980E+02  0.10413523290E+03  0.87320523386E+02 0.  0.
        -11    1    3    3    0    0 -0.33637347216E+02 -0.23449374903E+02  0.10485876097E+02  0.42323727492E+02  0.51100000000E-03 0.  1.
         11    1    3    3    0    0  0.33637347216E+02  0.23449374903E+02  0.46252760883E+02  0.61811505406E+02  0.51100000000E-03 0. -1.
<mgrwt>
<rscale>  0 0.87320523E+02</rscale>
<asrwt>0</asrwt>
<pdfrwt beam="1">  1        3 0.12374913E-01 0.87320523E+02</pdfrwt>
<pdfrwt beam="2">  1       -3 0.36458919E-02 0.87320523E+02</pdfrwt>
<totfact> 0.38635949E+04</totfact>
</mgrwt>
</event>
<event>
 5    1  0.7431090E-001  0.8544680E+02  0.7818608E-02  0.1314268E+00
         -3   -1    0    0    0  501 -0.00000000000E+00  0.00000000000E+00  0.59037601412E+02  0.59037674662E+02  0.93000000000E-01 0.  1.
          3   -1    0    0  501    0  0.00000000000E+00 -0.00000000000E+00 -0.30917233395E+02  0.30917373269E+02  0.93000000000E-01 0. -1.
         23    2    1    2    0    0  0.00000000000E+00  0.00000000000E+00  0.28120368017E+02  0.89955047930E+02  0.85446799535E+02 0.  0.
        -11    1    3    3    0    0  0.10192683582E+02  0.39349483629E+02  0.27907740871E+02  0.49306334900E+02  0.51100000000E-03 0.  1.
         11    1    3    3    0    0 -0.10192683582E+02 -0.39349483629E+02  0.21262714595E+00  0.40648713031E+02  0.51100000000E-03 0. -1.
<mgrwt>
<rscale>  0 0.85446800E+02</rscale>
<asrwt>0</asrwt>
<pdfrwt beam="2">  1        3 0.47565139E-02 0.85446800E+02</pdfrwt>
<pdfrwt beam="1">  1       -3 0.90827243E-02 0.85446800E+02</pdfrwt>
<totfact> 0.42250339E+04</totfact>
</mgrwt>
</event>
<event>
 5    1  0.7431090E-001  0.9963131E+02  0.7818608E-02  0.1281073E+00
          3   -1    0    0  501    0  0.00000000000E+00  0.00000000000E+00  0.10113198608E+03  0.10113202884E+03  0.93000000000E-01 0. -1.
         -3   -1    0    0    0  501 -0.00000000000E+00 -0.00000000000E+00 -0.24538087262E+02  0.24538263498E+02  0.93000000000E-01 0.  1.
         23    2    1    2    0    0  0.00000000000E+00  0.00000000000E+00  0.76593898813E+02  0.12567029233E+03  0.99631305521E+02 0.  0.
        -11    1    3    3    0    0 -0.22313621064E+02 -0.28899012894E+02 -0.44506270710E+01  0.36781227724E+02  0.51100000000E-03 0.  1.
         11    1    3    3    0    0  0.22313621064E+02  0.28899012894E+02  0.81044525884E+02  0.88889064611E+02  0.51100000000E-03 0. -1.
<mgrwt>
<rscale>  0 0.99631306E+02</rscale>
<asrwt>0</asrwt>
<pdfrwt beam="1">  1        3 0.15558784E-01 0.99631306E+02</pdfrwt>
<pdfrwt beam="2">  1       -3 0.37751071E-02 0.99631306E+02</pdfrwt>
<totfact> 0.25792993E+04</totfact>
</mgrwt>
</event>
<event>
 5    1  0.7431090E-001  0.9118937E+02  0.7818608E-02  0.1299997E+00
         -3   -1    0    0    0  501 -0.00000000000E+00  0.00000000000E+00  0.90520334037E+01  0.90525111291E+01  0.93000000000E-01 0.  1.
          3   -1    0    0  501    0  0.00000000000E+00 -0.00000000000E+00 -0.22965181724E+03  0.22965183607E+03  0.93000000000E-01 0. -1.
         23    2    1    2    0    0  0.00000000000E+00  0.00000000000E+00 -0.22059978383E+03  0.23870434720E+03  0.91189367490E+02 0.  0.
        -11    1    3    3    0    0 -0.13470672287E+02  0.40160857633E+02 -0.66145509657E+02  0.78546686408E+02  0.51100000000E-03 0.  1.
         11    1    3    3    0    0  0.13470672287E+02 -0.40160857633E+02 -0.15445427418E+03  0.16015766079E+03  0.51100000000E-03 0. -1.
<mgrwt>
<rscale>  0 0.91189367E+02</rscale>
<asrwt>0</asrwt>
<pdfrwt beam="2">  1        3 0.35331083E-01 0.91189367E+02</pdfrwt>
<pdfrwt beam="1">  1       -3 0.13926589E-02 0.91189367E+02</pdfrwt>
<totfact> 0.26603992E+04</totfact>
</mgrwt>
</event>
<event>
 5    1  0.7431090E-001  0.8384374E+02  0.7818608E-02  0.1318484E+00
          3   -1    0    0  501    0  0.00000000000E+00  0.00000000000E+00  0.27001910604E+02  0.27002070759E+02  0.93000000000E-01 0. -1.
         -3   -1    0    0    0  501 -0.00000000000E+00 -0.00000000000E+00 -0.65085492920E+02  0.65085559363E+02  0.93000000000E-01 0.  1.
         23    2    1    2    0    0  0.00000000000E+00  0.00000000000E+00 -0.38083582315E+02  0.92087630122E+02  0.83843737867E+02 0.  0.
        -11    1    3    3    0    0 -0.50051610310E+01 -0.16052353239E+02  0.23136062944E+02  0.28600823245E+02  0.51100000000E-03 0. -1.
         11    1    3    3    0    0  0.50051610310E+01  0.16052353239E+02 -0.61219645260E+02  0.63486806877E+02  0.51100000000E-03 0.  1.
<mgrwt>
<rscale>  0 0.83843738E+02</rscale>
<asrwt>0</asrwt>
<pdfrwt beam="1">  1        3 0.41541575E-02 0.83843738E+02</pdfrwt>
<pdfrwt beam="2">  1       -3 0.10013170E-01 0.83843738E+02</pdfrwt>
<totfact> 0.44256466E+04</totfact>
</mgrwt>
</event>
<event>
 5    1  0.7431090E-001  0.9745889E+02  0.7818608E-02  0.1285732E+00
          3   -1    0    0  501    0  0.00000000000E+00  0.00000000000E+00  0.13573475750E+02  0.13573794346E+02  0.93000000000E-01 0. -1.
         -3   -1    0    0    0  501 -0.00000000000E+00 -0.00000000000E+00 -0.17493872455E+03  0.17493874927E+03  0.93000000000E-01 0.  1.
         23    2    1    2    0    0  0.00000000000E+00  0.00000000000E+00 -0.16136524880E+03  0.18851254361E+03  0.97458891744E+02 0.  0.
        -11    1    3    3    0    0 -0.16588454836E+02 -0.42599627219E+02 -0.48048099508E+02  0.66321376189E+02  0.51100000000E-03 0. -1.
         11    1    3    3    0    0  0.16588454836E+02  0.42599627219E+02 -0.11331714929E+03  0.12219116742E+03  0.51100000000E-03 0.  1.
<mgrwt>
<rscale>  0 0.97458892E+02</rscale>
<asrwt>0</asrwt>
<pdfrwt beam="1">  1        3 0.20882536E-02 0.97458892E+02</pdfrwt>
<pdfrwt beam="2">  1       -3 0.26913675E-01 0.97458892E+02</pdfrwt>
<totfact> 0.24288777E+04</totfact>
</mgrwt>
</event>
<event>
 5    1  0.7431090E-001  0.8706388E+02  0.7818608E-02  0.1310122E+00
          3   -1    0    0  501    0  0.00000000000E+00  0.00000000000E+00  0.28419209658E+02  0.28419361826E+02  0.93000000000E-01 0. -1.
         -3   -1    0    0    0  501 -0.00000000000E+00 -0.00000000000E+00 -0.66680927932E+02  0.66680992786E+02  0.93000000000E-01 0.  1.
         23    2    1    2    0    0  0.00000000000E+00  0.00000000000E+00 -0.38261718274E+02  0.95100354612E+02  0.87063875184E+02 0.  0.
        -11    1    3    3    0    0 -0.13006906773E+02 -0.21670714007E+02  0.19584094541E+02  0.31973993004E+02  0.51100000000E-03 0. -1.
         11    1    3    3    0    0  0.13006906773E+02  0.21670714007E+02 -0.57845812815E+02  0.63126361608E+02  0.51100000000E-03 0.  1.
<mgrwt>
<rscale>  0 0.87063875E+02</rscale>
<asrwt>0</asrwt>
<pdfrwt beam="1">  1        3 0.43722028E-02 0.87063875E+02</pdfrwt>
<pdfrwt beam="2">  1       -3 0.10258621E-01 0.87063875E+02</pdfrwt>
<totfact> 0.39712213E+04</totfact>
</mgrwt>
</event>
<event>
 5    1  0.7431090E-001  0.9078126E+02  0.7818608E-02  0.1300971E+00
         -3   -1    0    0    0  501 -0.00000000000E+00  0.00000000000E+00  0.11754583563E+02  0.11754951456E+02  0.93000000000E-01 0.  1.
          3   -1    0    0  501    0  0.00000000000E+00 -0.00000000000E+00 -0.17527395854E+03  0.17527398321E+03  0.93000000000E-01 0. -1.
         23    2    1    2    0    0  0.00000000000E+00  0.00000000000E+00 -0.16351937498E+03  0.18702893467E+03  0.90781255832E+02 0.  0.
        -11    1    3    3    0    0 -0.15971120064E+02  0.28670846111E+02 -0.14636033390E+03  0.14999480468E+03  0.51100000000E-03 0. -1.
         11    1    3    3    0    0  0.15971120064E+02 -0.28670846111E+02 -0.17159041080E+02  0.37034129987E+02  0.51100000000E-03 0.  1.
<mgrwt>
<rscale>  0 0.90781256E+02</rscale>
<asrwt>0</asrwt>
<pdfrwt beam="2">  1        3 0.26965253E-01 0.90781256E+02</pdfrwt>
<pdfrwt beam="1">  1       -3 0.18084278E-02 0.90781256E+02</pdfrwt>
<totfact> 0.29527675E+04</totfact>
</mgrwt>
</event>
<event>
 5    1  0.7431090E-001  0.9034468E+02  0.7818608E-02  0.1302019E+00
         -3   -1    0    0    0  501 -0.00000000000E+00  0.00000000000E+00  0.94694504994E+02  0.94694550662E+02  0.93000000000E-01 0.  1.
          3   -1    0    0  501    0  0.00000000000E+00 -0.00000000000E+00 -0.21548513044E+02  0.21548713730E+02  0.93000000000E-01 0. -1.
         23    2    1    2    0    0  0.00000000000E+00  0.00000000000E+00  0.73145991950E+02  0.11624326439E+03  0.90344675427E+02 0.  0.
        -11    1    3    3    0    0 -0.33453790679E+02 -0.68369527072E+01  0.74625208902E+02  0.82065960282E+02  0.51100000000E-03 0.  1.
         11    1    3    3    0    0  0.33453790679E+02  0.68369527072E+01 -0.14792169518E+01  0.34177304109E+02  0.51100000000E-03 0. -1.
<mgrwt>
<rscale>  0 0.90344675E+02</rscale>
<asrwt>0</asrwt>
<pdfrwt beam="2">  1        3 0.33151748E-02 0.90344675E+02</pdfrwt>
<pdfrwt beam="1">  1       -3 0.14568404E-01 0.90344675E+02</pdfrwt>
<totfact> 0.34350653E+04</totfact>
</mgrwt>
</event>
<event>
 5    1  0.7431090E-001  0.9088488E+02  0.7818608E-02  0.1300723E+00
          3   -1    0    0  501    0  0.00000000000E+00  0.00000000000E+00  0.48098016913E+02  0.48098106823E+02  0.93000000000E-01 0. -1.
         -3   -1    0    0    0  501 -0.00000000000E+00 -0.00000000000E+00 -0.42933298276E+02  0.42933399002E+02  0.93000000000E-01 0.  1.
         23    2    1    2    0    0  0.00000000000E+00  0.00000000000E+00  0.51647186363E+01  0.91031505825E+02  0.90884876267E+02 0.  0.
        -11    1    3    3    0    0  0.18742659092E+02 -0.16266646533E+02  0.40711138460E+02  0.47679008528E+02  0.51100000000E-03 0. -1.
         11    1    3    3    0    0 -0.18742659092E+02  0.16266646533E+02 -0.35546419824E+02  0.43352497296E+02  0.51100000000E-03 0.  1.
<mgrwt>
<rscale>  0 0.90884876E+02</rscale>
<asrwt>0</asrwt>
<pdfrwt beam="1">  1        3 0.73997096E-02 0.90884876E+02</pdfrwt>
<pdfrwt beam="2">  1       -3 0.66051375E-02 0.90884876E+02</pdfrwt>
<totfact> 0.35660004E+04</totfact>
</mgrwt>
</event>
<event>
 5    1  0.7431090E-001  0.9213834E+02  0.7818608E-02  0.1297754E+00
         -3   -1    0    0    0  501 -0.00000000000E+00  0.00000000000E+00  0.83731733382E+02  0.83731785029E+02  0.93000000000E-01 0.  1.
          3   -1    0    0  501    0  0.00000000000E+00 -0.00000000000E+00 -0.25347093713E+02  0.25347264323E+02  0.93000000000E-01 0. -1.
         23    2    1    2    0    0  0.00000000000E+00  0.00000000000E+00  0.58384639670E+02  0.10907904935E+03  0.92138335444E+02 0.  0.
        -11    1    3    3    0    0 -0.19054231220E+02 -0.34962349390E+02  0.56624687963E+02  0.69222719460E+02  0.51100000000E-03 0.  1.
         11    1    3    3    0    0  0.19054231220E+02  0.34962349390E+02  0.17599517062E+01  0.39856329893E+02  0.51100000000E-03 0. -1.
<mgrwt>
<rscale>  0 0.92138335E+02</rscale>
<asrwt>0</asrwt>
<pdfrwt beam="2">  1        3 0.38995700E-02 0.92138335E+02</pdfrwt>
<pdfrwt beam="1">  1       -3 0.12881822E-01 0.92138335E+02</pdfrwt>
<totfact> 0.33053804E+04</totfact>
</mgrwt>
</event>
<event>
 5    1  0.7431090E-001  0.9077942E+02  0.7818608E-02  0.1300975E+00
         -3   -1    0    0    0  501 -0.00000000000E+00  0.00000000000E+00  0.16329343105E+03  0.16329345753E+03  0.93000000000E-01 0.  1.
          3   -1    0    0  501    0  0.00000000000E+00 -0.00000000000E+00 -0.12616509547E+02  0.12616852307E+02  0.93000000000E-01 0. -1.
         23    2    1    2    0    0  0.00000000000E+00  0.00000000000E+00  0.15067692150E+03  0.17591030984E+03  0.90779416359E+02 0.  0.
        -11    1    3    3    0    0  0.14394544787E+01  0.25018111379E+02  0.20031779028E+01  0.25139424181E+02  0.51100000000E-03 0. -1.
         11    1    3    3    0    0 -0.14394544787E+01 -0.25018111379E+02  0.14867374360E+03  0.15077088566E+03  0.51100000000E-03 0.  1.
<mgrwt>
<rscale>  0 0.90779416E+02</rscale>
<asrwt>0</asrwt>
<pdfrwt beam="2">  1        3 0.19410300E-02 0.90779416E+02</pdfrwt>
<pdfrwt beam="1">  1       -3 0.25122094E-01 0.90779416E+02</pdfrwt>
<totfact> 0.30146571E+04</totfact>
</mgrwt>
</event>
<event>
 5    1  0.7431090E-001  0.9165965E+02  0.7818608E-02  0.1298882E+00
         -3   -1    0    0    0  501 -0.00000000000E+00  0.00000000000E+00  0.11556520519E+02  0.11556894717E+02  0.93000000000E-01 0.  1.
          3   -1    0    0  501    0  0.00000000000E+00 -0.00000000000E+00 -0.18174451880E+03  0.18174454260E+03  0.93000000000E-01 0. -1.
         23    2    1    2    0    0  0.00000000000E+00  0.00000000000E+00 -0.17018799828E+03  0.19330143731E+03  0.91659647108E+02 0.  0.
        -11    1    3    3    0    0 -0.20854814789E+02  0.40272275455E+02 -0.99018080713E+02  0.10890986998E+03  0.51100000000E-03 0. -1.
         11    1    3    3    0    0  0.20854814789E+02 -0.40272275455E+02 -0.71169917569E+02  0.84391567335E+02  0.51100000000E-03 0.  1.
<mgrwt>
<rscale>  0 0.91659647E+02</rscale>
<asrwt>0</asrwt>
<pdfrwt beam="2">  1        3 0.27960724E-01 0.91659647E+02</pdfrwt>
<pdfrwt beam="1">  1       -3 0.17779570E-02 0.91659647E+02</pdfrwt>
<totfact> 0.28439582E+04</totfact>
</mgrwt>
</event>
<event>
 5    1  0.7431090E-001  0.9060141E+02  0.7818608E-02  0.1301402E+00
          3   -1    0    0  501    0  0.00000000000E+00  0.00000000000E+00  0.12110534846E+03  0.12110538417E+03  0.93000000000E-01 0. -1.
         -3   -1    0    0    0  501 -0.00000000000E+00 -0.00000000000E+00 -0.16945029633E+02  0.16945284839E+02  0.93000000000E-01 0.  1.
         23    2    1    2    0    0  0.00000000000E+00  0.00000000000E+00  0.10416031883E+03  0.13805066901E+03  0.90601408353E+02 0.  0.
        -11    1    3    3    0    0  0.19232160403E+02 -0.22951479609E+02  0.28490979722E+00  0.29945410063E+02  0.51100000000E-03 0.  1.
         11    1    3    3    0    0 -0.19232160403E+02  0.22951479609E+02  0.10387540903E+03  0.10810525895E+03  0.51100000000E-03 0. -1.
<mgrwt>
<rscale>  0 0.90601408E+02</rscale>
<asrwt>0</asrwt>
<pdfrwt beam="1">  1        3 0.18631615E-01 0.90601408E+02</pdfrwt>
<pdfrwt beam="2">  1       -3 0.26069500E-02 0.90601408E+02</pdfrwt>
<totfact> 0.32608451E+04</totfact>
</mgrwt>
</event>
<event>
 5    1  0.7431090E-001  0.9123606E+02  0.7818608E-02  0.1299886E+00
         -3   -1    0    0    0  501 -0.00000000000E+00  0.00000000000E+00  0.26481716155E+02  0.26481879455E+02  0.93000000000E-01 0.  1.
          3   -1    0    0  501    0  0.00000000000E+00 -0.00000000000E+00 -0.78582256459E+02  0.78582311491E+02  0.93000000000E-01 0. -1.
         23    2    1    2    0    0  0.00000000000E+00  0.00000000000E+00 -0.52100540305E+02  0.10506419095E+03  0.91236056026E+02 0.  0.
        -11    1    3    3    0    0 -0.31451692699E+02  0.32951376226E+02 -0.28871558360E+02  0.53931151028E+02  0.51100000000E-03 0. -1.
         11    1    3    3    0    0  0.31451692699E+02 -0.32951376226E+02 -0.23228981945E+02  0.51133039918E+02  0.51100000000E-03 0.  1.
<mgrwt>
<rscale>  0 0.91236056E+02</rscale>
<asrwt>0</asrwt>
<pdfrwt beam="2">  1        3 0.12089595E-01 0.91236056E+02</pdfrwt>
<pdfrwt beam="1">  1       -3 0.40741270E-02 0.91236056E+02</pdfrwt>
<totfact> 0.34239039E+04</totfact>
</mgrwt>
</event>
<event>
 5    1  0.7431090E-001  0.9087174E+02  0.7818608E-02  0.1300754E+00
         -3   -1    0    0    0  501 -0.00000000000E+00  0.00000000000E+00  0.13665437345E+02  0.13665753797E+02  0.93000000000E-01 0.  1.
          3   -1    0    0  501    0  0.00000000000E+00 -0.00000000000E+00 -0.15106650945E+03  0.15106653808E+03  0.93000000000E-01 0. -1.
         23    2    1    2    0    0  0.00000000000E+00  0.00000000000E+00 -0.13740107211E+03  0.16473229187E+03  0.90871741319E+02 0.  0.
        -11    1    3    3    0    0 -0.12251462822E+02  0.29005082229E+02 -0.93185317131E+01  0.32836384848E+02  0.51100000000E-03 0.  1.
         11    1    3    3    0    0  0.12251462822E+02 -0.29005082229E+02 -0.12808254039E+03  0.13189590703E+03  0.51100000000E-03 0. -1.
<mgrwt>
<rscale>  0 0.90871741E+02</rscale>
<asrwt>0</asrwt>
<pdfrwt beam="2">  1        3 0.23241027E-01 0.90871741E+02</pdfrwt>
<pdfrwt beam="1">  1       -3 0.21024016E-02 0.90871741E+02</pdfrwt>
<totfact> 0.30706438E+04</totfact>
</mgrwt>
</event>
<event>
 5    1  0.7431090E-001  0.9174284E+02  0.7818608E-02  0.1298685E+00
          3   -1    0    0  501    0  0.00000000000E+00  0.00000000000E+00  0.43962026258E+02  0.43962124627E+02  0.93000000000E-01 0. -1.
         -3   -1    0    0    0  501 -0.00000000000E+00 -0.00000000000E+00 -0.47863546327E+02  0.47863636677E+02  0.93000000000E-01 0.  1.
         23    2    1    2    0    0  0.00000000000E+00  0.00000000000E+00 -0.39015200683E+01  0.91825761304E+02  0.91742839395E+02 0.  0.
        -11    1    3    3    0    0 -0.33658680552E+02  0.19207718463E+02  0.22614118773E+02  0.44869160826E+02  0.51100000000E-03 0. -1.
         11    1    3    3    0    0  0.33658680552E+02 -0.19207718463E+02 -0.26515638841E+02  0.46956600478E+02  0.51100000000E-03 0.  1.
<mgrwt>
<rscale>  0 0.91742839E+02</rscale>
<asrwt>0</asrwt>
<pdfrwt beam="1">  1        3 0.67634032E-02 0.91742839E+02</pdfrwt>
<pdfrwt beam="2">  1       -3 0.73636370E-02 0.91742839E+02</pdfrwt>
<totfact> 0.34697577E+04</totfact>
</mgrwt>
</event>
<event>
 5    1  0.7431090E-001  0.9033320E+02  0.7818608E-02  0.1302047E+00
          3   -1    0    0  501    0  0.00000000000E+00  0.00000000000E+00  0.32138480450E+02  0.32138615008E+02  0.93000000000E-01 0. -1.
         -3   -1    0    0    0  501 -0.00000000000E+00 -0.00000000000E+00 -0.63475682230E+02  0.63475750358E+02  0.93000000000E-01 0.  1.
         23    2    1    2    0    0  0.00000000000E+00  0.00000000000E+00 -0.31337201779E+02  0.95614365367E+02  0.90333197935E+02 0.  0.
        -11    1    3    3    0    0  0.21417095908E+02  0.28698985225E+02  0.13466988422E+02  0.38258117146E+02  0.51100000000E-03 0. -1.
         11    1    3    3    0    0 -0.21417095908E+02 -0.28698985225E+02 -0.44804190202E+02  0.57356248221E+02  0.51100000000E-03 0.  1.
<mgrwt>
<rscale>  0 0.90333198E+02</rscale>
<asrwt>0</asrwt>
<pdfrwt beam="1">  1        3 0.49443972E-02 0.90333198E+02</pdfrwt>
<pdfrwt beam="2">  1       -3 0.97655051E-02 0.90333198E+02</pdfrwt>
<totfact> 0.35896368E+04</totfact>
</mgrwt>
</event>
<event>
 5    1  0.7431090E-001  0.8983800E+02  0.7818608E-02  0.1303244E+00
         -3   -1    0    0    0  501 -0.00000000000E+00  0.00000000000E+00  0.17897417668E+02  0.17897659293E+02  0.93000000000E-01 0.  1.
          3   -1    0    0  501    0  0.00000000000E+00 -0.00000000000E+00 -0.11273682565E+03  0.11273686401E+03  0.93000000000E-01 0. -1.
         23    2    1    2    0    0  0.00000000000E+00  0.00000000000E+00 -0.94839407980E+02  0.13063452330E+03  0.89837995147E+02 0.  0.
        -11    1    3    3    0    0 -0.29972405658E+02  0.67661494807E+01  0.22528553098E+00  0.30727457323E+02  0.51100000000E-03 0.  1.
         11    1    3    3    0    0  0.29972405658E+02 -0.67661494807E+01 -0.95064693511E+02  0.99907065978E+02  0.51100000000E-03 0. -1.
<mgrwt>
<rscale>  0 0.89837995E+02</rscale>
<asrwt>0</asrwt>
<pdfrwt beam="2">  1        3 0.17344148E-01 0.89837995E+02</pdfrwt>
<pdfrwt beam="1">  1       -3 0.27534705E-02 0.89837995E+02</pdfrwt>
<totfact> 0.33863159E+04</totfact>
</mgrwt>
</event>
<event>
 5    1  0.7431090E-001  0.8835540E+02  0.7818608E-02  0.1306884E+00
         -3   -1    0    0    0  501 -0.00000000000E+00  0.00000000000E+00  0.14157904886E+03  0.14157907941E+03  0.93000000000E-01 0. -1.
          3   -1    0    0  501    0  0.00000000000E+00 -0.00000000000E+00 -0.13784824184E+02  0.13785137895E+02  0.93000000000E-01 0.  1.
         23    2    1    2    0    0  0.00000000000E+00  0.00000000000E+00  0.12779422468E+03  0.15536421730E+03  0.88355396874E+02 0.  0.
        -11    1    3    3    0    0 -0.34135549449E+02  0.24706887724E+02  0.87225136524E+02  0.96870483013E+02  0.51100000000E-03 0. -1.
         11    1    3    3    0    0  0.34135549449E+02 -0.24706887724E+02  0.40569088152E+02  0.58493734288E+02  0.51100000000E-03 0.  1.
<mgrwt>
<rscale>  0 0.88355397E+02</rscale>
<asrwt>0</asrwt>
<pdfrwt beam="2">  1        3 0.21207688E-02 0.88355397E+02</pdfrwt>
<pdfrwt beam="1">  1       -3 0.21781417E-01 0.88355397E+02</pdfrwt>
<totfact> 0.33725362E+04</totfact>
</mgrwt>
</event>
<event>
 4    1  0.7431090E-001  0.1811167E+03  0.7818608E-02  0.1166727E+00
          3   -1    0    0  501    0  0.00000000000E+00  0.00000000000E+00  0.10024174562E+03  0.10024178876E+03  0.93000000000E-01 0. -1.
         -3   -1    0    0    0  501 -0.00000000000E+00 -0.00000000000E+00 -0.81810313251E+02  0.81810366111E+02  0.93000000000E-01 0.  1.
        -11    1    1    2    0    0  0.86588385117E+02  0.23238338768E+02 -0.36271479493E+01  0.89725832559E+02  0.51100000000E-03 0.  1.
         11    1    1    2    0    0 -0.86588385117E+02 -0.23238338768E+02  0.22058580320E+02  0.92326322313E+02  0.51100000000E-03 0. -1.
<mgrwt>
<rscale>  0 0.18111673E+03</rscale>
<asrwt>0</asrwt>
<pdfrwt beam="1">  1        3 0.15421814E-01 0.18111673E+03</pdfrwt>
<pdfrwt beam="2">  1       -3 0.12586209E-01 0.18111673E+03</pdfrwt>
<totfact> 0.42562282E+03</totfact>
</mgrwt>
</event>
<event>
 5    1  0.7431090E-001  0.8696306E+02  0.7818608E-02  0.1310377E+00
         -3   -1    0    0    0  501 -0.00000000000E+00  0.00000000000E+00  0.43305373827E+02  0.43305473688E+02  0.93000000000E-01 0.  1.
          3   -1    0    0  501    0  0.00000000000E+00 -0.00000000000E+00 -0.43658205195E+02  0.43658304249E+02  0.93000000000E-01 0. -1.
         23    2    1    2    0    0  0.00000000000E+00  0.00000000000E+00 -0.35283136812E+00  0.86963777937E+02  0.86963062176E+02 0.  0.
        -11    1    3    3    0    0 -0.24890009965E+02  0.35577702872E+02 -0.24911718290E+01  0.43491280448E+02  0.51100000000E-03 0.  1.
         11    1    3    3    0    0  0.24890009965E+02 -0.35577702872E+02  0.21383404608E+01  0.43472497488E+02  0.51100000000E-03 0. -1.
<mgrwt>
<rscale>  0 0.86963062E+02</rscale>
<asrwt>0</asrwt>
<pdfrwt beam="2">  1        3 0.67166623E-02 0.86963062E+02</pdfrwt>
<pdfrwt beam="1">  1       -3 0.66623805E-02 0.86963062E+02</pdfrwt>
<totfact> 0.40554345E+04</totfact>
</mgrwt>
</event>
<event>
 5    1  0.7431090E-001  0.9234510E+02  0.7818608E-02  0.1297270E+00
         -3   -1    0    0    0  501 -0.00000000000E+00  0.00000000000E+00  0.18376810686E+03  0.18376813039E+03  0.93000000000E-01 0.  1.
          3   -1    0    0  501    0  0.00000000000E+00 -0.00000000000E+00 -0.11600846260E+02  0.11601219029E+02  0.93000000000E-01 0. -1.
         23    2    1    2    0    0  0.00000000000E+00  0.00000000000E+00  0.17216726060E+03  0.19536934942E+03  0.92345097707E+02 0.  0.
        -11    1    3    3    0    0  0.37191913082E+02  0.15915990766E+02  0.38997022912E+02  0.56190078813E+02  0.51100000000E-03 0.  1.
         11    1    3    3    0    0 -0.37191913082E+02 -0.15915990766E+02  0.13317023768E+03  0.13917927060E+03  0.51100000000E-03 0. -1.
<mgrwt>
<rscale>  0 0.92345098E+02</rscale>
<asrwt>0</asrwt>
<pdfrwt beam="2">  1        3 0.17847761E-02 0.92345098E+02</pdfrwt>
<pdfrwt beam="1">  1       -3 0.28272046E-01 0.92345098E+02</pdfrwt>
<totfact> 0.27765966E+04</totfact>
</mgrwt>
</event>
<event>
 5    1  0.7431090E-001  0.9013724E+02  0.7818608E-02  0.1302520E+00
          3   -1    0    0  501    0  0.00000000000E+00  0.00000000000E+00  0.40196187424E+02  0.40196295009E+02  0.93000000000E-01 0. -1.
         -3   -1    0    0    0  501 -0.00000000000E+00 -0.00000000000E+00 -0.50531455348E+02  0.50531540929E+02  0.93000000000E-01 0.  1.
         23    2    1    2    0    0  0.00000000000E+00  0.00000000000E+00 -0.10335267924E+02  0.90727835938E+02  0.90137242308E+02 0.  0.
        -11    1    3    3    0    0  0.25877812804E+02  0.66729247861E+01 -0.41695791718E+02  0.49525025674E+02  0.51100000000E-03 0.  1.
         11    1    3    3    0    0 -0.25877812804E+02 -0.66729247861E+01  0.31360523794E+02  0.41202810264E+02  0.51100000000E-03 0. -1.
<mgrwt>
<rscale>  0 0.90137242E+02</rscale>
<asrwt>0</asrwt>
<pdfrwt beam="1">  1        3 0.61840437E-02 0.90137242E+02</pdfrwt>
<pdfrwt beam="2">  1       -3 0.77740849E-02 0.90137242E+02</pdfrwt>
<totfact> 0.36494448E+04</totfact>
</mgrwt>
</event>
<event>
 5    1  0.7431090E-001  0.9170544E+02  0.7818608E-02  0.1298774E+00
         -3   -1    0    0    0  501 -0.00000000000E+00  0.00000000000E+00  0.21708895707E+02  0.21709094910E+02  0.93000000000E-01 0.  1.
          3   -1    0    0  501    0  0.00000000000E+00 -0.00000000000E+00 -0.96847737596E+02  0.96847782249E+02  0.93000000000E-01 0. -1.
         23    2    1    2    0    0  0.00000000000E+00  0.00000000000E+00 -0.75138841889E+02  0.11855687716E+03  0.91705439104E+02 0.  0.
        -11    1    3    3    0    0  0.12032528047E+02 -0.40761391151E+02 -0.15319751628E+02  0.45177068630E+02  0.51100000000E-03 0.  1.
         11    1    3    3    0    0 -0.12032528047E+02  0.40761391151E+02 -0.59819090261E+02  0.73379808529E+02  0.51100000000E-03 0. -1.
<mgrwt>
<rscale>  0 0.91705439E+02</rscale>
<asrwt>0</asrwt>
<pdfrwt beam="2">  1        3 0.14899670E-01 0.91705439E+02</pdfrwt>
<pdfrwt beam="1">  1       -3 0.33398489E-02 0.91705439E+02</pdfrwt>
<totfact> 0.32824751E+04</totfact>
</mgrwt>
</event>
<event>
 5    1  0.7431090E-001  0.1274408E+03  0.7818608E-02  0.1231303E+00
          3   -1    0    0  501    0  0.00000000000E+00  0.00000000000E+00  0.31090775470E+03  0.31090776861E+03  0.93000000000E-01 0. -1.
         -3   -1    0    0    0  501 -0.00000000000E+00 -0.00000000000E+00 -0.13059282912E+02  0.13059614052E+02  0.93000000000E-01 0.  1.
         23    2    1    2    0    0  0.00000000000E+00  0.00000000000E+00  0.29784847179E+03  0.32396738266E+03  0.12744078186E+03 0.  0.
        -11    1    3    3    0    0 -0.60512106394E+02  0.19410676482E+02  0.16079311039E+03  0.17289567296E+03  0.51100000000E-03 0.  1.
         11    1    3    3    0    0  0.60512106394E+02 -0.19410676482E+02  0.13705536140E+03  0.15107170970E+03  0.51100000000E-03 0. -1.
<mgrwt>
<rscale>  0 0.12744078E+03</rscale>
<asrwt>0</asrwt>
<pdfrwt beam="1">  1        3 0.47831985E-01 0.12744078E+03</pdfrwt>
<pdfrwt beam="2">  1       -3 0.20091471E-02 0.12744078E+03</pdfrwt>
<totfact> 0.92543259E+03</totfact>
</mgrwt>
</event>
<event>
 5    1  0.7431090E-001  0.9105036E+02  0.7818608E-02  0.1300328E+00
          3   -1    0    0  501    0  0.00000000000E+00  0.00000000000E+00  0.62230692578E+01  0.62237641334E+01  0.93000000000E-01 0. -1.
         -3   -1    0    0    0  501 -0.00000000000E+00 -0.00000000000E+00 -0.33302247977E+03  0.33302249276E+03  0.93000000000E-01 0.  1.
         23    2    1    2    0    0  0.00000000000E+00  0.00000000000E+00 -0.32679941052E+03  0.33924625689E+03  0.91050360253E+02 0.  0.
        -11    1    3    3    0    0 -0.16317850749E+02  0.42497292809E+02 -0.16153720730E+03  0.16782896499E+03  0.51100000000E-03 0.  1.
         11    1    3    3    0    0  0.16317850749E+02 -0.42497292809E+02 -0.16526220322E+03  0.17141729190E+03  0.51100000000E-03 0. -1.
<mgrwt>
<rscale>  0 0.91050360E+02</rscale>
<asrwt>0</asrwt>
<pdfrwt beam="1">  1        3 0.95744998E-03 0.91050360E+02</pdfrwt>
<pdfrwt beam="2">  1       -3 0.51234268E-01 0.91050360E+02</pdfrwt>
<totfact> 0.22662035E+04</totfact>
</mgrwt>
</event>
<event>
 5    1  0.7431090E-001  0.8724974E+02  0.7818608E-02  0.1309652E+00
         -3   -1    0    0    0  501 -0.00000000000E+00  0.00000000000E+00  0.15835299215E+03  0.15835301946E+03  0.93000000000E-01 0.  1.
          3   -1    0    0  501    0  0.00000000000E+00 -0.00000000000E+00 -0.12018063578E+02  0.12018423406E+02  0.93000000000E-01 0. -1.
         23    2    1    2    0    0  0.00000000000E+00  0.00000000000E+00  0.14633492857E+03  0.17037144287E+03  0.87249740536E+02 0.  0.
        -11    1    3    3    0    0  0.34229446596E+02 -0.54561870350E+01  0.12489356376E+03  0.12961414761E+03  0.51100000000E-03 0.  1.
         11    1    3    3    0    0 -0.34229446596E+02  0.54561870350E+01  0.21441364809E+02  0.40757295254E+02  0.51100000000E-03 0. -1.
<mgrwt>
<rscale>  0 0.87249741E+02</rscale>
<asrwt>0</asrwt>
<pdfrwt beam="2">  1        3 0.18489627E-02 0.87249741E+02</pdfrwt>
<pdfrwt beam="1">  1       -3 0.24362027E-01 0.87249741E+02</pdfrwt>
<totfact> 0.33894875E+04</totfact>
</mgrwt>
</event>
<event>
 5    1  0.7431090E-001  0.9919386E+02  0.7818608E-02  0.1282000E+00
         -3   -1    0    0    0  501 -0.00000000000E+00  0.00000000000E+00  0.21459237523E+03  0.21459239538E+03  0.93000000000E-01 0.  1.
          3   -1    0    0  501    0  0.00000000000E+00 -0.00000000000E+00 -0.11462711757E+02  0.11463089018E+02  0.93000000000E-01 0. -1.
         23    2    1    2    0    0  0.00000000000E+00  0.00000000000E+00  0.20312966347E+03  0.22605548440E+03  0.99193859914E+02 0.  0.
        -11    1    3    3    0    0  0.12307382568E+01  0.48413597542E+02  0.12594660673E+03  0.13493679591E+03  0.51100000000E-03 0.  1.
         11    1    3    3    0    0 -0.12307382568E+01 -0.48413597542E+02  0.77183056746E+02  0.91118688492E+02  0.51100000000E-03 0. -1.
<mgrwt>
<rscale>  0 0.99193860E+02</rscale>
<asrwt>0</asrwt>
<pdfrwt beam="2">  1        3 0.17635247E-02 0.99193860E+02</pdfrwt>
<pdfrwt beam="1">  1       -3 0.33014242E-01 0.99193860E+02</pdfrwt>
<totfact> 0.21648361E+04</totfact>
</mgrwt>
</event>
<event>
 5    1  0.7431090E-001  0.8751707E+02  0.7818608E-02  0.1308978E+00
          3   -1    0    0  501    0  0.00000000000E+00  0.00000000000E+00  0.79881308655E+02  0.79881362792E+02  0.93000000000E-01 0. -1.
         -3   -1    0    0    0  501 -0.00000000000E+00 -0.00000000000E+00 -0.23970527599E+02  0.23970708008E+02  0.93000000000E-01 0.  1.
         23    2    1    2    0    0  0.00000000000E+00  0.00000000000E+00  0.55910781056E+02  0.10385207080E+03  0.87517067884E+02 0.  0.
        -11    1    3    3    0    0 -0.33997222522E+02  0.27548027506E+02  0.27572093829E+02  0.51719680171E+02  0.51100000000E-03 0.  1.
         11    1    3    3    0    0  0.33997222522E+02 -0.27548027506E+02  0.28338687226E+02  0.52132390628E+02  0.51100000000E-03 0. -1.
<mgrwt>
<rscale>  0 0.87517068E+02</rscale>
<asrwt>0</asrwt>
<pdfrwt beam="1">  1        3 0.12289450E-01 0.87517068E+02</pdfrwt>
<pdfrwt beam="2">  1       -3 0.36877916E-02 0.87517068E+02</pdfrwt>
<totfact> 0.38425055E+04</totfact>
</mgrwt>
</event>
<event>
 5    1  0.7431090E-001  0.8934766E+02  0.7818608E-02  0.1304439E+00
         -3   -1    0    0    0  501 -0.00000000000E+00  0.00000000000E+00  0.18371717086E+02  0.18371952473E+02  0.93000000000E-01 0.  1.
          3   -1    0    0  501    0  0.00000000000E+00 -0.00000000000E+00 -0.10863076933E+03  0.10863080914E+03  0.93000000000E-01 0. -1.
         23    2    1    2    0    0  0.00000000000E+00  0.00000000000E+00 -0.90259052244E+02  0.12700276161E+03  0.89347663344E+02 0.  0.
        -11    1    3    3    0    0  0.25699773674E+02  0.24218024132E+02 -0.62338491823E+01  0.35858777665E+02  0.51100000000E-03 0.  1.
         11    1    3    3    0    0 -0.25699773674E+02 -0.24218024132E+02 -0.84025203062E+02  0.91143983946E+02  0.51100000000E-03 0. -1.
<mgrwt>
<rscale>  0 0.89347663E+02</rscale>
<asrwt>0</asrwt>
<pdfrwt beam="2">  1        3 0.16712447E-01 0.89347663E+02</pdfrwt>
<pdfrwt beam="1">  1       -3 0.28264393E-02 0.89347663E+02</pdfrwt>
<totfact> 0.34621997E+04</totfact>
</mgrwt>
</event>
<event>
 5    1  0.7431090E-001  0.9408181E+02  0.7818608E-02  0.1293258E+00
          3   -1    0    0  501    0  0.00000000000E+00  0.00000000000E+00  0.15792404202E+03  0.15792406940E+03  0.93000000000E-01 0. -1.
         -3   -1    0    0    0  501 -0.00000000000E+00 -0.00000000000E+00 -0.14011911727E+02  0.14012220354E+02  0.93000000000E-01 0.  1.
         23    2    1    2    0    0  0.00000000000E+00  0.00000000000E+00  0.14391213029E+03  0.17193628975E+03  0.94081807433E+02 0.  0.
        -11    1    3    3    0    0  0.17882647589E+02  0.16309791761E+02 -0.17599943721E+01  0.24267178916E+02  0.51100000000E-03 0.  1.
         11    1    3    3    0    0 -0.17882647589E+02 -0.16309791761E+02  0.14567212466E+03  0.14766911084E+03  0.51100000000E-03 0. -1.
<mgrwt>
<rscale>  0 0.94081807E+02</rscale>
<asrwt>0</asrwt>
<pdfrwt beam="1">  1        3 0.24296032E-01 0.94081807E+02</pdfrwt>
<pdfrwt beam="2">  1       -3 0.21557046E-02 0.94081807E+02</pdfrwt>
<totfact> 0.27568684E+04</totfact>
</mgrwt>
</event>
<event>
 5    1  0.7431090E-001  0.8973425E+02  0.7818608E-02  0.1303497E+00
         -3   -1    0    0    0  501 -0.00000000000E+00  0.00000000000E+00  0.21442173052E+02  0.21442374733E+02  0.93000000000E-01 0.  1.
          3   -1    0    0  501    0  0.00000000000E+00 -0.00000000000E+00 -0.93882493201E+02  0.93882539264E+02  0.93000000000E-01 0. -1.
         23    2    1    2    0    0  0.00000000000E+00  0.00000000000E+00 -0.72440320149E+02  0.11532491400E+03  0.89734251014E+02 0.  0.
        -11    1    3    3    0    0  0.38520996929E+02  0.12330665558E+01 -0.65742218221E+02  0.76206475541E+02  0.51100000000E-03 0. -1.
         11    1    3    3    0    0 -0.38520996929E+02 -0.12330665558E+01 -0.66981019283E+01  0.39118438456E+02  0.51100000000E-03 0.  1.
<mgrwt>
<rscale>  0 0.89734251E+02</rscale>
<asrwt>0</asrwt>
<pdfrwt beam="2">  1        3 0.14443479E-01 0.89734251E+02</pdfrwt>
<pdfrwt beam="1">  1       -3 0.32988149E-02 0.89734251E+02</pdfrwt>
<totfact> 0.35052180E+04</totfact>
</mgrwt>
</event>
<event>
 5    1  0.7431090E-001  0.9226016E+02  0.7818608E-02  0.1297469E+00
         -3   -1    0    0    0  501 -0.00000000000E+00  0.00000000000E+00  0.49100808135E+02  0.49100896209E+02  0.93000000000E-01 0.  1.
          3   -1    0    0  501    0  0.00000000000E+00 -0.00000000000E+00 -0.43338914021E+02  0.43339013804E+02  0.93000000000E-01 0. -1.
         23    2    1    2    0    0  0.00000000000E+00  0.00000000000E+00  0.57618941148E+01  0.92439910013E+02  0.92260162255E+02 0.  0.
        -11    1    3    3    0    0  0.14051767762E+01 -0.37816978943E+02 -0.23550098252E+02  0.44572475207E+02  0.51100000000E-03 0.  1.
         11    1    3    3    0    0 -0.14051767762E+01  0.37816978943E+02  0.29311992367E+02  0.47867434806E+02  0.51100000000E-03 0. -1.
<mgrwt>
<rscale>  0 0.92260162E+02</rscale>
<asrwt>0</asrwt>
<pdfrwt beam="2">  1        3 0.66675397E-02 0.92260162E+02</pdfrwt>
<pdfrwt beam="1">  1       -3 0.75539849E-02 0.92260162E+02</pdfrwt>
<totfact> 0.34123245E+04</totfact>
</mgrwt>
</event>
<event>
 5    1  0.7431090E-001  0.9054810E+02  0.7818608E-02  0.1301530E+00
         -3   -1    0    0    0  501 -0.00000000000E+00  0.00000000000E+00  0.41317325666E+02  0.41317430331E+02  0.93000000000E-01 0.  1.
          3   -1    0    0  501    0  0.00000000000E+00 -0.00000000000E+00 -0.49609474441E+02  0.49609561611E+02  0.93000000000E-01 0. -1.
         23    2    1    2    0    0  0.00000000000E+00  0.00000000000E+00 -0.82921487747E+01  0.90926991943E+02  0.90548098447E+02 0.  0.
        -11    1    3    3    0    0  0.34862929772E+02  0.28873913661E+02 -0.49321465127E+01  0.45535182353E+02  0.51100000000E-03 0. -1.
         11    1    3    3    0    0 -0.34862929772E+02 -0.28873913661E+02 -0.33600022619E+01  0.45391809590E+02  0.51100000000E-03 0.  1.
<mgrwt>
<rscale>  0 0.90548098E+02</rscale>
<asrwt>0</asrwt>
<pdfrwt beam="2">  1        3 0.76322416E-02 0.90548098E+02</pdfrwt>
<pdfrwt beam="1">  1       -3 0.63565264E-02 0.90548098E+02</pdfrwt>
<totfact> 0.36030049E+04</totfact>
</mgrwt>
</event>
<event>
 5    1  0.7431090E-001  0.5802087E+02  0.7818608E-02  0.1406330E+00
         -3   -1    0    0    0  501 -0.00000000000E+00  0.00000000000E+00  0.10110721033E+03  0.10110725310E+03  0.93000000000E-01 0.  1.
          3   -1    0    0  501    0  0.00000000000E+00 -0.00000000000E+00 -0.83235873045E+01  0.83241068359E+01  0.93000000000E-01 0. -1.
         23    2    1    2    0    0  0.00000000000E+00  0.00000000000E+00  0.92783623022E+02  0.10943135993E+03  0.58020874139E+02 0.  0.
        -11    1    3    3    0    0  0.10608964385E+02 -0.26140050350E+02  0.33634246318E+02  0.43898916653E+02  0.51100000000E-03 0. -1.
         11    1    3    3    0    0 -0.10608964385E+02  0.26140050350E+02  0.59149376704E+02  0.65532443281E+02  0.51100000000E-03 0.  1.
<mgrwt>
<rscale>  0 0.58020874E+02</rscale>
<asrwt>0</asrwt>
<pdfrwt beam="2">  1        3 0.12805952E-02 0.58020874E+02</pdfrwt>
<pdfrwt beam="1">  1       -3 0.15554998E-01 0.58020874E+02</pdfrwt>
<totfact> 0.11207121E+05</totfact>
</mgrwt>
</event>
<event>
 5    1  0.7431090E-001  0.9081148E+02  0.7818608E-02  0.1300898E+00
         -3   -1    0    0    0  501 -0.00000000000E+00  0.00000000000E+00  0.18723640644E+03  0.18723642954E+03  0.93000000000E-01 0.  1.
          3   -1    0    0  501    0  0.00000000000E+00 -0.00000000000E+00 -0.11010892241E+02  0.11011284981E+02  0.93000000000E-01 0. -1.
         23    2    1    2    0    0  0.00000000000E+00  0.00000000000E+00  0.17622551420E+03  0.19824771452E+03  0.90811477560E+02 0.  0.
        -11    1    3    3    0    0  0.16239542304E+02 -0.24775630710E+02  0.16323464574E+03  0.16590088662E+03  0.51100000000E-03 0.  1.
         11    1    3    3    0    0 -0.16239542304E+02  0.24775630710E+02  0.12990868456E+02  0.32346827894E+02  0.51100000000E-03 0. -1.
<mgrwt>
<rscale>  0 0.90811478E+02</rscale>
<asrwt>0</asrwt>
<pdfrwt beam="2">  1        3 0.16940157E-02 0.90811478E+02</pdfrwt>
<pdfrwt beam="1">  1       -3 0.28805629E-01 0.90811478E+02</pdfrwt>
<totfact> 0.28899463E+04</totfact>
</mgrwt>
</event>
<event>
 5    1  0.7431090E-001  0.9214602E+02  0.7818608E-02  0.1297736E+00
         -3   -1    0    0    0  501 -0.00000000000E+00  0.00000000000E+00  0.14596040706E+02  0.14596336982E+02  0.93000000000E-01 0.  1.
          3   -1    0    0  501    0  0.00000000000E+00 -0.00000000000E+00 -0.14542957370E+03  0.14542960344E+03  0.93000000000E-01 0. -1.
         23    2    1    2    0    0  0.00000000000E+00  0.00000000000E+00 -0.13083353300E+03  0.16002594042E+03  0.92146015925E+02 0.  0.
        -11    1    3    3    0    0 -0.20368585026E+02 -0.21661751333E+02 -0.42970472471E+01  0.30042891706E+02  0.51100000000E-03 0.  1.
         11    1    3    3    0    0  0.20368585026E+02  0.21661751333E+02 -0.12653648575E+03  0.12998304871E+03  0.51100000000E-03 0. -1.
<mgrwt>
<rscale>  0 0.92146016E+02</rscale>
<asrwt>0</asrwt>
<pdfrwt beam="2">  1        3 0.22373805E-01 0.92146016E+02</pdfrwt>
<pdfrwt beam="1">  1       -3 0.22455699E-02 0.92146016E+02</pdfrwt>
<totfact> 0.29836822E+04</totfact>
</mgrwt>
</event>
<event>
 5    1  0.7431090E-001  0.9061528E+02  0.7818608E-02  0.1301369E+00
         -3   -1    0    0    0  501 -0.00000000000E+00  0.00000000000E+00  0.17872547870E+03  0.17872550290E+03  0.93000000000E-01 0.  1.
          3   -1    0    0  501    0  0.00000000000E+00 -0.00000000000E+00 -0.11485457945E+02  0.11485834458E+02  0.93000000000E-01 0. -1.
         23    2    1    2    0    0  0.00000000000E+00  0.00000000000E+00  0.16724002075E+03  0.19021133735E+03  0.90615276394E+02 0.  0.
        -11    1    3    3    0    0  0.19454660182E+02  0.24584447235E+02  0.15228055262E+03  0.15547426011E+03  0.51100000000E-03 0.  1.
         11    1    3    3    0    0 -0.19454660182E+02 -0.24584447235E+02  0.14959468134E+02  0.34737077248E+02  0.51100000000E-03 0. -1.
<mgrwt>
<rscale>  0 0.90615276E+02</rscale>
<asrwt>0</asrwt>
<pdfrwt beam="2">  1        3 0.17670243E-02 0.90615276E+02</pdfrwt>
<pdfrwt beam="1">  1       -3 0.27496259E-01 0.90615276E+02</pdfrwt>
<totfact> 0.29499343E+04</totfact>
</mgrwt>
</event>
<event>
 5    1  0.7431090E-001  0.9352384E+02  0.7818608E-02  0.1294536E+00
          3   -1    0    0  501    0  0.00000000000E+00  0.00000000000E+00  0.32309682333E+02  0.32309816178E+02  0.93000000000E-01 0. -1.
         -3   -1    0    0    0  501 -0.00000000000E+00 -0.00000000000E+00 -0.67678393343E+02  0.67678457241E+02  0.93000000000E-01 0.  1.
         23    2    1    2    0    0  0.00000000000E+00  0.00000000000E+00 -0.35368711010E+02  0.99988273419E+02  0.93523842430E+02 0.  0.
        -11    1    3    3    0    0 -0.13078385891E+02 -0.58403894311E+01 -0.65275514444E+02  0.66828490275E+02  0.51100000000E-03 0.  1.
         11    1    3    3    0    0  0.13078385891E+02  0.58403894311E+01  0.29906803434E+02  0.33159783144E+02  0.51100000000E-03 0. -1.
<mgrwt>
<rscale>  0 0.93523842E+02</rscale>
<asrwt>0</asrwt>
<pdfrwt beam="1">  1        3 0.49707356E-02 0.93523842E+02</pdfrwt>
<pdfrwt beam="2">  1       -3 0.10412076E-01 0.93523842E+02</pdfrwt>
<totfact> 0.32348640E+04</totfact>
</mgrwt>
</event>
<event>
 5    1  0.7431090E-001  0.8986461E+02  0.7818608E-02  0.1303180E+00
          3   -1    0    0  501    0  0.00000000000E+00  0.00000000000E+00  0.12103128900E+02  0.12103486199E+02  0.93000000000E-01 0. -1.
         -3   -1    0    0    0  501 -0.00000000000E+00 -0.00000000000E+00 -0.16680628336E+03  0.16680630928E+03  0.93000000000E-01 0.  1.
         23    2    1    2    0    0  0.00000000000E+00  0.00000000000E+00 -0.15470315446E+03  0.17890979548E+03  0.89864614395E+02 0.  0.
        -11    1    3    3    0    0  0.20236867203E+02  0.32233995844E+02 -0.12489785113E+03  0.13056812206E+03  0.51100000000E-03 0.  1.
         11    1    3    3    0    0 -0.20236867203E+02 -0.32233995844E+02 -0.29805303330E+02  0.48341673421E+02  0.51100000000E-03 0. -1.
<mgrwt>
<rscale>  0 0.89864614E+02</rscale>
<asrwt>0</asrwt>
<pdfrwt beam="1">  1        3 0.18620494E-02 0.89864614E+02</pdfrwt>
<pdfrwt beam="2">  1       -3 0.25662533E-01 0.89864614E+02</pdfrwt>
<totfact> 0.30806951E+04</totfact>
</mgrwt>
</event>
<event>
 5    1  0.7431090E-001  0.9049187E+02  0.7818608E-02  0.1301665E+00
          3   -1    0    0  501    0  0.00000000000E+00  0.00000000000E+00  0.11135235315E+03  0.11135239199E+03  0.93000000000E-01 0. -1.
         -3   -1    0    0    0  501 -0.00000000000E+00 -0.00000000000E+00 -0.18384677206E+02  0.18384912428E+02  0.93000000000E-01 0.  1.
         23    2    1    2    0    0  0.00000000000E+00  0.00000000000E+00  0.92967675946E+02  0.12973730442E+03  0.90491874699E+02 0.  0.
        -11    1    3    3    0    0  0.13337330424E+02 -0.11899357903E+02 -0.13108638035E+02  0.22165637657E+02  0.51100000000E-03 0.  1.
         11    1    3    3    0    0 -0.13337330424E+02  0.11899357903E+02  0.10607631398E+03  0.10757166676E+03  0.51100000000E-03 0. -1.
<mgrwt>
<rscale>  0 0.90491875E+02</rscale>
<asrwt>0</asrwt>
<pdfrwt beam="1">  1        3 0.17131152E-01 0.90491875E+02</pdfrwt>
<pdfrwt beam="2">  1       -3 0.28284330E-02 0.90491875E+02</pdfrwt>
<totfact> 0.33265751E+04</totfact>
</mgrwt>
</event>
<event>
 5    1  0.7431090E-001  0.9393517E+02  0.7818608E-02  0.1293593E+00
         -3   -1    0    0    0  501 -0.00000000000E+00  0.00000000000E+00  0.16717681829E+03  0.16717684416E+03  0.93000000000E-01 0.  1.
          3   -1    0    0  501    0  0.00000000000E+00 -0.00000000000E+00 -0.13195143029E+02  0.13195470759E+02  0.93000000000E-01 0. -1.
         23    2    1    2    0    0  0.00000000000E+00  0.00000000000E+00  0.15398167526E+03  0.18037231492E+03  0.93935167389E+02 0.  0.
        -11    1    3    3    0    0  0.33835279961E+02  0.17857048455E+02  0.24676851546E+02  0.45526336906E+02  0.51100000000E-03 0. -1.
         11    1    3    3    0    0 -0.33835279961E+02 -0.17857048455E+02  0.12930482372E+03  0.13484597801E+03  0.51100000000E-03 0.  1.
<mgrwt>
<rscale>  0 0.93935167E+02</rscale>
<asrwt>0</asrwt>
<pdfrwt beam="2">  1        3 0.20300492E-02 0.93935167E+02</pdfrwt>
<pdfrwt beam="1">  1       -3 0.25719538E-01 0.93935167E+02</pdfrwt>
<totfact> 0.27252835E+04</totfact>
</mgrwt>
</event>
<event>
 5    1  0.7431090E-001  0.9649741E+02  0.7818608E-02  0.1287839E+00
          3   -1    0    0  501    0  0.00000000000E+00  0.00000000000E+00  0.14406579876E+02  0.14406880048E+02  0.93000000000E-01 0. -1.
         -3   -1    0    0    0  501 -0.00000000000E+00 -0.00000000000E+00 -0.16158648687E+03  0.16158651363E+03  0.93000000000E-01 0.  1.
         23    2    1    2    0    0  0.00000000000E+00  0.00000000000E+00 -0.14717990699E+03  0.17599339368E+03  0.96497407200E+02 0.  0.
        -11    1    3    3    0    0  0.10135481699E+02  0.23019972496E+02  0.15036174477E+01  0.25197380592E+02  0.51100000000E-03 0. -1.
         11    1    3    3    0    0 -0.10135481699E+02 -0.23019972496E+02 -0.14868352444E+03  0.15079601309E+03  0.51100000000E-03 0.  1.
<mgrwt>
<rscale>  0 0.96497407E+02</rscale>
<asrwt>0</asrwt>
<pdfrwt beam="1">  1        3 0.22164222E-02 0.96497407E+02</pdfrwt>
<pdfrwt beam="2">  1       -3 0.24859483E-01 0.96497407E+02</pdfrwt>
<totfact> 0.25536989E+04</totfact>
</mgrwt>
</event>
<event>
 5    1  0.7431090E-001  0.9192103E+02  0.7818608E-02  0.1298265E+00
         -3   -1    0    0    0  501 -0.00000000000E+00  0.00000000000E+00  0.58732003544E+02  0.58732077175E+02  0.93000000000E-01 0.  1.
          3   -1    0    0  501    0  0.00000000000E+00 -0.00000000000E+00 -0.35966077226E+02  0.35966197464E+02  0.93000000000E-01 0. -1.
         23    2    1    2    0    0  0.00000000000E+00  0.00000000000E+00  0.22765926319E+02  0.94698274639E+02  0.91921030338E+02 0.  0.
        -11    1    3    3    0    0 -0.13672565176E+02  0.14986176044E+02  0.53870297131E+02  0.57563299281E+02  0.51100000000E-03 0.  1.
         11    1    3    3    0    0  0.13672565176E+02 -0.14986176044E+02 -0.31104370812E+02  0.37134975358E+02  0.51100000000E-03 0. -1.
<mgrwt>
<rscale>  0 0.91921030E+02</rscale>
<asrwt>0</asrwt>
<pdfrwt beam="2">  1        3 0.55332576E-02 0.91921030E+02</pdfrwt>
<pdfrwt beam="1">  1       -3 0.90357077E-02 0.91921030E+02</pdfrwt>
<totfact> 0.34300979E+04</totfact>
</mgrwt>
</event>
<event>
 4    1  0.7431090E-001  0.4669741E+02  0.7818608E-02  0.1464015E+00
          3   -1    0    0  501    0  0.00000000000E+00  0.00000000000E+00  0.67717134235E+01  0.67723520058E+01  0.93000000000E-01 0. -1.
         -3   -1    0    0    0  501 -0.00000000000E+00 -0.00000000000E+00 -0.80501312818E+02  0.80501366538E+02  0.93000000000E-01 0.  1.
        -11    1    1    2    0    0  0.12646730346E+02 -0.17631590652E+02 -0.52979750680E+02  0.57250910558E+02  0.51100000000E-03 0. -1.
         11    1    1    2    0    0 -0.12646730346E+02  0.17631590652E+02 -0.20749848714E+02  0.30022807985E+02  0.51100000000E-03 0.  1.
<mgrwt>
<rscale>  0 0.46697410E+02</rscale>
<asrwt>0</asrwt>
<pdfrwt beam="1">  1        3 0.10418554E-02 0.46697410E+02</pdfrwt>
<pdfrwt beam="2">  1       -3 0.12384870E-01 0.46697410E+02</pdfrwt>
<totfact> 0.20408257E+05</totfact>
</mgrwt>
</event>
<event>
 5    1  0.7431090E-001  0.9092562E+02  0.7818608E-02  0.1300626E+00
         -3   -1    0    0    0  501 -0.00000000000E+00  0.00000000000E+00  0.10176734573E+03  0.10176738822E+03  0.93000000000E-01 0.  1.
          3   -1    0    0  501    0  0.00000000000E+00 -0.00000000000E+00 -0.20309575706E+02  0.20309788634E+02  0.93000000000E-01 0. -1.
         23    2    1    2    0    0  0.00000000000E+00  0.00000000000E+00  0.81457770022E+02  0.12207717686E+03  0.90925622417E+02 0.  0.
        -11    1    3    3    0    0  0.13132648904E+02 -0.38427843510E+02  0.13289065339E+02  0.42728970055E+02  0.51100000000E-03 0. -1.
         11    1    3    3    0    0 -0.13132648904E+02  0.38427843510E+02  0.68168704683E+02  0.79348206801E+02  0.51100000000E-03 0.  1.
<mgrwt>
<rscale>  0 0.90925622E+02</rscale>
<asrwt>0</asrwt>
<pdfrwt beam="2">  1        3 0.31245698E-02 0.90925622E+02</pdfrwt>
<pdfrwt beam="1">  1       -3 0.15656534E-01 0.90925622E+02</pdfrwt>
<totfact> 0.33355521E+04</totfact>
</mgrwt>
</event>
<event>
 5    1  0.7431090E-001  0.1056364E+03  0.7818608E-02  0.1268871E+00
          3   -1    0    0  501    0  0.00000000000E+00  0.00000000000E+00  0.50844417047E+02  0.50844502100E+02  0.93000000000E-01 0. -1.
         -3   -1    0    0    0  501 -0.00000000000E+00 -0.00000000000E+00 -0.54868449425E+02  0.54868528241E+02  0.93000000000E-01 0.  1.
         23    2    1    2    0    0  0.00000000000E+00  0.00000000000E+00 -0.40240323787E+01  0.10571303034E+03  0.10563641393E+03 0.  0.
        -11    1    3    3    0    0  0.69233340720E+01  0.14963778108E+02 -0.52227248041E+02  0.54767989265E+02  0.51100000000E-03 0.  1.
         11    1    3    3    0    0 -0.69233340720E+01 -0.14963778108E+02  0.48203215662E+02  0.50945041077E+02  0.51100000000E-03 0. -1.
<mgrwt>
<rscale>  0 0.10563641E+03</rscale>
<asrwt>0</asrwt>
<pdfrwt beam="1">  1        3 0.78222306E-02 0.10563641E+03</pdfrwt>
<pdfrwt beam="2">  1       -3 0.84413125E-02 0.10563641E+03</pdfrwt>
<totfact> 0.22863237E+04</totfact>
</mgrwt>
</event>
<event>
 5    1  0.7431090E-001  0.9113119E+02  0.7818608E-02  0.1300135E+00
         -3   -1    0    0    0  501 -0.00000000000E+00  0.00000000000E+00  0.17665534356E+02  0.17665779153E+02  0.93000000000E-01 0.  1.
          3   -1    0    0  501    0  0.00000000000E+00 -0.00000000000E+00 -0.11752853078E+03  0.11752856758E+03  0.93000000000E-01 0. -1.
         23    2    1    2    0    0  0.00000000000E+00  0.00000000000E+00 -0.99862996428E+02  0.13519434673E+03  0.91131187486E+02 0.  0.
        -11    1    3    3    0    0 -0.32732669967E+02 -0.18773305859E+02 -0.87822379853E+02  0.95585747365E+02  0.51100000000E-03 0. -1.
         11    1    3    3    0    0  0.32732669967E+02  0.18773305859E+02 -0.12040616575E+02  0.39608599367E+02  0.51100000000E-03 0.  1.
<mgrwt>
<rscale>  0 0.91131187E+02</rscale>
<asrwt>0</asrwt>
<pdfrwt beam="2">  1        3 0.18081334E-01 0.91131187E+02</pdfrwt>
<pdfrwt beam="1">  1       -3 0.27177963E-02 0.91131187E+02</pdfrwt>
<totfact> 0.32281348E+04</totfact>
</mgrwt>
</event>
<event>
 5    1  0.7431090E-001  0.9750658E+02  0.7818608E-02  0.1285628E+00
          3   -1    0    0  501    0  0.00000000000E+00  0.00000000000E+00  0.10515520048E+02  0.10515931289E+02  0.93000000000E-01 0. -1.
         -3   -1    0    0    0  501 -0.00000000000E+00 -0.00000000000E+00 -0.22603087357E+03  0.22603089270E+03  0.93000000000E-01 0.  1.
         23    2    1    2    0    0  0.00000000000E+00  0.00000000000E+00 -0.21551535352E+03  0.23654682399E+03  0.97506575864E+02 0.  0.
        -11    1    3    3    0    0  0.17223219294E+02 -0.44949588217E+02 -0.12651431789E+03  0.13536239284E+03  0.51100000000E-03 0. -1.
         11    1    3    3    0    0 -0.17223219294E+02  0.44949588217E+02 -0.89001035628E+02  0.10118443115E+03  0.51100000000E-03 0.  1.
<mgrwt>
<rscale>  0 0.97506576E+02</rscale>
<asrwt>0</asrwt>
<pdfrwt beam="1">  1        3 0.16178056E-02 0.97506576E+02</pdfrwt>
<pdfrwt beam="2">  1       -3 0.34774010E-01 0.97506576E+02</pdfrwt>
<totfact> 0.22273748E+04</totfact>
</mgrwt>
</event>
<event>
 5    1  0.7431090E-001  0.9103684E+02  0.7818608E-02  0.1300360E+00
         -3   -1    0    0    0  501 -0.00000000000E+00  0.00000000000E+00  0.21016753482E+03  0.21016755539E+03  0.93000000000E-01 0.  1.
          3   -1    0    0  501    0  0.00000000000E+00 -0.00000000000E+00 -0.98582122816E+01  0.98586509416E+01  0.93000000000E-01 0. -1.
         23    2    1    2    0    0  0.00000000000E+00  0.00000000000E+00  0.20030932253E+03  0.22002620633E+03  0.91036842979E+02 0.  0.
        -11    1    3    3    0    0 -0.12462949473E+02  0.43760160678E+02  0.10325914214E+03  0.11283938677E+03  0.51100000000E-03 0.  1.
         11    1    3    3    0    0  0.12462949473E+02 -0.43760160678E+02  0.97050180396E+02  0.10718681956E+03  0.51100000000E-03 0. -1.
<mgrwt>
<rscale>  0 0.91036843E+02</rscale>
<asrwt>0</asrwt>
<pdfrwt beam="2">  1        3 0.15166834E-02 0.91036843E+02</pdfrwt>
<pdfrwt beam="1">  1       -3 0.32333501E-01 0.91036843E+02</pdfrwt>
<totfact> 0.27607151E+04</totfact>
</mgrwt>
</event>
<event>
 5    1  0.7431090E-001  0.1251276E+03  0.7818608E-02  0.1234870E+00
          3   -1    0    0  501    0  0.00000000000E+00  0.00000000000E+00  0.16425728729E+03  0.16425731362E+03  0.93000000000E-01 0. -1.
         -3   -1    0    0    0  501 -0.00000000000E+00 -0.00000000000E+00 -0.23829740608E+02  0.23829922083E+02  0.93000000000E-01 0.  1.
         23    2    1    2    0    0  0.00000000000E+00  0.00000000000E+00  0.14042754668E+03  0.18808723570E+03  0.12512758436E+03 0.  0.
        -11    1    3    3    0    0  0.48856112288E+02  0.60363765140E+01  0.12173930186E+02  0.50710572130E+02  0.51100000000E-03 0.  1.
         11    1    3    3    0    0 -0.48856112288E+02 -0.60363765140E+01  0.12825361650E+03  0.13737666357E+03  0.51100000000E-03 0. -1.
<mgrwt>
<rscale>  0 0.12512758E+03</rscale>
<asrwt>0</asrwt>
<pdfrwt beam="1">  1        3 0.25270367E-01 0.12512758E+03</pdfrwt>
<pdfrwt beam="2">  1       -3 0.36661300E-02 0.12512758E+03</pdfrwt>
<totfact> 0.12181347E+04</totfact>
</mgrwt>
</event>
<event>
 5    1  0.7431090E-001  0.9185618E+02  0.7818608E-02  0.1298418E+00
         -3   -1    0    0    0  501 -0.00000000000E+00  0.00000000000E+00  0.10942806092E+02  0.10943201276E+02  0.93000000000E-01 0.  1.
          3   -1    0    0  501    0  0.00000000000E+00 -0.00000000000E+00 -0.19276104700E+03  0.19276106943E+03  0.93000000000E-01 0. -1.
         23    2    1    2    0    0  0.00000000000E+00  0.00000000000E+00 -0.18181824091E+03  0.20370427071E+03  0.91856176595E+02 0.  0.
        -11    1    3    3    0    0 -0.43173909296E+02  0.14136546753E+02 -0.75940288949E+02  0.88491558263E+02  0.51100000000E-03 0.  1.
         11    1    3    3    0    0  0.43173909296E+02 -0.14136546753E+02 -0.10587795196E+03  0.11521271245E+03  0.51100000000E-03 0. -1.
<mgrwt>
<rscale>  0 0.91856177E+02</rscale>
<asrwt>0</asrwt>
<pdfrwt beam="2">  1        3 0.29655575E-01 0.91856177E+02</pdfrwt>
<pdfrwt beam="1">  1       -3 0.16835409E-02 0.91856177E+02</pdfrwt>
<totfact> 0.27745941E+04</totfact>
</mgrwt>
</event>
<event>
 5    1  0.7431090E-001  0.8108126E+02  0.7818608E-02  0.1326011E+00
         -3   -1    0    0    0  501 -0.00000000000E+00  0.00000000000E+00  0.12302343931E+03  0.12302347447E+03  0.93000000000E-01 0.  1.
          3   -1    0    0  501    0  0.00000000000E+00 -0.00000000000E+00 -0.13359391874E+02  0.13359715575E+02  0.93000000000E-01 0. -1.
         23    2    1    2    0    0  0.00000000000E+00  0.00000000000E+00  0.10966404744E+03  0.13638319004E+03  0.81081263094E+02 0.  0.
        -11    1    3    3    0    0  0.91991450627E+01  0.23274655590E+02  0.10847902163E+03  0.11132848691E+03  0.51100000000E-03 0.  1.
         11    1    3    3    0    0 -0.91991450627E+01 -0.23274655590E+02  0.11850258089E+01  0.25054703134E+02  0.51100000000E-03 0. -1.
<mgrwt>
<rscale>  0 0.81081263E+02</rscale>
<asrwt>0</asrwt>
<pdfrwt beam="2">  1        3 0.20553187E-02 0.81081263E+02</pdfrwt>
<pdfrwt beam="1">  1       -3 0.18926710E-01 0.81081263E+02</pdfrwt>
<totfact> 0.44098390E+04</totfact>
</mgrwt>
</event>
<event>
 5    1  0.7431090E-001  0.9407716E+02  0.7818608E-02  0.1293268E+00
         -3   -1    0    0    0  501 -0.00000000000E+00  0.00000000000E+00  0.11838650552E+02  0.11839015833E+02  0.93000000000E-01 0.  1.
          3   -1    0    0  501    0  0.00000000000E+00 -0.00000000000E+00 -0.18689539221E+03  0.18689541535E+03  0.93000000000E-01 0. -1.
         23    2    1    2    0    0  0.00000000000E+00  0.00000000000E+00 -0.17505674166E+03  0.19873443118E+03  0.94077156299E+02 0.  0.
        -11    1    3    3    0    0  0.83615159563E+01 -0.40450184020E+02 -0.39986449463E+02  0.57489551027E+02  0.51100000000E-03 0.  1.
         11    1    3    3    0    0 -0.83615159563E+01  0.40450184020E+02 -0.13507029219E+03  0.14124488015E+03  0.51100000000E-03 0. -1.
<mgrwt>
<rscale>  0 0.94077156E+02</rscale>
<asrwt>0</asrwt>
<pdfrwt beam="2">  1        3 0.28753165E-01 0.94077156E+02</pdfrwt>
<pdfrwt beam="1">  1       -3 0.18213609E-02 0.94077156E+02</pdfrwt>
<totfact> 0.26242799E+04</totfact>
</mgrwt>
</event>
<event>
 5    1  0.7431090E-001  0.8488508E+02  0.7818608E-02  0.1315733E+00
          3   -1    0    0  501    0  0.00000000000E+00  0.00000000000E+00  0.88528356819E+01  0.88533241560E+01  0.93000000000E-01 0. -1.
         -3   -1    0    0    0  501 -0.00000000000E+00 -0.00000000000E+00 -0.20347322703E+03  0.20347324828E+03  0.93000000000E-01 0.  1.
         23    2    1    2    0    0  0.00000000000E+00  0.00000000000E+00 -0.19462039135E+03  0.21232657244E+03  0.84885078991E+02 0.  0.
        -11    1    3    3    0    0  0.11609355449E+01 -0.41388712930E+02 -0.12064059691E+03  0.12754813583E+03  0.51100000000E-03 0.  1.
         11    1    3    3    0    0 -0.11609355449E+01  0.41388712930E+02 -0.73979794433E+02  0.84778436609E+02  0.51100000000E-03 0. -1.
<mgrwt>
<rscale>  0 0.84885079E+02</rscale>
<asrwt>0</asrwt>
<pdfrwt beam="1">  1        3 0.13620141E-02 0.84885079E+02</pdfrwt>
<pdfrwt beam="2">  1       -3 0.31303609E-01 0.84885079E+02</pdfrwt>
<totfact> 0.33761958E+04</totfact>
</mgrwt>
</event>
<event>
 5    1  0.7431090E-001  0.9134950E+02  0.7818608E-02  0.1299616E+00
          3   -1    0    0  501    0  0.00000000000E+00  0.00000000000E+00  0.19688937100E+02  0.19689156739E+02  0.93000000000E-01 0. -1.
         -3   -1    0    0    0  501 -0.00000000000E+00 -0.00000000000E+00 -0.10595627576E+03  0.10595631658E+03  0.93000000000E-01 0.  1.
         23    2    1    2    0    0  0.00000000000E+00  0.00000000000E+00 -0.86267338664E+02  0.12564547332E+03  0.91349500518E+02 0.  0.
        -11    1    3    3    0    0 -0.19485657722E+02 -0.23545047096E+02  0.35526932441E+01  0.30768193466E+02  0.51100000000E-03 0. -1.
         11    1    3    3    0    0  0.19485657722E+02  0.23545047096E+02 -0.89820031908E+02  0.94877279851E+02  0.51100000000E-03 0.  1.
<mgrwt>
<rscale>  0 0.91349501E+02</rscale>
<asrwt>0</asrwt>
<pdfrwt beam="1">  1        3 0.30290873E-02 0.91349501E+02</pdfrwt>
<pdfrwt beam="2">  1       -3 0.16300985E-01 0.91349501E+02</pdfrwt>
<totfact> 0.32697605E+04</totfact>
</mgrwt>
</event>
<event>
 5    1  0.7431090E-001  0.8991719E+02  0.7818608E-02  0.1303052E+00
          3   -1    0    0  501    0  0.00000000000E+00  0.00000000000E+00  0.17353781017E+02  0.17354030211E+02  0.93000000000E-01 0. -1.
         -3   -1    0    0    0  501 -0.00000000000E+00 -0.00000000000E+00 -0.11647352227E+03  0.11647355939E+03  0.93000000000E-01 0.  1.
         23    2    1    2    0    0  0.00000000000E+00  0.00000000000E+00 -0.99119741248E+02  0.13382758961E+03  0.89917187647E+02 0.  0.
        -11    1    3    3    0    0  0.27167456169E+02  0.27981015053E+02 -0.16270622180E+02  0.42258029113E+02  0.51100000000E-03 0. -1.
         11    1    3    3    0    0 -0.27167456169E+02 -0.27981015053E+02 -0.82849119068E+02  0.91569560492E+02  0.51100000000E-03 0.  1.
<mgrwt>
<rscale>  0 0.89917188E+02</rscale>
<asrwt>0</asrwt>
<pdfrwt beam="1">  1        3 0.26698346E-02 0.89917188E+02</pdfrwt>
<pdfrwt beam="2">  1       -3 0.17919025E-01 0.89917188E+02</pdfrwt>
<totfact> 0.33567617E+04</totfact>
</mgrwt>
</event>
<event>
 5    1  0.7431090E-001  0.9123743E+02  0.7818608E-02  0.1299882E+00
          3   -1    0    0  501    0  0.00000000000E+00  0.00000000000E+00  0.20991026768E+02  0.20991232784E+02  0.93000000000E-01 0. -1.
         -3   -1    0    0    0  501 -0.00000000000E+00 -0.00000000000E+00 -0.99140085414E+02  0.99140129034E+02  0.93000000000E-01 0.  1.
         23    2    1    2    0    0  0.00000000000E+00  0.00000000000E+00 -0.78149058646E+02  0.12013136182E+03  0.91237430504E+02 0.  0.
        -11    1    3    3    0    0  0.11342340958E+02  0.20432818938E+02 -0.90659833954E+02  0.93623470781E+02  0.51100000000E-03 0.  1.
         11    1    3    3    0    0 -0.11342340958E+02 -0.20432818938E+02  0.12510775309E+02  0.26507891037E+02  0.51100000000E-03 0. -1.
<mgrwt>
<rscale>  0 0.91237431E+02</rscale>
<asrwt>0</asrwt>
<pdfrwt beam="1">  1        3 0.32294080E-02 0.91237431E+02</pdfrwt>
<pdfrwt beam="2">  1       -3 0.15252340E-01 0.91237431E+02</pdfrwt>
<totfact> 0.33178999E+04</totfact>
</mgrwt>
</event>
<event>
 5    1  0.7431090E-001  0.9072168E+02  0.7818608E-02  0.1301113E+00
         -3   -1    0    0    0  501 -0.00000000000E+00  0.00000000000E+00  0.67688550272E+02  0.67688614161E+02  0.93000000000E-01 0. -1.
          3   -1    0    0  501    0  0.00000000000E+00 -0.00000000000E+00 -0.30397987393E+02  0.30398129655E+02  0.93000000000E-01 0.  1.
         23    2    1    2    0    0  0.00000000000E+00  0.00000000000E+00  0.37290562880E+02  0.98086743816E+02  0.90721680058E+02 0.  0.
        -11    1    3    3    0    0 -0.44996244387E+02 -0.20704296332E+01  0.12857454928E+02  0.46842959292E+02  0.51100000000E-03 0. -1.
         11    1    3    3    0    0  0.44996244387E+02  0.20704296332E+01  0.24433107952E+02  0.51243784523E+02  0.51100000000E-03 0.  1.
<mgrwt>
<rscale>  0 0.90721680E+02</rscale>
<asrwt>0</asrwt>
<pdfrwt beam="2">  1        3 0.46766294E-02 0.90721680E+02</pdfrwt>
<pdfrwt beam="1">  1       -3 0.10413639E-01 0.90721680E+02</pdfrwt>
<totfact> 0.35291837E+04</totfact>
</mgrwt>
</event>
<event>
 5    1  0.7431090E-001  0.9066865E+02  0.7818608E-02  0.1301241E+00
         -3   -1    0    0    0  501 -0.00000000000E+00  0.00000000000E+00  0.10969154129E+03  0.10969158071E+03  0.93000000000E-01 0.  1.
          3   -1    0    0  501    0  0.00000000000E+00 -0.00000000000E+00 -0.18736025388E+02  0.18736256198E+02  0.93000000000E-01 0. -1.
         23    2    1    2    0    0  0.00000000000E+00  0.00000000000E+00  0.90955515901E+02  0.12842783691E+03  0.90668646294E+02 0.  0.
        -11    1    3    3    0    0  0.29897042575E+02  0.31529210055E+02  0.27158003424E+02  0.51239451516E+02  0.51100000000E-03 0.  1.
         11    1    3    3    0    0 -0.29897042575E+02 -0.31529210055E+02  0.63797512476E+02  0.77188385395E+02  0.51100000000E-03 0. -1.
<mgrwt>
<rscale>  0 0.90668646E+02</rscale>
<asrwt>0</asrwt>
<pdfrwt beam="2">  1        3 0.28824863E-02 0.90668646E+02</pdfrwt>
<pdfrwt beam="1">  1       -3 0.16875642E-01 0.90668646E+02</pdfrwt>
<totfact> 0.33180101E+04</totfact>
</mgrwt>
</event>
<event>
 5    1  0.7431090E-001  0.9051953E+02  0.7818608E-02  0.1301598E+00
          3   -1    0    0  501    0  0.00000000000E+00  0.00000000000E+00  0.21999952683E+03  0.21999954648E+03  0.93000000000E-01 0. -1.
         -3   -1    0    0    0  501 -0.00000000000E+00 -0.00000000000E+00 -0.93108881114E+01  0.93113525560E+01  0.93000000000E-01 0.  1.
         23    2    1    2    0    0  0.00000000000E+00  0.00000000000E+00  0.21068863872E+03  0.22931089904E+03  0.90519533443E+02 0.  0.
        -11    1    3    3    0    0  0.29504624511E+02  0.23816126751E+02  0.42740339857E+02  0.57135517958E+02  0.51100000000E-03 0. -1.
         11    1    3    3    0    0 -0.29504624511E+02 -0.23816126751E+02  0.16794829886E+03  0.17217538108E+03  0.51100000000E-03 0.  1.
<mgrwt>
<rscale>  0 0.90519533E+02</rscale>
<asrwt>0</asrwt>
<pdfrwt beam="1">  1        3 0.33846115E-01 0.90519533E+02</pdfrwt>
<pdfrwt beam="2">  1       -3 0.14324817E-02 0.90519533E+02</pdfrwt>
<totfact> 0.27582532E+04</totfact>
</mgrwt>
</event>
<event>
 5    1  0.7431090E-001  0.9103340E+02  0.7818608E-02  0.1300368E+00
          3   -1    0    0  501    0  0.00000000000E+00  0.00000000000E+00  0.36395116106E+02  0.36395234927E+02  0.93000000000E-01 0. -1.
         -3   -1    0    0    0  501 -0.00000000000E+00 -0.00000000000E+00 -0.56924143784E+02  0.56924219754E+02  0.93000000000E-01 0.  1.
         23    2    1    2    0    0  0.00000000000E+00  0.00000000000E+00 -0.20529027678E+02  0.93319454681E+02  0.91033398511E+02 0.  0.
        -11    1    3    3    0    0 -0.41919447909E+02 -0.17515693720E+02 -0.13114670987E+02  0.47286723664E+02  0.51100000000E-03 0. -1.
         11    1    3    3    0    0  0.41919447909E+02  0.17515693720E+02 -0.74143566911E+01  0.46032731017E+02  0.51100000000E-03 0.  1.
<mgrwt>
<rscale>  0 0.91033399E+02</rscale>
<asrwt>0</asrwt>
<pdfrwt beam="1">  1        3 0.55992636E-02 0.91033399E+02</pdfrwt>
<pdfrwt beam="2">  1       -3 0.87575756E-02 0.91033399E+02</pdfrwt>
<totfact> 0.35326834E+04</totfact>
</mgrwt>
</event>
<event>
 5    1  0.7431090E-001  0.9115669E+02  0.7818608E-02  0.1300075E+00
          3   -1    0    0  501    0  0.00000000000E+00  0.00000000000E+00  0.45116405416E+01  0.45125989603E+01  0.93000000000E-01 0. -1.
         -3   -1    0    0    0  501 -0.00000000000E+00 -0.00000000000E+00 -0.46040023635E+03  0.46040024575E+03  0.93000000000E-01 0.  1.
         23    2    1    2    0    0  0.00000000000E+00  0.00000000000E+00 -0.45588859581E+03  0.46491284471E+03  0.91156685887E+02 0.  0.
        -11    1    3    3    0    0  0.43296247086E+01  0.45243405042E+02 -0.24537009992E+03  0.24954397866E+03  0.51100000000E-03 0.  1.
         11    1    3    3    0    0 -0.43296247086E+01 -0.45243405042E+02 -0.21051849589E+03  0.21536886605E+03  0.51100000000E-03 0. -1.
<mgrwt>
<rscale>  0 0.91156686E+02</rscale>
<asrwt>0</asrwt>
<pdfrwt beam="1">  1        3 0.69417335E-03 0.91156686E+02</pdfrwt>
<pdfrwt beam="2">  1       -3 0.70830843E-01 0.91156686E+02</pdfrwt>
<totfact> 0.18785749E+04</totfact>
</mgrwt>
</event>
<event>
 5    1  0.7431090E-001  0.8711817E+02  0.7818608E-02  0.1309984E+00
          3   -1    0    0  501    0  0.00000000000E+00  0.00000000000E+00  0.48014997023E+02  0.48015087089E+02  0.93000000000E-01 0. -1.
         -3   -1    0    0    0  501 -0.00000000000E+00 -0.00000000000E+00 -0.39516509152E+02  0.39516618588E+02  0.93000000000E-01 0.  1.
         23    2    1    2    0    0  0.00000000000E+00  0.00000000000E+00  0.84984878709E+01  0.87531705676E+02  0.87118168039E+02 0.  0.
        -11    1    3    3    0    0 -0.24302864025E+02  0.20442088994E+02  0.34204952170E+02  0.46674264380E+02  0.51100000000E-03 0. -1.
         11    1    3    3    0    0  0.24302864025E+02 -0.20442088994E+02 -0.25706464299E+02  0.40857441296E+02  0.51100000000E-03 0.  1.
<mgrwt>
<rscale>  0 0.87118168E+02</rscale>
<asrwt>0</asrwt>
<pdfrwt beam="1">  1        3 0.73869380E-02 0.87118168E+02</pdfrwt>
<pdfrwt beam="2">  1       -3 0.60794783E-02 0.87118168E+02</pdfrwt>
<totfact> 0.40308463E+04</totfact>
</mgrwt>
</event>
<event>
 5    1  0.7431090E-001  0.9202268E+02  0.7818608E-02  0.1298026E+00
          3   -1    0    0  501    0  0.00000000000E+00  0.00000000000E+00  0.56525859990E+01  0.56533509953E+01  0.93000000000E-01 0. -1.
         -3   -1    0    0    0  501 -0.00000000000E+00 -0.00000000000E+00 -0.37450045342E+03  0.37450046497E+03  0.93000000000E-01 0.  1.
         23    2    1    2    0    0  0.00000000000E+00  0.00000000000E+00 -0.36884786742E+03  0.38015381596E+03  0.92022684649E+02 0.  0.
        -11    1    3    3    0    0 -0.43367187835E+02 -0.14567657826E+02 -0.16413781482E+03  0.17039410755E+03  0.51100000000E-03 0. -1.
         11    1    3    3    0    0  0.43367187835E+02  0.14567657826E+02 -0.20471005261E+03  0.20975970841E+03  0.51100000000E-03 0.  1.
<mgrwt>
<rscale>  0 0.92022685E+02</rscale>
<asrwt>0</asrwt>
<pdfrwt beam="1">  1        3 0.86968864E-03 0.92022685E+02</pdfrwt>
<pdfrwt beam="2">  1       -3 0.57615495E-01 0.92022685E+02</pdfrwt>
<totfact> 0.20696008E+04</totfact>
</mgrwt>
</event>
<event>
 5    1  0.7431090E-001  0.9265476E+02  0.7818608E-02  0.1296547E+00
         -3   -1    0    0    0  501 -0.00000000000E+00  0.00000000000E+00  0.84699768711E+02  0.84699819767E+02  0.93000000000E-01 0.  1.
          3   -1    0    0  501    0  0.00000000000E+00 -0.00000000000E+00 -0.25339074324E+02  0.25339244988E+02  0.93000000000E-01 0. -1.
         23    2    1    2    0    0  0.00000000000E+00  0.00000000000E+00  0.59360694387E+02  0.11003906476E+03  0.92654755594E+02 0.  0.
        -11    1    3    3    0    0 -0.11843840223E+02  0.18883191406E+02  0.77912740139E+02  0.81038549747E+02  0.51100000000E-03 0.  1.
         11    1    3    3    0    0  0.11843840223E+02 -0.18883191406E+02 -0.18552045752E+02  0.29000515008E+02  0.51100000000E-03 0. -1.
<mgrwt>
<rscale>  0 0.92654756E+02</rscale>
<asrwt>0</asrwt>
<pdfrwt beam="2">  1        3 0.38983362E-02 0.92654756E+02</pdfrwt>
<pdfrwt beam="1">  1       -3 0.13030751E-01 0.92654756E+02</pdfrwt>
<totfact> 0.32488329E+04</totfact>
</mgrwt>
</event>
<event>
 5    1  0.7431090E-001  0.9135826E+02  0.7818608E-02  0.1299595E+00
         -3   -1    0    0    0  501 -0.00000000000E+00  0.00000000000E+00  0.10415222302E+02  0.10415637504E+02  0.93000000000E-01 0.  1.
          3   -1    0    0  501    0  0.00000000000E+00 -0.00000000000E+00 -0.20033530674E+03  0.20033532833E+03  0.93000000000E-01 0. -1.
         23    2    1    2    0    0  0.00000000000E+00  0.00000000000E+00 -0.18992008444E+03  0.21075096583E+03  0.91358257019E+02 0.  0.
        -11    1    3    3    0    0 -0.21443242053E+02 -0.40138766872E+02 -0.10408587762E+03  0.11359930966E+03  0.51100000000E-03 0. -1.
         11    1    3    3    0    0  0.21443242053E+02  0.40138766872E+02 -0.85834206815E+02  0.97151656165E+02  0.51100000000E-03 0.  1.
<mgrwt>
<rscale>  0 0.91358257E+02</rscale>
<asrwt>0</asrwt>
<pdfrwt beam="2">  1        3 0.30820847E-01 0.91358257E+02</pdfrwt>
<pdfrwt beam="1">  1       -3 0.16023756E-02 0.91358257E+02</pdfrwt>
<totfact> 0.27802492E+04</totfact>
</mgrwt>
</event>
<event>
 5    1  0.7431090E-001  0.9416494E+02  0.7818608E-02  0.1293068E+00
          3   -1    0    0  501    0  0.00000000000E+00  0.00000000000E+00  0.39337219268E+02  0.39337329201E+02  0.93000000000E-01 0. -1.
         -3   -1    0    0    0  501 -0.00000000000E+00 -0.00000000000E+00 -0.56352484304E+02  0.56352561044E+02  0.93000000000E-01 0.  1.
         23    2    1    2    0    0  0.00000000000E+00  0.00000000000E+00 -0.17015265036E+02  0.95689890245E+02  0.94164939605E+02 0.  0.
        -11    1    3    3    0    0  0.31731309991E+01 -0.13925493008E+02  0.37082829243E+02  0.39738197503E+02  0.51100000000E-03 0. -1.
         11    1    3    3    0    0 -0.31731309991E+01  0.13925493008E+02 -0.54098094279E+02  0.55951692742E+02  0.51100000000E-03 0.  1.
<mgrwt>
<rscale>  0 0.94164940E+02</rscale>
<asrwt>0</asrwt>
<pdfrwt beam="1">  1        3 0.60518942E-02 0.94164940E+02</pdfrwt>
<pdfrwt beam="2">  1       -3 0.86696273E-02 0.94164940E+02</pdfrwt>
<totfact> 0.32043973E+04</totfact>
</mgrwt>
</event>
<event>
 5    1  0.7431090E-001  0.8949533E+02  0.7818608E-02  0.1304078E+00
          3   -1    0    0  501    0  0.00000000000E+00  0.00000000000E+00  0.18590734687E+03  0.18590737013E+03  0.93000000000E-01 0. -1.
         -3   -1    0    0    0  501 -0.00000000000E+00 -0.00000000000E+00 -0.10770481035E+02  0.10770882541E+02  0.93000000000E-01 0.  1.
         23    2    1    2    0    0  0.00000000000E+00  0.00000000000E+00  0.17513686584E+03  0.19667825267E+03  0.89495325575E+02 0.  0.
        -11    1    3    3    0    0  0.21954534624E+02 -0.38890586419E+02  0.81401711869E+02  0.92847821720E+02  0.51100000000E-03 0.  1.
         11    1    3    3    0    0 -0.21954534624E+02  0.38890586419E+02  0.93735153967E+02  0.10383043095E+03  0.51100000000E-03 0. -1.
<mgrwt>
<rscale>  0 0.89495326E+02</rscale>
<asrwt>0</asrwt>
<pdfrwt beam="1">  1        3 0.28601158E-01 0.89495326E+02</pdfrwt>
<pdfrwt beam="2">  1       -3 0.16570300E-02 0.89495326E+02</pdfrwt>
<totfact> 0.30144486E+04</totfact>
</mgrwt>
</event>
<event>
 5    1  0.7431090E-001  0.9186969E+02  0.7818608E-02  0.1298386E+00
          3   -1    0    0  501    0  0.00000000000E+00  0.00000000000E+00  0.18322309266E+02  0.18322545288E+02  0.93000000000E-01 0. -1.
         -3   -1    0    0    0  501 -0.00000000000E+00 -0.00000000000E+00 -0.11515970147E+03  0.11515973902E+03  0.93000000000E-01 0.  1.
         23    2    1    2    0    0  0.00000000000E+00  0.00000000000E+00 -0.96837392203E+02  0.13348228431E+03  0.91869688666E+02 0.  0.
        -11    1    3    3    0    0 -0.13292385998E+01 -0.43342646441E+02 -0.70437423770E+02  0.82715068418E+02  0.51100000000E-03 0.  1.
         11    1    3    3    0    0  0.13292385998E+01  0.43342646441E+02 -0.26399968433E+02  0.50767215891E+02  0.51100000000E-03 0. -1.
<mgrwt>
<rscale>  0 0.91869689E+02</rscale>
<asrwt>0</asrwt>
<pdfrwt beam="1">  1        3 0.28188379E-02 0.91869689E+02</pdfrwt>
<pdfrwt beam="2">  1       -3 0.17716898E-01 0.91869689E+02</pdfrwt>
<totfact> 0.31691093E+04</totfact>
</mgrwt>
</event>
<event>
 5    1  0.7431090E-001  0.9766307E+02  0.7818608E-02  0.1285288E+00
          3   -1    0    0  501    0  0.00000000000E+00  0.00000000000E+00  0.15365298825E+02  0.15365580269E+02  0.93000000000E-01 0. -1.
         -3   -1    0    0    0  501 -0.00000000000E+00 -0.00000000000E+00 -0.15518686323E+03  0.15518689109E+03  0.93000000000E-01 0.  1.
         23    2    1    2    0    0  0.00000000000E+00  0.00000000000E+00 -0.13982156440E+03  0.17055247136E+03  0.97663071916E+02 0.  0.
        -11    1    3    3    0    0  0.31324917530E+02  0.27913235548E+02 -0.11353840917E+03  0.12104284173E+03  0.51100000000E-03 0.  1.
         11    1    3    3    0    0 -0.31324917530E+02 -0.27913235548E+02 -0.26283155230E+02  0.49509629630E+02  0.51100000000E-03 0. -1.
<mgrwt>
<rscale>  0 0.97663072E+02</rscale>
<asrwt>0</asrwt>
<pdfrwt beam="1">  1        3 0.23639160E-02 0.97663072E+02</pdfrwt>
<pdfrwt beam="2">  1       -3 0.23874925E-01 0.97663072E+02</pdfrwt>
<totfact> 0.24967507E+04</totfact>
</mgrwt>
</event>
<event>
 5    1  0.7431090E-001  0.9087853E+02  0.7818608E-02  0.1300738E+00
         -3   -1    0    0    0  501 -0.00000000000E+00  0.00000000000E+00  0.18345495614E+03  0.18345497972E+03  0.93000000000E-01 0.  1.
          3   -1    0    0  501    0  0.00000000000E+00 -0.00000000000E+00 -0.11254464133E+02  0.11254848374E+02  0.93000000000E-01 0. -1.
         23    2    1    2    0    0  0.00000000000E+00  0.00000000000E+00  0.17220049201E+03  0.19470982809E+03  0.90878532702E+02 0.  0.
        -11    1    3    3    0    0 -0.18036386349E+02  0.41706272492E+02  0.85992509279E+02  0.97259632171E+02  0.51100000000E-03 0. -1.
         11    1    3    3    0    0  0.18036386349E+02 -0.41706272492E+02  0.86207982731E+02  0.97450195918E+02  0.51100000000E-03 0.  1.
<mgrwt>
<rscale>  0 0.90878533E+02</rscale>
<asrwt>0</asrwt>
<pdfrwt beam="2">  1        3 0.17314873E-02 0.90878533E+02</pdfrwt>
<pdfrwt beam="1">  1       -3 0.28223872E-01 0.90878533E+02</pdfrwt>
<totfact> 0.29028975E+04</totfact>
</mgrwt>
</event>
<event>
 5    1  0.7431090E-001  0.7011939E+02  0.7818608E-02  0.1359688E+00
         -3   -1    0    0    0  501 -0.00000000000E+00  0.00000000000E+00  0.16986614968E+03  0.16986617514E+03  0.93000000000E-01 0. -1.
          3   -1    0    0  501    0  0.00000000000E+00 -0.00000000000E+00 -0.72358555515E+01  0.72364531755E+01  0.93000000000E-01 0.  1.
         23    2    1    2    0    0  0.00000000000E+00  0.00000000000E+00  0.16263029413E+03  0.17710262831E+03  0.70119386672E+02 0.  0.
        -11    1    3    3    0    0 -0.18397781747E+02 -0.16155276520E+02  0.17934385066E+02  0.30349851739E+02  0.51100000000E-03 0.  1.
         11    1    3    3    0    0  0.18397781747E+02  0.16155276520E+02  0.14469590906E+03  0.14675277657E+03  0.51100000000E-03 0. -1.
<mgrwt>
<rscale>  0 0.70119387E+02</rscale>
<asrwt>0</asrwt>
<pdfrwt beam="2">  1        3 0.11132565E-02 0.70119387E+02</pdfrwt>
<pdfrwt beam="1">  1       -3 0.26133302E-01 0.70119387E+02</pdfrwt>
<totfact> 0.59726057E+04</totfact>
</mgrwt>
</event>
<event>
 5    1  0.7431090E-001  0.9099343E+02  0.7818608E-02  0.1300464E+00
         -3   -1    0    0    0  501 -0.00000000000E+00  0.00000000000E+00  0.56240937291E+02  0.56241014184E+02  0.93000000000E-01 0.  1.
          3   -1    0    0  501    0  0.00000000000E+00 -0.00000000000E+00 -0.36804899650E+02  0.36805017148E+02  0.93000000000E-01 0. -1.
         23    2    1    2    0    0  0.00000000000E+00  0.00000000000E+00  0.19436037641E+02  0.93046031332E+02  0.90993430463E+02 0.  0.
        -11    1    3    3    0    0  0.29053514963E+02 -0.25800978996E+02 -0.14483436223E+02  0.41467664197E+02  0.51100000000E-03 0.  1.
         11    1    3    3    0    0 -0.29053514963E+02  0.25800978996E+02  0.33919473864E+02  0.51578367135E+02  0.51100000000E-03 0. -1.
<mgrwt>
<rscale>  0 0.90993430E+02</rscale>
<asrwt>0</asrwt>
<pdfrwt beam="2">  1        3 0.56623072E-02 0.90993430E+02</pdfrwt>
<pdfrwt beam="1">  1       -3 0.86524668E-02 0.90993430E+02</pdfrwt>
<totfact> 0.35389979E+04</totfact>
</mgrwt>
</event>
<event>
 5    1  0.7431090E-001  0.9101737E+02  0.7818608E-02  0.1300407E+00
          3   -1    0    0  501    0  0.00000000000E+00  0.00000000000E+00  0.12157967877E+03  0.12157971434E+03  0.93000000000E-01 0. -1.
         -3   -1    0    0    0  501 -0.00000000000E+00 -0.00000000000E+00 -0.17034263074E+02  0.17034516943E+02  0.93000000000E-01 0.  1.
         23    2    1    2    0    0  0.00000000000E+00  0.00000000000E+00  0.10454541569E+03  0.13861423128E+03  0.91017367413E+02 0.  0.
        -11    1    3    3    0    0  0.12815183142E+02 -0.42329883321E+02  0.35941510442E+02  0.56989824654E+02  0.51100000000E-03 0.  1.
         11    1    3    3    0    0 -0.12815183142E+02  0.42329883321E+02  0.68603905253E+02  0.81624406627E+02  0.51100000000E-03 0. -1.
<mgrwt>
<rscale>  0 0.91017367E+02</rscale>
<asrwt>0</asrwt>
<pdfrwt beam="1">  1        3 0.18704589E-01 0.91017367E+02</pdfrwt>
<pdfrwt beam="2">  1       -3 0.26206780E-02 0.91017367E+02</pdfrwt>
<totfact> 0.32170849E+04</totfact>
</mgrwt>
</event>
<event>
 5    1  0.7431090E-001  0.9148372E+02  0.7818608E-02  0.1299298E+00
         -3   -1    0    0    0  501 -0.00000000000E+00  0.00000000000E+00  0.36501243685E+02  0.36501362160E+02  0.93000000000E-01 0.  1.
          3   -1    0    0  501    0  0.00000000000E+00 -0.00000000000E+00 -0.57321565526E+02  0.57321640969E+02  0.93000000000E-01 0. -1.
         23    2    1    2    0    0  0.00000000000E+00  0.00000000000E+00 -0.20820321841E+02  0.93823003130E+02  0.91483715024E+02 0.  0.
        -11    1    3    3    0    0 -0.35717021885E+02  0.23869427098E+02 -0.26523774551E+02  0.50487283736E+02  0.51100000000E-03 0.  1.
         11    1    3    3    0    0  0.35717021885E+02 -0.23869427098E+02  0.57034527096E+01  0.43335719394E+02  0.51100000000E-03 0. -1.
<mgrwt>
<rscale>  0 0.91483715E+02</rscale>
<asrwt>0</asrwt>
<pdfrwt beam="2">  1        3 0.88187173E-02 0.91483715E+02</pdfrwt>
<pdfrwt beam="1">  1       -3 0.56155909E-02 0.91483715E+02</pdfrwt>
<totfact> 0.34815636E+04</totfact>
</mgrwt>
</event>
<event>
 5    1  0.7431090E-001  0.9200958E+02  0.7818608E-02  0.1298057E+00
         -3   -1    0    0    0  501 -0.00000000000E+00  0.00000000000E+00  0.11213585282E+02  0.11213970924E+02  0.93000000000E-01 0.  1.
          3   -1    0    0  501    0  0.00000000000E+00 -0.00000000000E+00 -0.18873535783E+03  0.18873538074E+03  0.93000000000E-01 0. -1.
         23    2    1    2    0    0  0.00000000000E+00  0.00000000000E+00 -0.17752177254E+03  0.19994935166E+03  0.92009583758E+02 0.  0.
        -11    1    3    3    0    0 -0.30346259096E+02  0.56469122961E+01 -0.14629933883E+02  0.34158718145E+02  0.51100000000E-03 0.  1.
         11    1    3    3    0    0  0.30346259096E+02 -0.56469122961E+01 -0.16289183866E+03  0.16579063352E+03  0.51100000000E-03 0. -1.
<mgrwt>
<rscale>  0 0.92009584E+02</rscale>
<asrwt>0</asrwt>
<pdfrwt beam="2">  1        3 0.29036238E-01 0.92009584E+02</pdfrwt>
<pdfrwt beam="1">  1       -3 0.17251985E-02 0.92009584E+02</pdfrwt>
<totfact> 0.27809192E+04</totfact>
</mgrwt>
</event>
<event>
 5    1  0.7431090E-001  0.9371994E+02  0.7818608E-02  0.1294085E+00
         -3   -1    0    0    0  501 -0.00000000000E+00  0.00000000000E+00  0.11661536772E+03  0.11661540480E+03  0.93000000000E-01 0.  1.
          3   -1    0    0  501    0  0.00000000000E+00 -0.00000000000E+00 -0.18829755321E+02  0.18829984983E+02  0.93000000000E-01 0. -1.
         23    2    1    2    0    0  0.00000000000E+00  0.00000000000E+00  0.97785612396E+02  0.13544538978E+03  0.93719942499E+02 0.  0.
        -11    1    3    3    0    0  0.43881318823E+02  0.11005906929E+02  0.66543171897E+02  0.80465482384E+02  0.51100000000E-03 0.  1.
         11    1    3    3    0    0 -0.43881318823E+02 -0.11005906929E+02  0.31242440499E+02  0.54979907399E+02  0.51100000000E-03 0. -1.
<mgrwt>
<rscale>  0 0.93719942E+02</rscale>
<asrwt>0</asrwt>
<pdfrwt beam="2">  1        3 0.28969060E-02 0.93719942E+02</pdfrwt>
<pdfrwt beam="1">  1       -3 0.17940846E-01 0.93719942E+02</pdfrwt>
<totfact> 0.29899692E+04</totfact>
</mgrwt>
</event>
<event>
 5    1  0.7431090E-001  0.8170939E+02  0.7818608E-02  0.1324269E+00
          3   -1    0    0  501    0  0.00000000000E+00  0.00000000000E+00  0.82204019448E+01  0.82209279972E+01  0.93000000000E-01 0. -1.
         -3   -1    0    0    0  501 -0.00000000000E+00 -0.00000000000E+00 -0.20303731397E+03  0.20303733527E+03  0.93000000000E-01 0.  1.
         23    2    1    2    0    0  0.00000000000E+00  0.00000000000E+00 -0.19481691203E+03  0.21125826327E+03  0.81709391059E+02 0.  0.
        -11    1    3    3    0    0 -0.12421681170E+02  0.34705336275E+02 -0.14295610228E+03  0.14763199419E+03  0.51100000000E-03 0.  1.
         11    1    3    3    0    0  0.12421681170E+02 -0.34705336275E+02 -0.51860809750E+02  0.63626269082E+02  0.51100000000E-03 0. -1.
<mgrwt>
<rscale>  0 0.81709391E+02</rscale>
<asrwt>0</asrwt>
<pdfrwt beam="1">  1        3 0.12647195E-02 0.81709391E+02</pdfrwt>
<pdfrwt beam="2">  1       -3 0.31236548E-01 0.81709391E+02</pdfrwt>
<totfact> 0.37445329E+04</totfact>
</mgrwt>
</event>
<event>
 5    1  0.7431090E-001  0.8040594E+02  0.7818608E-02  0.1327903E+00
          3   -1    0    0  501    0  0.00000000000E+00  0.00000000000E+00  0.94954138960E+02  0.94954184503E+02  0.93000000000E-01 0. -1.
         -3   -1    0    0    0  501 -0.00000000000E+00 -0.00000000000E+00 -0.17021502651E+02  0.17021756710E+02  0.93000000000E-01 0.  1.
         23    2    1    2    0    0  0.00000000000E+00  0.00000000000E+00  0.77932636310E+02  0.11197594121E+03  0.80405942619E+02 0.  0.
        -11    1    3    3    0    0 -0.19673442247E+02  0.31676182555E+02  0.59895415442E+02  0.70554132851E+02  0.51100000000E-03 0.  1.
         11    1    3    3    0    0  0.19673442247E+02 -0.31676182555E+02  0.18037220868E+02  0.41421808362E+02  0.51100000000E-03 0. -1.
<mgrwt>
<rscale>  0 0.80405943E+02</rscale>
<asrwt>0</asrwt>
<pdfrwt beam="1">  1        3 0.14608352E-01 0.80405943E+02</pdfrwt>
<pdfrwt beam="2">  1       -3 0.26187158E-02 0.80405943E+02</pdfrwt>
<totfact> 0.47433703E+04</totfact>
</mgrwt>
</event>
<event>
 5    1  0.7431090E-001  0.8812415E+02  0.7818608E-02  0.1307459E+00
          3   -1    0    0  501    0  0.00000000000E+00  0.00000000000E+00  0.51048010082E+02  0.51048094796E+02  0.93000000000E-01 0.  1.
         -3   -1    0    0    0  501 -0.00000000000E+00 -0.00000000000E+00 -0.38031995924E+02  0.38032109631E+02  0.93000000000E-01 0. -1.
         23    2    1    2    0    0  0.00000000000E+00  0.00000000000E+00  0.13016014158E+02  0.89080204427E+02  0.88124152173E+02 0.  0.
        -11    1    3    3    0    0 -0.92633386182E+01  0.42004703230E+02  0.16164763461E+02  0.45951105686E+02  0.51100000000E-03 0.  1.
         11    1    3    3    0    0  0.92633386182E+01 -0.42004703230E+02 -0.31487493035E+01  0.43129098741E+02  0.51100000000E-03 0. -1.
<mgrwt>
<rscale>  0 0.88124152E+02</rscale>
<asrwt>0</asrwt>
<pdfrwt beam="1">  1        3 0.78535552E-02 0.88124152E+02</pdfrwt>
<pdfrwt beam="2">  1       -3 0.58510916E-02 0.88124152E+02</pdfrwt>
<totfact> 0.38940596E+04</totfact>
</mgrwt>
</event>
<event>
 5    1  0.7431090E-001  0.1009683E+03  0.7818608E-02  0.1278273E+00
         -3   -1    0    0    0  501 -0.00000000000E+00  0.00000000000E+00  0.39740014948E+02  0.39740123767E+02  0.93000000000E-01 0.  1.
          3   -1    0    0  501    0  0.00000000000E+00 -0.00000000000E+00 -0.64132829555E+02  0.64132896985E+02  0.93000000000E-01 0. -1.
         23    2    1    2    0    0  0.00000000000E+00  0.00000000000E+00 -0.24392814607E+02  0.10387302075E+03  0.10096828728E+03 0.  0.
        -11    1    3    3    0    0 -0.11349254207E+01  0.16849368755E+02  0.36748119479E+02  0.40442719600E+02  0.51100000000E-03 0.  1.
         11    1    3    3    0    0  0.11349254207E+01 -0.16849368755E+02 -0.61140934086E+02  0.63430301153E+02  0.51100000000E-03 0. -1.
<mgrwt>
<rscale>  0 0.10096829E+03</rscale>
<asrwt>0</asrwt>
<pdfrwt beam="2">  1        3 0.98666027E-02 0.10096829E+03</pdfrwt>
<pdfrwt beam="1">  1       -3 0.61138620E-02 0.10096829E+03</pdfrwt>
<totfact> 0.26001888E+04</totfact>
</mgrwt>
</event>
<event>
 5    1  0.7431090E-001  0.8954762E+02  0.7818608E-02  0.1303951E+00
          3   -1    0    0  501    0  0.00000000000E+00  0.00000000000E+00  0.22194842843E+02  0.22195037685E+02  0.93000000000E-01 0. -1.
         -3   -1    0    0    0  501 -0.00000000000E+00 -0.00000000000E+00 -0.90321909550E+02  0.90321957429E+02  0.93000000000E-01 0.  1.
         23    2    1    2    0    0  0.00000000000E+00  0.00000000000E+00 -0.68127066707E+02  0.11251699511E+03  0.89547624041E+02 0.  0.
        -11    1    3    3    0    0 -0.29041412651E+02 -0.69133690870E+00  0.87464563787E+01  0.30337799770E+02  0.51100000000E-03 0. -1.
         11    1    3    3    0    0  0.29041412651E+02  0.69133690870E+00 -0.76873523085E+02  0.82179195343E+02  0.51100000000E-03 0.  1.
<mgrwt>
<rscale>  0 0.89547624E+02</rscale>
<asrwt>0</asrwt>
<pdfrwt beam="1">  1        3 0.34146099E-02 0.89547624E+02</pdfrwt>
<pdfrwt beam="2">  1       -3 0.13895697E-01 0.89547624E+02</pdfrwt>
<totfact> 0.35459456E+04</totfact>
</mgrwt>
</event>
<event>
 5    1  0.7431090E-001  0.9134982E+02  0.7818608E-02  0.1299615E+00
          3   -1    0    0  501    0  0.00000000000E+00  0.00000000000E+00  0.28358343915E+02  0.28358496410E+02  0.93000000000E-01 0. -1.
         -3   -1    0    0    0  501 -0.00000000000E+00 -0.00000000000E+00 -0.73565181694E+02  0.73565240479E+02  0.93000000000E-01 0.  1.
         23    2    1    2    0    0  0.00000000000E+00  0.00000000000E+00 -0.45206837779E+02  0.10192373689E+03  0.91349821890E+02 0.  0.
        -11    1    3    3    0    0  0.11205528794E+02 -0.83101574292E+01 -0.71129967543E+02  0.72485135545E+02  0.51100000000E-03 0.  1.
         11    1    3    3    0    0 -0.11205528794E+02  0.83101574292E+01  0.25923129764E+02  0.29438601344E+02  0.51100000000E-03 0. -1.
<mgrwt>
<rscale>  0 0.91349822E+02</rscale>
<asrwt>0</asrwt>
<pdfrwt beam="1">  1        3 0.43628384E-02 0.91349822E+02</pdfrwt>
<pdfrwt beam="2">  1       -3 0.11317736E-01 0.91349822E+02</pdfrwt>
<totfact> 0.34352542E+04</totfact>
</mgrwt>
</event>
<event>
 5    1  0.7431090E-001  0.9355488E+02  0.7818608E-02  0.1294464E+00
          3   -1    0    0  501    0  0.00000000000E+00  0.00000000000E+00  0.10041461033E+03  0.10041465339E+03  0.93000000000E-01 0. -1.
         -3   -1    0    0    0  501 -0.00000000000E+00 -0.00000000000E+00 -0.21790794055E+02  0.21790992510E+02  0.93000000000E-01 0.  1.
         23    2    1    2    0    0  0.00000000000E+00  0.00000000000E+00  0.78623816272E+02  0.12220564590E+03  0.93554879112E+02 0.  0.
        -11    1    3    3    0    0  0.22906847290E+02 -0.11997702442E+02 -0.11605877987E+02  0.28343692787E+02  0.51100000000E-03 0.  1.
         11    1    3    3    0    0 -0.22906847290E+02  0.11997702442E+02  0.90229694259E+02  0.93861953117E+02  0.51100000000E-03 0. -1.
<mgrwt>
<rscale>  0 0.93554879E+02</rscale>
<asrwt>0</asrwt>
<pdfrwt beam="1">  1        3 0.15448421E-01 0.93554879E+02</pdfrwt>
<pdfrwt beam="2">  1       -3 0.33524483E-02 0.93554879E+02</pdfrwt>
<totfact> 0.30854763E+04</totfact>
</mgrwt>
</event>
<event>
 5    1  0.7431090E-001  0.8997824E+02  0.7818608E-02  0.1302904E+00
         -3   -1    0    0    0  501 -0.00000000000E+00  0.00000000000E+00  0.63873523824E+02  0.63873591528E+02  0.93000000000E-01 0.  1.
          3   -1    0    0  501    0  0.00000000000E+00 -0.00000000000E+00 -0.31687798867E+02  0.31687935339E+02  0.93000000000E-01 0. -1.
         23    2    1    2    0    0  0.00000000000E+00  0.00000000000E+00  0.32185724957E+02  0.95561526867E+02  0.89978244738E+02 0.  0.
        -11    1    3    3    0    0 -0.38146007292E+02  0.93751116711E+01 -0.71999998512E+01  0.39935580493E+02  0.51100000000E-03 0. -1.
         11    1    3    3    0    0  0.38146007292E+02 -0.93751116711E+01  0.39385724808E+02  0.55625946374E+02  0.51100000000E-03 0.  1.
<mgrwt>
<rscale>  0 0.89978245E+02</rscale>
<asrwt>0</asrwt>
<pdfrwt beam="2">  1        3 0.48750618E-02 0.89978245E+02</pdfrwt>
<pdfrwt beam="1">  1       -3 0.98267115E-02 0.89978245E+02</pdfrwt>
<totfact> 0.36286248E+04</totfact>
</mgrwt>
</event>
<event>
 5    1  0.7431090E-001  0.8714716E+02  0.7818608E-02  0.1309911E+00
         -3   -1    0    0    0  501 -0.00000000000E+00  0.00000000000E+00  0.40286654778E+02  0.40286762121E+02  0.93000000000E-01 0.  1.
          3   -1    0    0  501    0  0.00000000000E+00 -0.00000000000E+00 -0.47128467909E+02  0.47128559668E+02  0.93000000000E-01 0. -1.
         23    2    1    2    0    0  0.00000000000E+00  0.00000000000E+00 -0.68418131311E+01  0.87415321789E+02  0.87147163331E+02 0.  0.
        -11    1    3    3    0    0  0.31626258531E+02  0.27373007537E+02  0.88295866880E+01  0.42748840588E+02  0.51100000000E-03 0.  1.
         11    1    3    3    0    0 -0.31626258531E+02 -0.27373007537E+02 -0.15671399819E+02  0.44666481201E+02  0.51100000000E-03 0. -1.
<mgrwt>
<rscale>  0 0.87147163E+02</rscale>
<asrwt>0</asrwt>
<pdfrwt beam="2">  1        3 0.72505488E-02 0.87147163E+02</pdfrwt>
<pdfrwt beam="1">  1       -3 0.61979623E-02 0.87147163E+02</pdfrwt>
<totfact> 0.40282592E+04</totfact>
</mgrwt>
</event>
<event>
 5    1  0.7431090E-001  0.9123442E+02  0.7818608E-02  0.1299890E+00
         -3   -1    0    0    0  501 -0.00000000000E+00  0.00000000000E+00  0.13804355327E+03  0.13804358459E+03  0.93000000000E-01 0.  1.
          3   -1    0    0  501    0  0.00000000000E+00 -0.00000000000E+00 -0.15074269270E+02  0.15074556147E+02  0.93000000000E-01 0. -1.
         23    2    1    2    0    0  0.00000000000E+00  0.00000000000E+00  0.12296928400E+03  0.15311814074E+03  0.91234424518E+02 0.  0.
        -11    1    3    3    0    0  0.40909832147E+02  0.27083993480E+01  0.95049683581E+02  0.10351517832E+03  0.51100000000E-03 0.  1.
         11    1    3    3    0    0 -0.40909832147E+02 -0.27083993480E+01  0.27919600416E+02  0.49602962421E+02  0.51100000000E-03 0. -1.
<mgrwt>
<rscale>  0 0.91234425E+02</rscale>
<asrwt>0</asrwt>
<pdfrwt beam="2">  1        3 0.23191427E-02 0.91234425E+02</pdfrwt>
<pdfrwt beam="1">  1       -3 0.21237495E-01 0.91234425E+02</pdfrwt>
<totfact> 0.31065095E+04</totfact>
</mgrwt>
</event>
<event>
 5    1  0.7431090E-001  0.8838112E+02  0.7818608E-02  0.1306820E+00
         -3   -1    0    0    0  501 -0.00000000000E+00  0.00000000000E+00  0.38222203872E+02  0.38222317013E+02  0.93000000000E-01 0.  1.
          3   -1    0    0  501    0  0.00000000000E+00 -0.00000000000E+00 -0.51090634894E+02  0.51090719538E+02  0.93000000000E-01 0. -1.
         23    2    1    2    0    0  0.00000000000E+00  0.00000000000E+00 -0.12868431022E+02  0.89313036551E+02  0.88381117786E+02 0.  0.
        -11    1    3    3    0    0 -0.10395603692E+02  0.36570372020E+02  0.16327604033E+02  0.41376942124E+02  0.51100000000E-03 0.  1.
         11    1    3    3    0    0  0.10395603692E+02 -0.36570372020E+02 -0.29196035055E+02  0.47936094428E+02  0.51100000000E-03 0. -1.
<mgrwt>
<rscale>  0 0.88381118E+02</rscale>
<asrwt>0</asrwt>
<pdfrwt beam="2">  1        3 0.78601129E-02 0.88381118E+02</pdfrwt>
<pdfrwt beam="1">  1       -3 0.58803543E-02 0.88381118E+02</pdfrwt>
<totfact> 0.38614725E+04</totfact>
</mgrwt>
</event>
<event>
 5    1  0.7431090E-001  0.9134572E+02  0.7818608E-02  0.1299625E+00
          3   -1    0    0  501    0  0.00000000000E+00  0.00000000000E+00  0.34929885402E+02  0.34930009206E+02  0.93000000000E-01 0. -1.
         -3   -1    0    0    0  501 -0.00000000000E+00 -0.00000000000E+00 -0.59719653504E+02  0.59719725917E+02  0.93000000000E-01 0.  1.
         23    2    1    2    0    0  0.00000000000E+00  0.00000000000E+00 -0.24789768103E+02  0.94649735124E+02  0.91345715589E+02 0.  0.
        -11    1    3    3    0    0  0.91033013798E+01  0.28412541391E+02 -0.48227022063E+02  0.56709684020E+02  0.51100000000E-03 0.  1.
         11    1    3    3    0    0 -0.91033013798E+01 -0.28412541391E+02  0.23437253961E+02  0.37940051104E+02  0.51100000000E-03 0. -1.
<mgrwt>
<rscale>  0 0.91345716E+02</rscale>
<asrwt>0</asrwt>
<pdfrwt beam="1">  1        3 0.53738436E-02 0.91345716E+02</pdfrwt>
<pdfrwt beam="2">  1       -3 0.91876541E-02 0.91345716E+02</pdfrwt>
<totfact> 0.34897373E+04</totfact>
</mgrwt>
</event>
<event>
 5    1  0.7431090E-001  0.9110211E+02  0.7818608E-02  0.1300205E+00
         -3   -1    0    0    0  501 -0.00000000000E+00  0.00000000000E+00  0.15308041490E+03  0.15308044315E+03  0.93000000000E-01 0.  1.
          3   -1    0    0  501    0  0.00000000000E+00 -0.00000000000E+00 -0.13554114729E+02  0.13554433779E+02  0.93000000000E-01 0. -1.
         23    2    1    2    0    0  0.00000000000E+00  0.00000000000E+00  0.13952630017E+03  0.16663487693E+03  0.91102106287E+02 0.  0.
        -11    1    3    3    0    0 -0.27697041063E+02 -0.24116225928E+02  0.20473057882E+02  0.42045981211E+02  0.51100000000E-03 0.  1.
         11    1    3    3    0    0  0.27697041063E+02  0.24116225928E+02  0.11905324229E+03  0.12458889572E+03  0.51100000000E-03 0. -1.
<mgrwt>
<rscale>  0 0.91102106E+02</rscale>
<asrwt>0</asrwt>
<pdfrwt beam="2">  1        3 0.20852752E-02 0.91102106E+02</pdfrwt>
<pdfrwt beam="1">  1       -3 0.23550859E-01 0.91102106E+02</pdfrwt>
<totfact> 0.30387225E+04</totfact>
</mgrwt>
</event>
<event>
 5    1  0.7431090E-001  0.9320763E+02  0.7818608E-02  0.1295265E+00
         -3   -1    0    0    0  501 -0.00000000000E+00  0.00000000000E+00  0.53063372469E+02  0.53063453965E+02  0.93000000000E-01 0.  1.
          3   -1    0    0  501    0  0.00000000000E+00 -0.00000000000E+00 -0.40930433758E+02  0.40930539413E+02  0.93000000000E-01 0. -1.
         23    2    1    2    0    0  0.00000000000E+00  0.00000000000E+00  0.12132938711E+02  0.93993993378E+02  0.93207631605E+02 0.  0.
        -11    1    3    3    0    0  0.12143331363E+01 -0.44050238782E+02  0.21360750630E+02  0.48971214090E+02  0.51100000000E-03 0.  1.
         11    1    3    3    0    0 -0.12143331363E+01  0.44050238782E+02 -0.92278119197E+01  0.45022779288E+02  0.51100000000E-03 0. -1.
<mgrwt>
<rscale>  0 0.93207632E+02</rscale>
<asrwt>0</asrwt>
<pdfrwt beam="2">  1        3 0.62970042E-02 0.93207632E+02</pdfrwt>
<pdfrwt beam="1">  1       -3 0.81636101E-02 0.93207632E+02</pdfrwt>
<totfact> 0.33072568E+04</totfact>
</mgrwt>
</event>
<event>
 5    1  0.7431090E-001  0.9240217E+02  0.7818608E-02  0.1297137E+00
          3   -1    0    0  501    0  0.00000000000E+00  0.00000000000E+00  0.83001511939E+02  0.83001564040E+02  0.93000000000E-01 0. -1.
         -3   -1    0    0    0  501 -0.00000000000E+00 -0.00000000000E+00 -0.25716739317E+02  0.25716907476E+02  0.93000000000E-01 0.  1.
         23    2    1    2    0    0  0.00000000000E+00  0.00000000000E+00  0.57284772622E+02  0.10871847152E+03  0.92402169209E+02 0.  0.
        -11    1    3    3    0    0 -0.16428975147E+02 -0.12792222175E+02 -0.19883312912E+02  0.28790594040E+02  0.51100000000E-03 0.  1.
         11    1    3    3    0    0  0.16428975147E+02  0.12792222175E+02  0.77168085534E+02  0.79927877476E+02  0.51100000000E-03 0. -1.
<mgrwt>
<rscale>  0 0.92402169E+02</rscale>
<asrwt>0</asrwt>
<pdfrwt beam="1">  1        3 0.12769480E-01 0.92402169E+02</pdfrwt>
<pdfrwt beam="2">  1       -3 0.39564384E-02 0.92402169E+02</pdfrwt>
<totfact> 0.32820324E+04</totfact>
</mgrwt>
</event>
<event>
 5    1  0.7431090E-001  0.9081882E+02  0.7818608E-02  0.1300881E+00
         -3   -1    0    0    0  501 -0.00000000000E+00  0.00000000000E+00  0.18838943026E+02  0.18839172576E+02  0.93000000000E-01 0.  1.
          3   -1    0    0  501    0  0.00000000000E+00 -0.00000000000E+00 -0.10945398871E+03  0.10945402822E+03  0.93000000000E-01 0. -1.
         23    2    1    2    0    0  0.00000000000E+00  0.00000000000E+00 -0.90615045680E+02  0.12829320079E+03  0.90818824402E+02 0.  0.
        -11    1    3    3    0    0  0.36496350353E+01  0.39813238904E+02 -0.75723368396E+02  0.85629681474E+02  0.51100000000E-03 0. -1.
         11    1    3    3    0    0 -0.36496350353E+01 -0.39813238904E+02 -0.14891677284E+02  0.42663519317E+02  0.51100000000E-03 0.  1.
<mgrwt>
<rscale>  0 0.90818824E+02</rscale>
<asrwt>0</asrwt>
<pdfrwt beam="2">  1        3 0.16839096E-01 0.90818824E+02</pdfrwt>
<pdfrwt beam="1">  1       -3 0.28983197E-02 0.90818824E+02</pdfrwt>
<totfact> 0.33039126E+04</totfact>
</mgrwt>
</event>
<event>
 5    1  0.7431090E-001  0.8482925E+02  0.7818608E-02  0.1315880E+00
         -3   -1    0    0    0  501 -0.00000000000E+00  0.00000000000E+00  0.91405099712E+01  0.91409830726E+01  0.93000000000E-01 0.  1.
          3   -1    0    0  501    0  0.00000000000E+00 -0.00000000000E+00 -0.19681062793E+03  0.19681064990E+03  0.93000000000E-01 0. -1.
         23    2    1    2    0    0  0.00000000000E+00  0.00000000000E+00 -0.18767011796E+03  0.20595163298E+03  0.84829251740E+02 0.  0.
        -11    1    3    3    0    0  0.29568366983E+02  0.30394881158E+02 -0.96090937714E+02  0.10503144976E+03  0.51100000000E-03 0. -1.
         11    1    3    3    0    0 -0.29568366983E+02 -0.30394881158E+02 -0.91579180246E+02  0.10092018322E+03  0.51100000000E-03 0.  1.
<mgrwt>
<rscale>  0 0.84829252E+02</rscale>
<asrwt>0</asrwt>
<pdfrwt beam="2">  1        3 0.30278593E-01 0.84829252E+02</pdfrwt>
<pdfrwt beam="1">  1       -3 0.14062705E-02 0.84829252E+02</pdfrwt>
<totfact> 0.34214622E+04</totfact>
</mgrwt>
</event>
<event>
 5    1  0.7431090E-001  0.9111968E+02  0.7818608E-02  0.1300163E+00
          3   -1    0    0  501    0  0.00000000000E+00  0.00000000000E+00  0.16162306260E+02  0.16162573824E+02  0.93000000000E-01 0. -1.
         -3   -1    0    0    0  501 -0.00000000000E+00 -0.00000000000E+00 -0.12842703599E+03  0.12842706966E+03  0.93000000000E-01 0.  1.
         23    2    1    2    0    0  0.00000000000E+00  0.00000000000E+00 -0.11226472973E+03  0.14458964349E+03  0.91119676593E+02 0.  0.
        -11    1    3    3    0    0 -0.19396913249E+02 -0.12425291221E+02  0.62410043713E+01  0.23865838375E+02  0.51100000000E-03 0. -1.
         11    1    3    3    0    0  0.19396913249E+02  0.12425291221E+02 -0.11850573410E+03  0.12072380511E+03  0.51100000000E-03 0.  1.
<mgrwt>
<rscale>  0 0.91119677E+02</rscale>
<asrwt>0</asrwt>
<pdfrwt beam="1">  1        3 0.24865319E-02 0.91119677E+02</pdfrwt>
<pdfrwt beam="2">  1       -3 0.19758028E-01 0.91119677E+02</pdfrwt>
<totfact> 0.31696459E+04</totfact>
</mgrwt>
</event>
<event>
 5    1  0.7431090E-001  0.9249667E+02  0.7818608E-02  0.1296916E+00
          3   -1    0    0  501    0  0.00000000000E+00  0.00000000000E+00  0.16947113207E+03  0.16947115759E+03  0.93000000000E-01 0. -1.
         -3   -1    0    0    0  501 -0.00000000000E+00 -0.00000000000E+00 -0.12620880510E+02  0.12621223152E+02  0.93000000000E-01 0.  1.
         23    2    1    2    0    0  0.00000000000E+00  0.00000000000E+00  0.15685025156E+03  0.18209238074E+03  0.92496668637E+02 0.  0.
        -11    1    3    3    0    0 -0.23412859129E+02 -0.37511216018E+02  0.51746269264E+02  0.68065627763E+02  0.51100000000E-03 0.  1.
         11    1    3    3    0    0  0.23412859129E+02  0.37511216018E+02  0.10510398230E+03  0.11402675298E+03  0.51100000000E-03 0. -1.
<mgrwt>
<rscale>  0 0.92496669E+02</rscale>
<asrwt>0</asrwt>
<pdfrwt beam="1">  1        3 0.26072511E-01 0.92496669E+02</pdfrwt>
<pdfrwt beam="2">  1       -3 0.19417022E-02 0.92496669E+02</pdfrwt>
<totfact> 0.28327283E+04</totfact>
</mgrwt>
</event>
<event>
 5    1  0.7431090E-001  0.9388043E+02  0.7818608E-02  0.1293718E+00
          3   -1    0    0  501    0  0.00000000000E+00  0.00000000000E+00  0.37386088216E+02  0.37386203888E+02  0.93000000000E-01 0. -1.
         -3   -1    0    0    0  501 -0.00000000000E+00 -0.00000000000E+00 -0.58935684746E+02  0.58935758122E+02  0.93000000000E-01 0.  1.
         23    2    1    2    0    0  0.00000000000E+00  0.00000000000E+00 -0.21549596529E+02  0.96321962010E+02  0.93880430628E+02 0.  0.
        -11    1    3    3    0    0 -0.59856121895E+01 -0.28203743745E+02 -0.48780078252E+02  0.56663698689E+02  0.51100000000E-03 0.  1.
         11    1    3    3    0    0  0.59856121895E+01  0.28203743745E+02  0.27230481723E+02  0.39658263321E+02  0.51100000000E-03 0. -1.
<mgrwt>
<rscale>  0 0.93880431E+02</rscale>
<asrwt>0</asrwt>
<pdfrwt beam="1">  1        3 0.57517204E-02 0.93880431E+02</pdfrwt>
<pdfrwt beam="2">  1       -3 0.90670430E-02 0.93880431E+02</pdfrwt>
<totfact> 0.32266471E+04</totfact>
</mgrwt>
</event>
<event>
 5    1  0.7431090E-001  0.9117776E+02  0.7818608E-02  0.1300024E+00
          3   -1    0    0  501    0  0.00000000000E+00  0.00000000000E+00  0.36371586522E+02  0.36371705420E+02  0.93000000000E-01 0. -1.
         -3   -1    0    0    0  501 -0.00000000000E+00 -0.00000000000E+00 -0.57141771225E+02  0.57141846905E+02  0.93000000000E-01 0.  1.
         23    2    1    2    0    0  0.00000000000E+00  0.00000000000E+00 -0.20770184703E+02  0.93513552325E+02  0.91177759875E+02 0.  0.
        -11    1    3    3    0    0  0.28762111453E+02  0.31622402522E+02 -0.26637516214E+02  0.50366582839E+02  0.51100000000E-03 0.  1.
         11    1    3    3    0    0 -0.28762111453E+02 -0.31622402522E+02  0.58673315117E+01  0.43146969486E+02  0.51100000000E-03 0. -1.
<mgrwt>
<rscale>  0 0.91177760E+02</rscale>
<asrwt>0</asrwt>
<pdfrwt beam="1">  1        3 0.55956436E-02 0.91177760E+02</pdfrwt>
<pdfrwt beam="2">  1       -3 0.87910568E-02 0.91177760E+02</pdfrwt>
<totfact> 0.35159664E+04</totfact>
</mgrwt>
</event>
<event>
 5    1  0.7431090E-001  0.9110873E+02  0.7818608E-02  0.1300189E+00
         -3   -1    0    0    0  501 -0.00000000000E+00  0.00000000000E+00  0.92184884216E+02  0.92184931127E+02  0.93000000000E-01 0.  1.
          3   -1    0    0  501    0  0.00000000000E+00 -0.00000000000E+00 -0.22511137938E+02  0.22511330042E+02  0.93000000000E-01 0. -1.
         23    2    1    2    0    0  0.00000000000E+00  0.00000000000E+00  0.69673746278E+02  0.11469626117E+03  0.91108733970E+02 0.  0.
        -11    1    3    3    0    0  0.26163393651E+02  0.68344290036E+01 -0.11314398859E+02  0.29312935863E+02  0.51100000000E-03 0. -1.
         11    1    3    3    0    0 -0.26163393651E+02 -0.68344290036E+01  0.80988145138E+02  0.85383325305E+02  0.51100000000E-03 0.  1.
<mgrwt>
<rscale>  0 0.91108734E+02</rscale>
<asrwt>0</asrwt>
<pdfrwt beam="2">  1        3 0.34632704E-02 0.91108734E+02</pdfrwt>
<pdfrwt beam="1">  1       -3 0.14182308E-01 0.91108734E+02</pdfrwt>
<totfact> 0.33683191E+04</totfact>
</mgrwt>
</event>
<event>
 5    1  0.7431090E-001  0.9194703E+02  0.7818608E-02  0.1298204E+00
          3   -1    0    0  501    0  0.00000000000E+00  0.00000000000E+00  0.27778404990E+02  0.27778560668E+02  0.93000000000E-01 0. -1.
         -3   -1    0    0    0  501 -0.00000000000E+00 -0.00000000000E+00 -0.76086185253E+02  0.76086242090E+02  0.93000000000E-01 0.  1.
         23    2    1    2    0    0  0.00000000000E+00  0.00000000000E+00 -0.48307780263E+02  0.10386480276E+03  0.91947026152E+02 0.  0.
        -11    1    3    3    0    0  0.70082956952E+01  0.34295404263E+02  0.95130719555E+01  0.36273812874E+02  0.51100000000E-03 0. -1.
         11    1    3    3    0    0 -0.70082956952E+01 -0.34295404263E+02 -0.57820852218E+02  0.67590989885E+02  0.51100000000E-03 0.  1.
<mgrwt>
<rscale>  0 0.91947026E+02</rscale>
<asrwt>0</asrwt>
<pdfrwt beam="1">  1        3 0.42736171E-02 0.91947026E+02</pdfrwt>
<pdfrwt beam="2">  1       -3 0.11705583E-01 0.91947026E+02</pdfrwt>
<totfact> 0.33608813E+04</totfact>
</mgrwt>
</event>
<event>
 5    1  0.7431090E-001  0.9003141E+02  0.7818608E-02  0.1302776E+00
         -3   -1    0    0    0  501 -0.00000000000E+00  0.00000000000E+00  0.44445601168E+02  0.44445698467E+02  0.93000000000E-01 0.  1.
          3   -1    0    0  501    0  0.00000000000E+00 -0.00000000000E+00 -0.45592926832E+02  0.45593021682E+02  0.93000000000E-01 0. -1.
         23    2    1    2    0    0  0.00000000000E+00  0.00000000000E+00 -0.11473256639E+01  0.90038720149E+02  0.90031409908E+02 0.  0.
        -11    1    3    3    0    0 -0.41827545472E+02 -0.14803936062E+02  0.70239013656E+01  0.44922547499E+02  0.51100000000E-03 0.  1.
         11    1    3    3    0    0  0.41827545472E+02  0.14803936062E+02 -0.81712270295E+01  0.45116172650E+02  0.51100000000E-03 0. -1.
<mgrwt>
<rscale>  0 0.90031410E+02</rscale>
<asrwt>0</asrwt>
<pdfrwt beam="2">  1        3 0.70143112E-02 0.90031410E+02</pdfrwt>
<pdfrwt beam="1">  1       -3 0.68377996E-02 0.90031410E+02</pdfrwt>
<totfact> 0.36665555E+04</totfact>
</mgrwt>
</event>
<event>
 5    1  0.7431090E-001  0.8756392E+02  0.7818608E-02  0.1308861E+00
          3   -1    0    0  501    0  0.00000000000E+00  0.00000000000E+00  0.15438399035E+03  0.15438401836E+03  0.93000000000E-01 0. -1.
         -3   -1    0    0    0  501 -0.00000000000E+00 -0.00000000000E+00 -0.12415980481E+02  0.12416328777E+02  0.93000000000E-01 0.  1.
         23    2    1    2    0    0  0.00000000000E+00  0.00000000000E+00  0.14196800987E+03  0.16680034714E+03  0.87563919393E+02 0.  0.
        -11    1    3    3    0    0 -0.15381062295E+02  0.35590951671E+02  0.32245332229E+02  0.50428705803E+02  0.51100000000E-03 0.  1.
         11    1    3    3    0    0  0.15381062295E+02 -0.35590951671E+02  0.10972267764E+03  0.11637164134E+03  0.51100000000E-03 0. -1.
<mgrwt>
<rscale>  0 0.87563919E+02</rscale>
<asrwt>0</asrwt>
<pdfrwt beam="1">  1        3 0.23751413E-01 0.87563919E+02</pdfrwt>
<pdfrwt beam="2">  1       -3 0.19101797E-02 0.87563919E+02</pdfrwt>
<totfact> 0.33797840E+04</totfact>
</mgrwt>
</event>
<event>
 5    1  0.7431090E-001  0.9337485E+02  0.7818608E-02  0.1294879E+00
         -3   -1    0    0    0  501 -0.00000000000E+00  0.00000000000E+00  0.26939887083E+02  0.26940047607E+02  0.93000000000E-01 0.  1.
          3   -1    0    0  501    0  0.00000000000E+00 -0.00000000000E+00 -0.80909916329E+02  0.80909969777E+02  0.93000000000E-01 0. -1.
         23    2    1    2    0    0  0.00000000000E+00  0.00000000000E+00 -0.53970029246E+02  0.10785001738E+03  0.93374847753E+02 0.  0.
        -11    1    3    3    0    0 -0.29492100001E+02  0.31580573721E+02 -0.65636824575E+01  0.43705817996E+02  0.51100000000E-03 0.  1.
         11    1    3    3    0    0  0.29492100001E+02 -0.31580573721E+02 -0.47406346788E+02  0.64144199388E+02  0.51100000000E-03 0. -1.
<mgrwt>
<rscale>  0 0.93374848E+02</rscale>
<asrwt>0</asrwt>
<pdfrwt beam="2">  1        3 0.12447696E-01 0.93374848E+02</pdfrwt>
<pdfrwt beam="1">  1       -3 0.41446145E-02 0.93374848E+02</pdfrwt>
<totfact> 0.31953847E+04</totfact>
</mgrwt>
</event>
<event>
 5    1  0.7431090E-001  0.8904845E+02  0.7818608E-02  0.1305173E+00
          3   -1    0    0  501    0  0.00000000000E+00  0.00000000000E+00  0.26443526446E+02  0.26443689982E+02  0.93000000000E-01 0. -1.
         -3   -1    0    0    0  501 -0.00000000000E+00 -0.00000000000E+00 -0.74967126227E+02  0.74967183912E+02  0.93000000000E-01 0.  1.
         23    2    1    2    0    0  0.00000000000E+00  0.00000000000E+00 -0.48523599781E+02  0.10141087389E+03  0.89048445289E+02 0.  0.
        -11    1    3    3    0    0 -0.78032402356E+01  0.43830025576E+02 -0.23502361517E+02  0.50342056944E+02  0.51100000000E-03 0. -1.
         11    1    3    3    0    0  0.78032402356E+01 -0.43830025576E+02 -0.25021238264E+02  0.51068816951E+02  0.51100000000E-03 0.  1.
<mgrwt>
<rscale>  0 0.89048445E+02</rscale>
<asrwt>0</asrwt>
<pdfrwt beam="1">  1        3 0.40682519E-02 0.89048445E+02</pdfrwt>
<pdfrwt beam="2">  1       -3 0.11533421E-01 0.89048445E+02</pdfrwt>
<totfact> 0.36856438E+04</totfact>
</mgrwt>
</event>
<event>
 5    1  0.7431090E-001  0.8743283E+02  0.7818608E-02  0.1309190E+00
         -3   -1    0    0    0  501 -0.00000000000E+00  0.00000000000E+00  0.43216654044E+02  0.43216754109E+02  0.93000000000E-01 0.  1.
          3   -1    0    0  501    0  0.00000000000E+00 -0.00000000000E+00 -0.44221754257E+02  0.44221852048E+02  0.93000000000E-01 0. -1.
         23    2    1    2    0    0  0.00000000000E+00  0.00000000000E+00 -0.10051002130E+01  0.87438606157E+02  0.87432829190E+02 0.  0.
        -11    1    3    3    0    0 -0.43700015965E+02  0.71321218437E+00  0.45919832892E+00  0.43708247852E+02  0.51100000000E-03 0.  1.
         11    1    3    3    0    0  0.43700015965E+02 -0.71321218437E+00 -0.14642985419E+01  0.43730358305E+02  0.51100000000E-03 0. -1.
<mgrwt>
<rscale>  0 0.87432829E+02</rscale>
<asrwt>0</asrwt>
<pdfrwt beam="2">  1        3 0.68033621E-02 0.87432829E+02</pdfrwt>
<pdfrwt beam="1">  1       -3 0.66487312E-02 0.87432829E+02</pdfrwt>
<totfact> 0.39924996E+04</totfact>
</mgrwt>
</event>
<event>
 5    1  0.7431090E-001  0.8382697E+02  0.7818608E-02  0.1318529E+00
          3   -1    0    0  501    0  0.00000000000E+00  0.00000000000E+00  0.12463358363E+03  0.12463361833E+03  0.93000000000E-01 0. -1.
         -3   -1    0    0    0  501 -0.00000000000E+00 -0.00000000000E+00 -0.14095050860E+02  0.14095357667E+02  0.93000000000E-01 0.  1.
         23    2    1    2    0    0  0.00000000000E+00  0.00000000000E+00  0.11053853277E+03  0.13872897600E+03  0.83826973903E+02 0.  0.
        -11    1    3    3    0    0 -0.31626779573E+02 -0.17868219951E+02  0.20664941474E+02  0.41791940332E+02  0.51100000000E-03 0.  1.
         11    1    3    3    0    0  0.31626779573E+02  0.17868219951E+02  0.89873591299E+02  0.96937035666E+02  0.51100000000E-03 0. -1.
<mgrwt>
<rscale>  0 0.83826974E+02</rscale>
<asrwt>0</asrwt>
<pdfrwt beam="1">  1        3 0.19174424E-01 0.83826974E+02</pdfrwt>
<pdfrwt beam="2">  1       -3 0.21684956E-02 0.83826974E+02</pdfrwt>
<totfact> 0.40144287E+04</totfact>
</mgrwt>
</event>
<event>
 5    1  0.7431090E-001  0.8337700E+02  0.7818608E-02  0.1319732E+00
         -3   -1    0    0    0  501 -0.00000000000E+00  0.00000000000E+00  0.10371147374E+03  0.10371151543E+03  0.93000000000E-01 0.  1.
          3   -1    0    0  501    0  0.00000000000E+00 -0.00000000000E+00 -0.16757189631E+02  0.16757447697E+02  0.93000000000E-01 0. -1.
         23    2    1    2    0    0  0.00000000000E+00  0.00000000000E+00  0.86954284106E+02  0.12046896313E+03  0.83376996550E+02 0.  0.
        -11    1    3    3    0    0 -0.34081237116E+02 -0.15176615617E+02  0.16598258985E+02  0.40833351400E+02  0.51100000000E-03 0. -1.
         11    1    3    3    0    0  0.34081237116E+02  0.15176615617E+02  0.70356025121E+02  0.79635611732E+02  0.51100000000E-03 0.  1.
<mgrwt>
<rscale>  0 0.83376997E+02</rscale>
<asrwt>0</asrwt>
<pdfrwt beam="2">  1        3 0.25780523E-02 0.83376997E+02</pdfrwt>
<pdfrwt beam="1">  1       -3 0.15955634E-01 0.83376997E+02</pdfrwt>
<totfact> 0.42278827E+04</totfact>
</mgrwt>
</event>
<event>
 5    1  0.7431090E-001  0.9097047E+02  0.7818608E-02  0.1300518E+00
          3   -1    0    0  501    0  0.00000000000E+00  0.00000000000E+00  0.65614419056E+02  0.65614484964E+02  0.93000000000E-01 0. -1.
         -3   -1    0    0    0  501 -0.00000000000E+00 -0.00000000000E+00 -0.31531128119E+02  0.31531265269E+02  0.93000000000E-01 0.  1.
         23    2    1    2    0    0  0.00000000000E+00  0.00000000000E+00  0.34083290937E+02  0.97145750233E+02  0.90970468105E+02 0.  0.
        -11    1    3    3    0    0 -0.32659698346E+02 -0.28065319858E+02  0.13984115265E+01  0.43084494077E+02  0.51100000000E-03 0.  1.
         11    1    3    3    0    0  0.32659698346E+02  0.28065319858E+02  0.32684879411E+02  0.54061256156E+02  0.51100000000E-03 0. -1.
<mgrwt>
<rscale>  0 0.90970468E+02</rscale>
<asrwt>0</asrwt>
<pdfrwt beam="1">  1        3 0.10094541E-01 0.90970468E+02</pdfrwt>
<pdfrwt beam="2">  1       -3 0.48509585E-02 0.90970468E+02</pdfrwt>
<totfact> 0.35100039E+04</totfact>
</mgrwt>
</event>
<event>
 5    1  0.7431090E-001  0.9248772E+02  0.7818608E-02  0.1296937E+00
          3   -1    0    0  501    0  0.00000000000E+00  0.00000000000E+00  0.58393994066E+02  0.58394068123E+02  0.93000000000E-01 0. -1.
         -3   -1    0    0    0  501 -0.00000000000E+00 -0.00000000000E+00 -0.36621669824E+02  0.36621787910E+02  0.93000000000E-01 0.  1.
         23    2    1    2    0    0  0.00000000000E+00  0.00000000000E+00  0.21772324242E+02  0.95015856033E+02  0.92487722400E+02 0.  0.
        -11    1    3    3    0    0  0.53160559432E+01 -0.45812874570E+02  0.14357090149E+02  0.48303270748E+02  0.51100000000E-03 0.  1.
         11    1    3    3    0    0 -0.53160559432E+01  0.45812874570E+02  0.74152340928E+01  0.46712585285E+02  0.51100000000E-03 0. -1.
<mgrwt>
<rscale>  0 0.92487722E+02</rscale>
<asrwt>0</asrwt>
<pdfrwt beam="1">  1        3 0.89837061E-02 0.92487722E+02</pdfrwt>
<pdfrwt beam="2">  1       -3 0.56341179E-02 0.92487722E+02</pdfrwt>
<totfact> 0.33706209E+04</totfact>
</mgrwt>
</event>
<event>
 5    1  0.7431090E-001  0.8857390E+02  0.7818608E-02  0.1306342E+00
         -3   -1    0    0    0  501 -0.00000000000E+00  0.00000000000E+00  0.62318322390E+02  0.62318391783E+02  0.93000000000E-01 0.  1.
          3   -1    0    0  501    0  0.00000000000E+00 -0.00000000000E+00 -0.31472677475E+02  0.31472814880E+02  0.93000000000E-01 0. -1.
         23    2    1    2    0    0  0.00000000000E+00  0.00000000000E+00  0.30845644914E+02  0.93791206664E+02  0.88573904945E+02 0.  0.
        -11    1    3    3    0    0 -0.22746887438E+02 -0.35923184256E+02  0.28539472844E+02  0.51209350374E+02  0.51100000000E-03 0. -1.
         11    1    3    3    0    0  0.22746887438E+02  0.35923184256E+02  0.23061720701E+01  0.42581856290E+02  0.51100000000E-03 0.  1.
<mgrwt>
<rscale>  0 0.88573905E+02</rscale>
<asrwt>0</asrwt>
<pdfrwt beam="2">  1        3 0.48419663E-02 0.88573905E+02</pdfrwt>
<pdfrwt beam="1">  1       -3 0.95874500E-02 0.88573905E+02</pdfrwt>
<totfact> 0.38013781E+04</totfact>
</mgrwt>
</event>
<event>
 5    1  0.7431090E-001  0.8974555E+02  0.7818608E-02  0.1303469E+00
         -3   -1    0    0    0  501 -0.00000000000E+00  0.00000000000E+00  0.18599557902E+02  0.18599790406E+02  0.93000000000E-01 0.  1.
          3   -1    0    0  501    0  0.00000000000E+00 -0.00000000000E+00 -0.10825788614E+03  0.10825792609E+03  0.93000000000E-01 0. -1.
         23    2    1    2    0    0  0.00000000000E+00  0.00000000000E+00 -0.89658328242E+02  0.12685771650E+03  0.89745553715E+02 0.  0.
        -11    1    3    3    0    0 -0.33477724736E+02 -0.22649300198E+02 -0.72377241267E+02  0.82898817281E+02  0.51100000000E-03 0. -1.
         11    1    3    3    0    0  0.33477724736E+02  0.22649300198E+02 -0.17281086976E+02  0.43958899216E+02  0.51100000000E-03 0.  1.
<mgrwt>
<rscale>  0 0.89745554E+02</rscale>
<asrwt>0</asrwt>
<pdfrwt beam="2">  1        3 0.16655080E-01 0.89745554E+02</pdfrwt>
<pdfrwt beam="1">  1       -3 0.28614915E-02 0.89745554E+02</pdfrwt>
<totfact> 0.34218715E+04</totfact>
</mgrwt>
</event>
<event>
 5    1  0.7431090E-001  0.7481101E+02  0.7818608E-02  0.1344457E+00
          3   -1    0    0  501    0  0.00000000000E+00  0.00000000000E+00  0.13036915580E+02  0.13037247287E+02  0.93000000000E-01 0. -1.
         -3   -1    0    0    0  501 -0.00000000000E+00 -0.00000000000E+00 -0.10732211236E+03  0.10732215266E+03  0.93000000000E-01 0.  1.
         23    2    1    2    0    0  0.00000000000E+00  0.00000000000E+00 -0.94285196782E+02  0.12035939994E+03  0.74811007362E+02 0.  0.
        -11    1    3    3    0    0 -0.31706548610E+02  0.17071495229E+02 -0.30859793319E+02  0.47424339933E+02  0.51100000000E-03 0.  1.
         11    1    3    3    0    0  0.31706548610E+02 -0.17071495229E+02 -0.63425403463E+02  0.72935060011E+02  0.51100000000E-03 0. -1.
<mgrwt>
<rscale>  0 0.74811007E+02</rscale>
<asrwt>0</asrwt>
<pdfrwt beam="1">  1        3 0.20057080E-02 0.74811007E+02</pdfrwt>
<pdfrwt beam="2">  1       -3 0.16511122E-01 0.74811007E+02</pdfrwt>
<totfact> 0.56471557E+04</totfact>
</mgrwt>
</event>
<event>
 5    1  0.7431090E-001  0.9491491E+02  0.7818608E-02  0.1291368E+00
          3   -1    0    0  501    0  0.00000000000E+00  0.00000000000E+00  0.13079535081E+02  0.13079865708E+02  0.93000000000E-01 0. -1.
         -3   -1    0    0    0  501 -0.00000000000E+00 -0.00000000000E+00 -0.17219093050E+03  0.17219095561E+03  0.93000000000E-01 0.  1.
         23    2    1    2    0    0  0.00000000000E+00  0.00000000000E+00 -0.15911139542E+03  0.18527082132E+03  0.94914914956E+02 0.  0.
        -11    1    3    3    0    0 -0.38329423558E+02  0.30859962153E+01 -0.13384503820E+03  0.13925933482E+03  0.51100000000E-03 0.  1.
         11    1    3    3    0    0  0.38329423558E+02 -0.30859962153E+01 -0.25266357218E+02  0.46011486504E+02  0.51100000000E-03 0. -1.
<mgrwt>
<rscale>  0 0.94914915E+02</rscale>
<asrwt>0</asrwt>
<pdfrwt beam="1">  1        3 0.20122637E-02 0.94914915E+02</pdfrwt>
<pdfrwt beam="2">  1       -3 0.26490938E-01 0.94914915E+02</pdfrwt>
<totfact> 0.26256615E+04</totfact>
</mgrwt>
</event>
<event>
 5    1  0.7431090E-001  0.9246872E+02  0.7818608E-02  0.1296981E+00
         -3   -1    0    0    0  501 -0.00000000000E+00  0.00000000000E+00  0.70723028581E+01  0.70729143015E+01  0.93000000000E-01 0. -1.
          3   -1    0    0  501    0  0.00000000000E+00 -0.00000000000E+00 -0.30223805411E+03  0.30223806842E+03  0.93000000000E-01 0.  1.
         23    2    1    2    0    0  0.00000000000E+00  0.00000000000E+00 -0.29516575125E+03  0.30931098272E+03  0.92468715352E+02 0.  0.
        -11    1    3    3    0    0  0.23701043966E+02  0.34884486304E+02 -0.84208037042E+02  0.94178874343E+02  0.51100000000E-03 0. -1.
         11    1    3    3    0    0 -0.23701043966E+02 -0.34884486304E+02 -0.21095771421E+03  0.21513210837E+03  0.51100000000E-03 0.  1.
<mgrwt>
<rscale>  0 0.92468715E+02</rscale>
<asrwt>0</asrwt>
<pdfrwt beam="2">  1        3 0.46498200E-01 0.92468715E+02</pdfrwt>
<pdfrwt beam="1">  1       -3 0.10880950E-02 0.92468715E+02</pdfrwt>
<totfact> 0.22796538E+04</totfact>
</mgrwt>
</event>
<event>
 5    1  0.7431090E-001  0.9114368E+02  0.7818608E-02  0.1300106E+00
         -3   -1    0    0    0  501 -0.00000000000E+00  0.00000000000E+00  0.42011917850E+02  0.42012020785E+02  0.93000000000E-01 0.  1.
          3   -1    0    0  501    0  0.00000000000E+00 -0.00000000000E+00 -0.49433207603E+02  0.49433295085E+02  0.93000000000E-01 0. -1.
         23    2    1    2    0    0  0.00000000000E+00  0.00000000000E+00 -0.74212897531E+01  0.91445315870E+02  0.91143679172E+02 0.  0.
        -11    1    3    3    0    0  0.30638303901E+02 -0.19060128590E+02 -0.31637965113E+02  0.47989113396E+02  0.51100000000E-03 0. -1.
         11    1    3    3    0    0 -0.30638303901E+02  0.19060128590E+02  0.24216675359E+02  0.43456202474E+02  0.51100000000E-03 0.  1.
<mgrwt>
<rscale>  0 0.91143679E+02</rscale>
<asrwt>0</asrwt>
<pdfrwt beam="2">  1        3 0.76051235E-02 0.91143679E+02</pdfrwt>
<pdfrwt beam="1">  1       -3 0.64633866E-02 0.91143679E+02</pdfrwt>
<totfact> 0.35353113E+04</totfact>
</mgrwt>
</event>
<event>
 5    1  0.7431090E-001  0.8438291E+02  0.7818608E-02  0.1317054E+00
         -3   -1    0    0    0  501 -0.00000000000E+00  0.00000000000E+00  0.17745656952E+03  0.17745659389E+03  0.93000000000E-01 0.  1.
          3   -1    0    0  501    0  0.00000000000E+00 -0.00000000000E+00 -0.10031052171E+02  0.10031483273E+02  0.93000000000E-01 0. -1.
         23    2    1    2    0    0  0.00000000000E+00  0.00000000000E+00  0.16742551735E+03  0.18748807716E+03  0.84382908329E+02 0.  0.
        -11    1    3    3    0    0  0.40905859729E+02 -0.69028395296E-01  0.10667715133E+03  0.11425107764E+03  0.51100000000E-03 0.  1.
         11    1    3    3    0    0 -0.40905859729E+02  0.69028395296E-01  0.60748366016E+02  0.73236999522E+02  0.51100000000E-03 0. -1.
<mgrwt>
<rscale>  0 0.84382908E+02</rscale>
<asrwt>0</asrwt>
<pdfrwt beam="2">  1        3 0.15432738E-02 0.84382908E+02</pdfrwt>
<pdfrwt beam="1">  1       -3 0.27301046E-01 0.84382908E+02</pdfrwt>
<totfact> 0.35895654E+04</totfact>
</mgrwt>
</event>
<event>
 5    1  0.7431090E-001  0.8732505E+02  0.7818608E-02  0.1309462E+00
          3   -1    0    0  501    0  0.00000000000E+00  0.00000000000E+00  0.94271300347E+02  0.94271346220E+02  0.93000000000E-01 0. -1.
         -3   -1    0    0    0  501 -0.00000000000E+00 -0.00000000000E+00 -0.20222498348E+02  0.20222712193E+02  0.93000000000E-01 0.  1.
         23    2    1    2    0    0  0.00000000000E+00  0.00000000000E+00  0.74048801999E+02  0.11449405841E+03  0.87325049867E+02 0.  0.
        -11    1    3    3    0    0 -0.86138314806E+01  0.19975779534E+02  0.86660246014E+02  0.89348912138E+02  0.51100000000E-03 0. -1.
         11    1    3    3    0    0  0.86138314806E+01 -0.19975779534E+02 -0.12611444015E+02  0.25145146274E+02  0.51100000000E-03 0.  1.
<mgrwt>
<rscale>  0 0.87325050E+02</rscale>
<asrwt>0</asrwt>
<pdfrwt beam="1">  1        3 0.14503297E-01 0.87325050E+02</pdfrwt>
<pdfrwt beam="2">  1       -3 0.31111735E-02 0.87325050E+02</pdfrwt>
<totfact> 0.37794009E+04</totfact>
</mgrwt>
</event>
<event>
 5    1  0.7431090E-001  0.8632489E+02  0.7818608E-02  0.1312004E+00
         -3   -1    0    0    0  501 -0.00000000000E+00  0.00000000000E+00  0.38922078668E+02  0.38922189775E+02  0.93000000000E-01 0.  1.
          3   -1    0    0  501    0  0.00000000000E+00 -0.00000000000E+00 -0.47864549941E+02  0.47864640290E+02  0.93000000000E-01 0. -1.
         23    2    1    2    0    0  0.00000000000E+00  0.00000000000E+00 -0.89424712728E+01  0.86786830065E+02  0.86324886795E+02 0.  0.
        -11    1    3    3    0    0 -0.27278370994E+02  0.33111259033E+02  0.30090312140E+00  0.42901696258E+02  0.51100000000E-03 0. -1.
         11    1    3    3    0    0  0.27278370994E+02 -0.33111259033E+02 -0.92433743942E+01  0.43885133807E+02  0.51100000000E-03 0.  1.
<mgrwt>
<rscale>  0 0.86324887E+02</rscale>
<asrwt>0</asrwt>
<pdfrwt beam="2">  1        3 0.73637924E-02 0.86324887E+02</pdfrwt>
<pdfrwt beam="1">  1       -3 0.59880276E-02 0.86324887E+02</pdfrwt>
<totfact> 0.41386846E+04</totfact>
</mgrwt>
</event>
<event>
 5    1  0.7431090E-001  0.9225943E+02  0.7818608E-02  0.1297471E+00
          3   -1    0    0  501    0  0.00000000000E+00  0.00000000000E+00  0.29428811033E+03  0.29428812502E+03  0.93000000000E-01 0. -1.
         -3   -1    0    0    0  501 -0.00000000000E+00 -0.00000000000E+00 -0.72305272868E+01  0.72311253512E+01  0.93000000000E-01 0.  1.
         23    2    1    2    0    0  0.00000000000E+00  0.00000000000E+00  0.28705758304E+03  0.30151925037E+03  0.92259429678E+02 0.  0.
        -11    1    3    3    0    0 -0.42646810413E+02 -0.46922916332E+01  0.88144920888E+02  0.98032112686E+02  0.51100000000E-03 0.  1.
         11    1    3    3    0    0  0.42646810413E+02  0.46922916332E+01  0.19891266215E+03  0.20348713769E+03  0.51100000000E-03 0. -1.
<mgrwt>
<rscale>  0 0.92259430E+02</rscale>
<asrwt>0</asrwt>
<pdfrwt beam="1">  1        3 0.45275137E-01 0.92259430E+02</pdfrwt>
<pdfrwt beam="2">  1       -3 0.11124361E-02 0.92259430E+02</pdfrwt>
<totfact> 0.23223563E+04</totfact>
</mgrwt>
</event>
<event>
 5    1  0.7431090E-001  0.9079364E+02  0.7818608E-02  0.1300941E+00
          3   -1    0    0  501    0  0.00000000000E+00  0.00000000000E+00  0.55398449369E+02  0.55398527431E+02  0.93000000000E-01 0. -1.
         -3   -1    0    0    0  501 -0.00000000000E+00 -0.00000000000E+00 -0.37200721881E+02  0.37200838129E+02  0.93000000000E-01 0.  1.
         23    2    1    2    0    0  0.00000000000E+00  0.00000000000E+00  0.18197727488E+02  0.92599365560E+02  0.90793640836E+02 0.  0.
        -11    1    3    3    0    0 -0.33624815253E+02  0.27344703238E+02 -0.46794566135E+01  0.43591952359E+02  0.51100000000E-03 0.  1.
         11    1    3    3    0    0  0.33624815253E+02 -0.27344703238E+02  0.22877184102E+02  0.49007413201E+02  0.51100000000E-03 0. -1.
<mgrwt>
<rscale>  0 0.90793641E+02</rscale>
<asrwt>0</asrwt>
<pdfrwt beam="1">  1        3 0.85228533E-02 0.90793641E+02</pdfrwt>
<pdfrwt beam="2">  1       -3 0.57232029E-02 0.90793641E+02</pdfrwt>
<totfact> 0.35635856E+04</totfact>
</mgrwt>
</event>
<event>
 4    1  0.7431090E-001  0.4103080E+02  0.7818608E-02  0.1500760E+00
         -3   -1    0    0    0  501 -0.00000000000E+00  0.00000000000E+00  0.98322272247E+01  0.98326670440E+01  0.93000000000E-01 0. -1.
          3   -1    0    0  501    0  0.00000000000E+00 -0.00000000000E+00 -0.42804880923E+02  0.42804981951E+02  0.93000000000E-01 0.  1.
        -11    1    1    2    0    0 -0.14082380502E+02  0.41953392769E+01  0.18802731555E+01  0.14813836088E+02  0.51100000000E-03 0. -1.
         11    1    1    2    0    0  0.14082380502E+02 -0.41953392769E+01 -0.34852926854E+02  0.37823812907E+02  0.51100000000E-03 0.  1.
<mgrwt>
<rscale>  0 0.41030796E+02</rscale>
<asrwt>0</asrwt>
<pdfrwt beam="2">  1        3 0.65854078E-02 0.41030796E+02</pdfrwt>
<pdfrwt beam="1">  1       -3 0.15126920E-02 0.41030796E+02</pdfrwt>
<totfact> 0.30694665E+05</totfact>
</mgrwt>
</event>
<event>
 5    1  0.7431090E-001  0.8984528E+02  0.7818608E-02  0.1303227E+00
          3   -1    0    0  501    0  0.00000000000E+00  0.00000000000E+00  0.20967720364E+02  0.20967926609E+02  0.93000000000E-01 0. -1.
         -3   -1    0    0    0  501 -0.00000000000E+00 -0.00000000000E+00 -0.96244549597E+02  0.96244594529E+02  0.93000000000E-01 0.  1.
         23    2    1    2    0    0  0.00000000000E+00  0.00000000000E+00 -0.75276829233E+02  0.11721252114E+03  0.89845278631E+02 0.  0.
        -11    1    3    3    0    0 -0.34300143330E+02 -0.27685553265E+02 -0.48940671640E+02  0.65864854307E+02  0.51100000000E-03 0. -1.
         11    1    3    3    0    0  0.34300143330E+02  0.27685553265E+02 -0.26336157592E+02  0.51347666831E+02  0.51100000000E-03 0.  1.
<mgrwt>
<rscale>  0 0.89845279E+02</rscale>
<asrwt>0</asrwt>
<pdfrwt beam="1">  1        3 0.32258225E-02 0.89845279E+02</pdfrwt>
<pdfrwt beam="2">  1       -3 0.14806873E-01 0.89845279E+02</pdfrwt>
<totfact> 0.34800209E+04</totfact>
</mgrwt>
</event>
<event>
 5    1  0.7431090E-001  0.9152827E+02  0.7818608E-02  0.1299192E+00
          3   -1    0    0  501    0  0.00000000000E+00  0.00000000000E+00  0.54643175171E+02  0.54643254312E+02  0.93000000000E-01 0. -1.
         -3   -1    0    0    0  501 -0.00000000000E+00 -0.00000000000E+00 -0.38327698047E+02  0.38327810876E+02  0.93000000000E-01 0.  1.
         23    2    1    2    0    0  0.00000000000E+00  0.00000000000E+00  0.16315477125E+02  0.92971065188E+02  0.91528269777E+02 0.  0.
        -11    1    3    3    0    0  0.44375016666E+01  0.30877999018E+02 -0.25854621726E+02  0.40516709013E+02  0.51100000000E-03 0.  1.
         11    1    3    3    0    0 -0.44375016666E+01 -0.30877999018E+02  0.42170098851E+02  0.52454356175E+02  0.51100000000E-03 0. -1.
<mgrwt>
<rscale>  0 0.91528270E+02</rscale>
<asrwt>0</asrwt>
<pdfrwt beam="1">  1        3 0.84066571E-02 0.91528270E+02</pdfrwt>
<pdfrwt beam="2">  1       -3 0.58965837E-02 0.91528270E+02</pdfrwt>
<totfact> 0.34833653E+04</totfact>
</mgrwt>
</event>
<event>
 5    1  0.7431090E-001  0.5663391E+02  0.7818608E-02  0.1412526E+00
         -3   -1    0    0    0  501 -0.00000000000E+00  0.00000000000E+00  0.11945929621E+02  0.11946291622E+02  0.93000000000E-01 0.  1.
          3   -1    0    0  501    0  0.00000000000E+00 -0.00000000000E+00 -0.67121870082E+02  0.67121934510E+02  0.93000000000E-01 0. -1.
         23    2    1    2    0    0  0.00000000000E+00  0.00000000000E+00 -0.55175940461E+02  0.79068226132E+02  0.56633911907E+02 0.  0.
        -11    1    3    3    0    0 -0.20603514979E+02  0.51670982134E+00 -0.47724512710E+00  0.20615517982E+02  0.51100000000E-03 0. -1.
         11    1    3    3    0    0  0.20603514979E+02 -0.51670982134E+00 -0.54698695334E+02  0.58452708149E+02  0.51100000000E-03 0.  1.
<mgrwt>
<rscale>  0 0.56633912E+02</rscale>
<asrwt>0</asrwt>
<pdfrwt beam="2">  1        3 0.10326474E-01 0.56633912E+02</pdfrwt>
<pdfrwt beam="1">  1       -3 0.18378682E-02 0.56633912E+02</pdfrwt>
<totfact> 0.12788829E+05</totfact>
</mgrwt>
</event>
<event>
 5    1  0.7431090E-001  0.9417535E+02  0.7818608E-02  0.1293044E+00
         -3   -1    0    0    0  501 -0.00000000000E+00  0.00000000000E+00  0.34357141891E+02  0.34357267759E+02  0.93000000000E-01 0. -1.
          3   -1    0    0  501    0  0.00000000000E+00 -0.00000000000E+00 -0.64535046999E+02  0.64535114009E+02  0.93000000000E-01 0.  1.
         23    2    1    2    0    0  0.00000000000E+00  0.00000000000E+00 -0.30177905108E+02  0.98892381768E+02  0.94175353544E+02 0.  0.
        -11    1    3    3    0    0  0.42645698398E+02  0.21854783993E+01  0.57498627512E+01  0.43087037837E+02  0.51100000000E-03 0. -1.
         11    1    3    3    0    0 -0.42645698398E+02 -0.21854783993E+01 -0.35927767860E+02  0.55805343931E+02  0.51100000000E-03 0.  1.
<mgrwt>
<rscale>  0 0.94175354E+02</rscale>
<asrwt>0</asrwt>
<pdfrwt beam="2">  1        3 0.99284836E-02 0.94175354E+02</pdfrwt>
<pdfrwt beam="1">  1       -3 0.52857290E-02 0.94175354E+02</pdfrwt>
<totfact> 0.31813690E+04</totfact>
</mgrwt>
</event>
<event>
 5    1  0.7431090E-001  0.9048901E+02  0.7818608E-02  0.1301672E+00
          3   -1    0    0  501    0  0.00000000000E+00  0.00000000000E+00  0.19321113125E+03  0.19321115364E+03  0.93000000000E-01 0. -1.
         -3   -1    0    0    0  501 -0.00000000000E+00 -0.00000000000E+00 -0.10594738178E+02  0.10595146344E+02  0.93000000000E-01 0.  1.
         23    2    1    2    0    0  0.00000000000E+00  0.00000000000E+00  0.18261639308E+03  0.20380629998E+03  0.90489009783E+02 0.  0.
        -11    1    3    3    0    0 -0.38738720449E+02 -0.13694905912E+02  0.13397242634E+03  0.14013154510E+03  0.51100000000E-03 0. -1.
         11    1    3    3    0    0  0.38738720449E+02  0.13694905912E+02  0.48643966731E+02  0.63674754884E+02  0.51100000000E-03 0.  1.
<mgrwt>
<rscale>  0 0.90489010E+02</rscale>
<asrwt>0</asrwt>
<pdfrwt beam="1">  1        3 0.29724823E-01 0.90489010E+02</pdfrwt>
<pdfrwt beam="2">  1       -3 0.16299928E-02 0.90489010E+02</pdfrwt>
<totfact> 0.28886152E+04</totfact>
</mgrwt>
</event>
<event>
 5    1  0.7431090E-001  0.9045400E+02  0.7818608E-02  0.1301756E+00
          3   -1    0    0  501    0  0.00000000000E+00  0.00000000000E+00  0.27620706431E+02  0.27620862998E+02  0.93000000000E-01 0. -1.
         -3   -1    0    0    0  501 -0.00000000000E+00 -0.00000000000E+00 -0.74055701006E+02  0.74055759401E+02  0.93000000000E-01 0.  1.
         23    2    1    2    0    0  0.00000000000E+00  0.00000000000E+00 -0.46434994574E+02  0.10167662240E+03  0.90454003899E+02 0.  0.
        -11    1    3    3    0    0  0.43506361586E+02 -0.10646303070E+02 -0.16167648725E+02  0.47618695205E+02  0.51100000000E-03 0. -1.
         11    1    3    3    0    0 -0.43506361586E+02  0.10646303070E+02 -0.30267345849E+02  0.54057927194E+02  0.51100000000E-03 0.  1.
<mgrwt>
<rscale>  0 0.90454004E+02</rscale>
<asrwt>0</asrwt>
<pdfrwt beam="1">  1        3 0.42493560E-02 0.90454004E+02</pdfrwt>
<pdfrwt beam="2">  1       -3 0.11393201E-01 0.90454004E+02</pdfrwt>
<totfact> 0.35304133E+04</totfact>
</mgrwt>
</event>
<event>
 5    1  0.7431090E-001  0.9078649E+02  0.7818608E-02  0.1300958E+00
         -3   -1    0    0    0  501 -0.00000000000E+00  0.00000000000E+00  0.30006013889E+02  0.30006158010E+02  0.93000000000E-01 0.  1.
          3   -1    0    0  501    0  0.00000000000E+00 -0.00000000000E+00 -0.68670784095E+02  0.68670847069E+02  0.93000000000E-01 0. -1.
         23    2    1    2    0    0  0.00000000000E+00  0.00000000000E+00 -0.38664770206E+02  0.98677005080E+02  0.90786490605E+02 0.  0.
        -11    1    3    3    0    0  0.34104075798E+01  0.23141448509E+02  0.22951029004E+02  0.32770524127E+02  0.51100000000E-03 0.  1.
         11    1    3    3    0    0 -0.34104075798E+01 -0.23141448509E+02 -0.61615799210E+02  0.65906480952E+02  0.51100000000E-03 0. -1.
<mgrwt>
<rscale>  0 0.90786491E+02</rscale>
<asrwt>0</asrwt>
<pdfrwt beam="2">  1        3 0.10564752E-01 0.90786491E+02</pdfrwt>
<pdfrwt beam="1">  1       -3 0.46163258E-02 0.90786491E+02</pdfrwt>
<totfact> 0.35177549E+04</totfact>
</mgrwt>
</event>
<event>
 5    1  0.7431090E-001  0.9355731E+02  0.7818608E-02  0.1294459E+00
          3   -1    0    0  501    0  0.00000000000E+00  0.00000000000E+00  0.21888024431E+02  0.21888222004E+02  0.93000000000E-01 0. -1.
         -3   -1    0    0    0  501 -0.00000000000E+00 -0.00000000000E+00 -0.99973759542E+02  0.99973802799E+02  0.93000000000E-01 0.  1.
         23    2    1    2    0    0  0.00000000000E+00  0.00000000000E+00 -0.78085735112E+02  0.12186202480E+03  0.93557314311E+02 0.  0.
        -11    1    3    3    0    0  0.36982072739E+02 -0.89616389506E+01 -0.36038050864E+01  0.38222664587E+02  0.51100000000E-03 0. -1.
         11    1    3    3    0    0 -0.36982072739E+02  0.89616389506E+01 -0.74481930025E+02  0.83639360216E+02  0.51100000000E-03 0.  1.
<mgrwt>
<rscale>  0 0.93557314E+02</rscale>
<asrwt>0</asrwt>
<pdfrwt beam="1">  1        3 0.33674070E-02 0.93557314E+02</pdfrwt>
<pdfrwt beam="2">  1       -3 0.15380597E-01 0.93557314E+02</pdfrwt>
<totfact> 0.30875743E+04</totfact>
</mgrwt>
</event>
<event>
 5    1  0.7431090E-001  0.8992427E+02  0.7818608E-02  0.1303035E+00
          3   -1    0    0  501    0  0.00000000000E+00  0.00000000000E+00  0.77459927777E+02  0.77459983606E+02  0.93000000000E-01 0. -1.
         -3   -1    0    0    0  501 -0.00000000000E+00 -0.00000000000E+00 -0.26098426402E+02  0.26098592101E+02  0.93000000000E-01 0.  1.
         23    2    1    2    0    0  0.00000000000E+00  0.00000000000E+00  0.51361501375E+02  0.10355857571E+03  0.89924272468E+02 0.  0.
        -11    1    3    3    0    0 -0.26920337374E+02  0.28971719864E+02  0.50313804126E+02  0.63996437418E+02  0.51100000000E-03 0. -1.
         11    1    3    3    0    0  0.26920337374E+02 -0.28971719864E+02  0.10476972490E+01  0.39562138289E+02  0.51100000000E-03 0.  1.
<mgrwt>
<rscale>  0 0.89924272E+02</rscale>
<asrwt>0</asrwt>
<pdfrwt beam="1">  1        3 0.11916929E-01 0.89924272E+02</pdfrwt>
<pdfrwt beam="2">  1       -3 0.40151596E-02 0.89924272E+02</pdfrwt>
<totfact> 0.35725884E+04</totfact>
</mgrwt>
</event>
<event>
 5    1  0.7431090E-001  0.9261562E+02  0.7818608E-02  0.1296638E+00
          3   -1    0    0  501    0  0.00000000000E+00  0.00000000000E+00  0.98739608384E+02  0.98739652181E+02  0.93000000000E-01 0. -1.
         -3   -1    0    0    0  501 -0.00000000000E+00 -0.00000000000E+00 -0.21717716819E+02  0.21717915941E+02  0.93000000000E-01 0.  1.
         23    2    1    2    0    0  0.00000000000E+00  0.00000000000E+00  0.77021891565E+02  0.12045756812E+03  0.92615624695E+02 0.  0.
        -11    1    3    3    0    0  0.37595549875E+02  0.22939351979E+02  0.19899183500E+02  0.48328218918E+02  0.51100000000E-03 0.  1.
         11    1    3    3    0    0 -0.37595549875E+02 -0.22939351979E+02  0.57122708066E+02  0.72129349204E+02  0.51100000000E-03 0. -1.
<mgrwt>
<rscale>  0 0.92615625E+02</rscale>
<asrwt>0</asrwt>
<pdfrwt beam="1">  1        3 0.15190727E-01 0.92615625E+02</pdfrwt>
<pdfrwt beam="2">  1       -3 0.33412059E-02 0.92615625E+02</pdfrwt>
<totfact> 0.31828914E+04</totfact>
</mgrwt>
</event>
<event>
 5    1  0.7431090E-001  0.8485385E+02  0.7818608E-02  0.1315815E+00
          3   -1    0    0  501    0  0.00000000000E+00  0.00000000000E+00  0.65491339677E+01  0.65497942508E+01  0.93000000000E-01 0. -1.
         -3   -1    0    0    0  501 -0.00000000000E+00 -0.00000000000E+00 -0.27483768001E+03  0.27483769575E+03  0.93000000000E-01 0.  1.
         23    2    1    2    0    0  0.00000000000E+00  0.00000000000E+00 -0.26828854605E+03  0.28138749000E+03  0.84853848402E+02 0.  0.
        -11    1    3    3    0    0  0.39120162746E+02 -0.15970714842E+02 -0.12147633308E+03  0.12861551370E+03  0.51100000000E-03 0.  1.
         11    1    3    3    0    0 -0.39120162746E+02  0.15970714842E+02 -0.14681221297E+03  0.15277197630E+03  0.51100000000E-03 0. -1.
<mgrwt>
<rscale>  0 0.84853848E+02</rscale>
<asrwt>0</asrwt>
<pdfrwt beam="1">  1        3 0.10076113E-02 0.84853848E+02</pdfrwt>
<pdfrwt beam="2">  1       -3 0.42282763E-01 0.84853848E+02</pdfrwt>
<totfact> 0.30005831E+04</totfact>
</mgrwt>
</event>
<event>
 5    1  0.7431090E-001  0.9125546E+02  0.7818608E-02  0.1299840E+00
         -3   -1    0    0    0  501 -0.00000000000E+00  0.00000000000E+00  0.38385507128E+03  0.38385508255E+03  0.93000000000E-01 0.  1.
          3   -1    0    0  501    0  0.00000000000E+00 -0.00000000000E+00 -0.54232252789E+01  0.54240226240E+01  0.93000000000E-01 0. -1.
         23    2    1    2    0    0  0.00000000000E+00  0.00000000000E+00  0.37843184600E+03  0.38927910517E+03  0.91255463694E+02 0.  0.
        -11    1    3    3    0    0 -0.33048240782E+02 -0.31033176440E+02  0.21123582661E+03  0.21604587176E+03  0.51100000000E-03 0. -1.
         11    1    3    3    0    0  0.33048240782E+02  0.31033176440E+02  0.16719601939E+03  0.17323323341E+03  0.51100000000E-03 0.  1.
<mgrwt>
<rscale>  0 0.91255464E+02</rscale>
<asrwt>0</asrwt>
<pdfrwt beam="2">  1        3 0.83440489E-03 0.91255464E+02</pdfrwt>
<pdfrwt beam="1">  1       -3 0.59054665E-01 0.91255464E+02</pdfrwt>
<totfact> 0.20880332E+04</totfact>
</mgrwt>
</event>
<event>
 5    1  0.7431090E-001  0.8977932E+02  0.7818608E-02  0.1303387E+00
          3   -1    0    0  501    0  0.00000000000E+00  0.00000000000E+00  0.43240538332E+02  0.43240638342E+02  0.93000000000E-01 0. -1.
         -3   -1    0    0    0  501 -0.00000000000E+00 -0.00000000000E+00 -0.46601475066E+02  0.46601567864E+02  0.93000000000E-01 0.  1.
         23    2    1    2    0    0  0.00000000000E+00  0.00000000000E+00 -0.33609367345E+01  0.89842206206E+02  0.89779319000E+02 0.  0.
        -11    1    3    3    0    0  0.16662434236E+02 -0.35493179883E+02  0.20190709594E+02  0.44102916990E+02  0.51100000000E-03 0. -1.
         11    1    3    3    0    0 -0.16662434236E+02  0.35493179883E+02 -0.23551646328E+02  0.45739289215E+02  0.51100000000E-03 0.  1.
<mgrwt>
<rscale>  0 0.89779319E+02</rscale>
<asrwt>0</asrwt>
<pdfrwt beam="1">  1        3 0.66524053E-02 0.89779319E+02</pdfrwt>
<pdfrwt beam="2">  1       -3 0.71694726E-02 0.89779319E+02</pdfrwt>
<totfact> 0.36961896E+04</totfact>
</mgrwt>
</event>
<event>
 5    1  0.7431090E-001  0.8669995E+02  0.7818608E-02  0.1311046E+00
          3   -1    0    0  501    0  0.00000000000E+00  0.00000000000E+00  0.74609036266E+01  0.74614832256E+01  0.93000000000E-01 0. -1.
         -3   -1    0    0    0  501 -0.00000000000E+00 -0.00000000000E+00 -0.25186531586E+03  0.25186533303E+03  0.93000000000E-01 0.  1.
         23    2    1    2    0    0  0.00000000000E+00  0.00000000000E+00 -0.24440441223E+03  0.25932681625E+03  0.86699947578E+02 0.  0.
        -11    1    3    3    0    0  0.36586852771E+02 -0.23250118406E+02 -0.12150440676E+03  0.12900576213E+03  0.51100000000E-03 0.  1.
         11    1    3    3    0    0 -0.36586852771E+02  0.23250118406E+02 -0.12290000548E+03  0.13032105412E+03  0.51100000000E-03 0. -1.
<mgrwt>
<rscale>  0 0.86699948E+02</rscale>
<asrwt>0</asrwt>
<pdfrwt beam="1">  1        3 0.11478774E-02 0.86699948E+02</pdfrwt>
<pdfrwt beam="2">  1       -3 0.38748549E-01 0.86699948E+02</pdfrwt>
<totfact> 0.29397774E+04</totfact>
</mgrwt>
</event>
<event>
 5    1  0.7431090E-001  0.9019441E+02  0.7818608E-02  0.1302382E+00
         -3   -1    0    0    0  501 -0.00000000000E+00  0.00000000000E+00  0.14297592039E+02  0.14297894499E+02  0.93000000000E-01 0.  1.
          3   -1    0    0  501    0  0.00000000000E+00 -0.00000000000E+00 -0.14224294711E+03  0.14224297751E+03  0.93000000000E-01 0. -1.
         23    2    1    2    0    0  0.00000000000E+00  0.00000000000E+00 -0.12794535507E+03  0.15654087201E+03  0.90194405180E+02 0.  0.
        -11    1    3    3    0    0 -0.30312775316E+02 -0.15287925946E+02 -0.12452345244E+02  0.36161387272E+02  0.51100000000E-03 0.  1.
         11    1    3    3    0    0  0.30312775316E+02  0.15287925946E+02 -0.11549300982E+03  0.12037948474E+03  0.51100000000E-03 0. -1.
<mgrwt>
<rscale>  0 0.90194405E+02</rscale>
<asrwt>0</asrwt>
<pdfrwt beam="2">  1        3 0.21883555E-01 0.90194405E+02</pdfrwt>
<pdfrwt beam="1">  1       -3 0.21996552E-02 0.90194405E+02</pdfrwt>
<totfact> 0.31829729E+04</totfact>
</mgrwt>
</event>
<event>
 5    1  0.7431090E-001  0.9276271E+02  0.7818608E-02  0.1296296E+00
         -3   -1    0    0    0  501 -0.00000000000E+00  0.00000000000E+00  0.43407318077E+02  0.43407417703E+02  0.93000000000E-01 0.  1.
          3   -1    0    0  501    0  0.00000000000E+00 -0.00000000000E+00 -0.49558958776E+02  0.49559046036E+02  0.93000000000E-01 0. -1.
         23    2    1    2    0    0  0.00000000000E+00  0.00000000000E+00 -0.61516406998E+01  0.92966463739E+02  0.92762711780E+02 0.  0.
        -11    1    3    3    0    0  0.77259589381E+01 -0.31048360850E+02 -0.36728423625E+02  0.48710042653E+02  0.51100000000E-03 0. -1.
         11    1    3    3    0    0 -0.77259589381E+01  0.31048360850E+02  0.30576782925E+02  0.44256421086E+02  0.51100000000E-03 0.  1.
<mgrwt>
<rscale>  0 0.92762712E+02</rscale>
<asrwt>0</asrwt>
<pdfrwt beam="2">  1        3 0.76244696E-02 0.92762712E+02</pdfrwt>
<pdfrwt beam="1">  1       -3 0.66780633E-02 0.92762712E+02</pdfrwt>
<totfact> 0.33581810E+04</totfact>
</mgrwt>
</event>
<event>
 5    1  0.7431090E-001  0.9063132E+02  0.7818608E-02  0.1301330E+00
          3   -1    0    0  501    0  0.00000000000E+00  0.00000000000E+00  0.92543626995E+02  0.92543673724E+02  0.93000000000E-01 0. -1.
         -3   -1    0    0    0  501 -0.00000000000E+00 -0.00000000000E+00 -0.22189483952E+02  0.22189678841E+02  0.93000000000E-01 0.  1.
         23    2    1    2    0    0  0.00000000000E+00  0.00000000000E+00  0.70354143043E+02  0.11473335257E+03  0.90631323215E+02 0.  0.
        -11    1    3    3    0    0  0.19056497153E+01  0.19439591022E+02 -0.16586817889E+02  0.25625216641E+02  0.51100000000E-03 0.  1.
         11    1    3    3    0    0 -0.19056497153E+01 -0.19439591022E+02  0.86940960932E+02  0.89108135925E+02  0.51100000000E-03 0. -1.
<mgrwt>
<rscale>  0 0.90631323E+02</rscale>
<asrwt>0</asrwt>
<pdfrwt beam="1">  1        3 0.14237500E-01 0.90631323E+02</pdfrwt>
<pdfrwt beam="2">  1       -3 0.34137853E-02 0.90631323E+02</pdfrwt>
<totfact> 0.34162292E+04</totfact>
</mgrwt>
</event>
<event>
 5    1  0.7431090E-001  0.9039961E+02  0.7818608E-02  0.1301887E+00
         -3   -1    0    0    0  501 -0.00000000000E+00  0.00000000000E+00  0.60573070236E+01  0.60580209126E+01  0.93000000000E-01 0.  1.
          3   -1    0    0  501    0  0.00000000000E+00 -0.00000000000E+00 -0.33726171577E+03  0.33726172859E+03  0.93000000000E-01 0. -1.
         23    2    1    2    0    0  0.00000000000E+00  0.00000000000E+00 -0.33120440875E+03  0.34331974951E+03  0.90399612981E+02 0.  0.
        -11    1    3    3    0    0 -0.36514670998E+02 -0.17889941024E+02 -0.90635176902E+02  0.99338343455E+02  0.51100000000E-03 0.  1.
         11    1    3    3    0    0  0.36514670998E+02  0.17889941024E+02 -0.24056923185E+03  0.24398140605E+03  0.51100000000E-03 0. -1.
<mgrwt>
<rscale>  0 0.90399613E+02</rscale>
<asrwt>0</asrwt>
<pdfrwt beam="2">  1        3 0.51886459E-01 0.90399613E+02</pdfrwt>
<pdfrwt beam="1">  1       -3 0.93194956E-03 0.90399613E+02</pdfrwt>
<totfact> 0.22966618E+04</totfact>
</mgrwt>
</event>
<event>
 5    1  0.7431090E-001  0.9197438E+02  0.7818608E-02  0.1298140E+00
         -3   -1    0    0    0  501 -0.00000000000E+00  0.00000000000E+00  0.45901443255E+02  0.45901537467E+02  0.93000000000E-01 0.  1.
          3   -1    0    0  501    0  0.00000000000E+00 -0.00000000000E+00 -0.46072913107E+02  0.46073006969E+02  0.93000000000E-01 0. -1.
         23    2    1    2    0    0  0.00000000000E+00  0.00000000000E+00 -0.17146985259E+00  0.91974544437E+02  0.91974384600E+02 0.  0.
        -11    1    3    3    0    0 -0.44220531950E+02  0.12545503088E+02 -0.14917109344E+01  0.45989893406E+02  0.51100000000E-03 0. -1.
         11    1    3    3    0    0  0.44220531950E+02 -0.12545503088E+02  0.13202410818E+01  0.45984651031E+02  0.51100000000E-03 0.  1.
<mgrwt>
<rscale>  0 0.91974385E+02</rscale>
<asrwt>0</asrwt>
<pdfrwt beam="2">  1        3 0.70881550E-02 0.91974385E+02</pdfrwt>
<pdfrwt beam="1">  1       -3 0.70617749E-02 0.91974385E+02</pdfrwt>
<totfact> 0.34448211E+04</totfact>
</mgrwt>
</event>
<event>
 5    1  0.7431090E-001  0.9213114E+02  0.7818608E-02  0.1297771E+00
          3   -1    0    0  501    0  0.00000000000E+00  0.00000000000E+00  0.85160153992E+02  0.85160204772E+02  0.93000000000E-01 0. -1.
         -3   -1    0    0    0  501 -0.00000000000E+00 -0.00000000000E+00 -0.24918041247E+02  0.24918214795E+02  0.93000000000E-01 0.  1.
         23    2    1    2    0    0  0.00000000000E+00  0.00000000000E+00  0.60242112745E+02  0.11007841957E+03  0.92131136466E+02 0.  0.
        -11    1    3    3    0    0  0.39535254864E+02 -0.10717530290E+02  0.55300905958E+02  0.68819270795E+02  0.51100000000E-03 0. -1.
         11    1    3    3    0    0 -0.39535254864E+02  0.10717530290E+02  0.49412067868E+01  0.41259148773E+02  0.51100000000E-03 0.  1.
<mgrwt>
<rscale>  0 0.92131136E+02</rscale>
<asrwt>0</asrwt>
<pdfrwt beam="1">  1        3 0.13101579E-01 0.92131136E+02</pdfrwt>
<pdfrwt beam="2">  1       -3 0.38335621E-02 0.92131136E+02</pdfrwt>
<totfact> 0.32989975E+04</totfact>
</mgrwt>
</event>
<event>
 5    1  0.7431090E-001  0.8974516E+02  0.7818608E-02  0.1303470E+00
         -3   -1    0    0    0  501 -0.00000000000E+00  0.00000000000E+00  0.90052811700E+01  0.90057613754E+01  0.93000000000E-01 0.  1.
          3   -1    0    0  501    0  0.00000000000E+00 -0.00000000000E+00 -0.22358994711E+03  0.22358996645E+03  0.93000000000E-01 0. -1.
         23    2    1    2    0    0  0.00000000000E+00  0.00000000000E+00 -0.21458466594E+03  0.23259572782E+03  0.89745160017E+02 0.  0.
        -11    1    3    3    0    0 -0.32724369721E+02 -0.30058595640E+02 -0.12350775442E+03  0.13125764339E+03  0.51100000000E-03 0.  1.
         11    1    3    3    0    0  0.32724369721E+02  0.30058595640E+02 -0.91076911515E+02  0.10133808443E+03  0.51100000000E-03 0. -1.
<mgrwt>
<rscale>  0 0.89745160E+02</rscale>
<asrwt>0</asrwt>
<pdfrwt beam="2">  1        3 0.34398488E-01 0.89745160E+02</pdfrwt>
<pdfrwt beam="1">  1       -3 0.13854665E-02 0.89745160E+02</pdfrwt>
<totfact> 0.28065186E+04</totfact>
</mgrwt>
</event>
<event>
 5    1  0.7431090E-001  0.9195589E+02  0.7818608E-02  0.1298183E+00
         -3   -1    0    0    0  501 -0.00000000000E+00  0.00000000000E+00  0.50755050742E+02  0.50755135945E+02  0.93000000000E-01 0.  1.
          3   -1    0    0  501    0  0.00000000000E+00 -0.00000000000E+00 -0.41650290045E+02  0.41650393874E+02  0.93000000000E-01 0. -1.
         23    2    1    2    0    0  0.00000000000E+00  0.00000000000E+00  0.91047606964E+01  0.92405529819E+02  0.91955887652E+02 0.  0.
        -11    1    3    3    0    0  0.30632679507E+02 -0.58627985265E+01 -0.29395018693E+02  0.42857911575E+02  0.51100000000E-03 0. -1.
         11    1    3    3    0    0 -0.30632679507E+02  0.58627985265E+01  0.38499779390E+02  0.49547618244E+02  0.51100000000E-03 0.  1.
<mgrwt>
<rscale>  0 0.91955888E+02</rscale>
<asrwt>0</asrwt>
<pdfrwt beam="2">  1        3 0.64077515E-02 0.91955888E+02</pdfrwt>
<pdfrwt beam="1">  1       -3 0.78084838E-02 0.91955888E+02</pdfrwt>
<totfact> 0.34435482E+04</totfact>
</mgrwt>
</event>
<event>
 5    1  0.7431090E-001  0.9054715E+02  0.7818608E-02  0.1301532E+00
          3   -1    0    0  501    0  0.00000000000E+00  0.00000000000E+00  0.53551769319E+02  0.53551850073E+02  0.93000000000E-01 0. -1.
         -3   -1    0    0    0  501 -0.00000000000E+00 -0.00000000000E+00 -0.38274885180E+02  0.38274998165E+02  0.93000000000E-01 0.  1.
         23    2    1    2    0    0  0.00000000000E+00  0.00000000000E+00  0.15276884139E+02  0.91826848238E+02  0.90547152734E+02 0.  0.
        -11    1    3    3    0    0 -0.29669311638E+01 -0.30186828793E+02  0.41723710507E+02  0.51584060831E+02  0.51100000000E-03 0.  1.
         11    1    3    3    0    0  0.29669311638E+01  0.30186828793E+02 -0.26446826368E+02  0.40242787407E+02  0.51100000000E-03 0. -1.
<mgrwt>
<rscale>  0 0.90547153E+02</rscale>
<asrwt>0</asrwt>
<pdfrwt beam="1">  1        3 0.82387487E-02 0.90547153E+02</pdfrwt>
<pdfrwt beam="2">  1       -3 0.58884587E-02 0.90547153E+02</pdfrwt>
<totfact> 0.35960507E+04</totfact>
</mgrwt>
</event>
<event>
 5    1  0.7431090E-001  0.9079682E+02  0.7818608E-02  0.1300933E+00
          3   -1    0    0  501    0  0.00000000000E+00  0.00000000000E+00  0.83928868488E+01  0.83934020908E+01  0.93000000000E-01 0. -1.
         -3   -1    0    0    0  501 -0.00000000000E+00 -0.00000000000E+00 -0.24555887479E+03  0.24555889240E+03  0.93000000000E-01 0.  1.
         23    2    1    2    0    0  0.00000000000E+00  0.00000000000E+00 -0.23716598794E+03  0.25395229449E+03  0.90796817352E+02 0.  0.
        -11    1    3    3    0    0 -0.31692662531E+01 -0.44011777518E+02 -0.14843747487E+03  0.15485723992E+03  0.51100000000E-03 0.  1.
         11    1    3    3    0    0  0.31692662531E+01  0.44011777518E+02 -0.88728513069E+02  0.99095054571E+02  0.51100000000E-03 0. -1.
<mgrwt>
<rscale>  0 0.90796817E+02</rscale>
<asrwt>0</asrwt>
<pdfrwt beam="1">  1        3 0.12912545E-02 0.90796817E+02</pdfrwt>
<pdfrwt beam="2">  1       -3 0.37778324E-01 0.90796817E+02</pdfrwt>
<totfact> 0.26217350E+04</totfact>
</mgrwt>
</event>
<event>
 5    1  0.7431090E-001  0.9054605E+02  0.7818608E-02  0.1301535E+00
          3   -1    0    0  501    0  0.00000000000E+00  0.00000000000E+00  0.16773744561E+03  0.16773747139E+03  0.93000000000E-01 0. -1.
         -3   -1    0    0    0  501 -0.00000000000E+00 -0.00000000000E+00 -0.12219170967E+02  0.12219524873E+02  0.93000000000E-01 0.  1.
         23    2    1    2    0    0  0.00000000000E+00  0.00000000000E+00  0.15551827465E+03  0.17995699627E+03  0.90546047714E+02 0.  0.
        -11    1    3    3    0    0 -0.27766122549E+02  0.17197179578E+01  0.14874615166E+03  0.15132525442E+03  0.51100000000E-03 0. -1.
         11    1    3    3    0    0  0.27766122549E+02 -0.17197179578E+01  0.67721229863E+01  0.28631741848E+02  0.51100000000E-03 0.  1.
<mgrwt>
<rscale>  0 0.90546048E+02</rscale>
<asrwt>0</asrwt>
<pdfrwt beam="1">  1        3 0.25805792E-01 0.90546048E+02</pdfrwt>
<pdfrwt beam="2">  1       -3 0.18799015E-02 0.90546048E+02</pdfrwt>
<totfact> 0.30127493E+04</totfact>
</mgrwt>
</event>
<event>
 5    1  0.7431090E-001  0.9879167E+02  0.7818608E-02  0.1282858E+00
         -3   -1    0    0    0  501 -0.00000000000E+00  0.00000000000E+00  0.63604773779E+01  0.63611572434E+01  0.93000000000E-01 0.  1.
          3   -1    0    0  501    0  0.00000000000E+00 -0.00000000000E+00 -0.38358969039E+03  0.38358970166E+03  0.93000000000E-01 0. -1.
         23    2    1    2    0    0  0.00000000000E+00  0.00000000000E+00 -0.37722921301E+03  0.38995085890E+03  0.98791665704E+02 0.  0.
        -11    1    3    3    0    0  0.44885112076E+01  0.48744987678E+02 -0.16251294695E+03  0.16972530302E+03  0.51100000000E-03 0. -1.
         11    1    3    3    0    0 -0.44885112076E+01 -0.48744987678E+02 -0.21471626605E+03  0.22022555589E+03  0.51100000000E-03 0.  1.
<mgrwt>
<rscale>  0 0.98791666E+02</rscale>
<asrwt>0</asrwt>
<pdfrwt beam="2">  1        3 0.59013834E-01 0.98791666E+02</pdfrwt>
<pdfrwt beam="1">  1       -3 0.97858845E-03 0.98791666E+02</pdfrwt>
<totfact> 0.16861051E+04</totfact>
</mgrwt>
</event>
<event>
 5    1  0.7431090E-001  0.8810287E+02  0.7818608E-02  0.1307512E+00
         -3   -1    0    0    0  501 -0.00000000000E+00  0.00000000000E+00  0.98583339774E+02  0.98583383640E+02  0.93000000000E-01 0.  1.
          3   -1    0    0  501    0  0.00000000000E+00 -0.00000000000E+00 -0.19683986513E+02  0.19684206208E+02  0.93000000000E-01 0. -1.
         23    2    1    2    0    0  0.00000000000E+00  0.00000000000E+00  0.78899353261E+02  0.11826758985E+03  0.88102865239E+02 0.  0.
        -11    1    3    3    0    0  0.22134307788E+01 -0.16632742715E+02  0.94125642097E+02  0.95609538784E+02  0.51100000000E-03 0.  1.
         11    1    3    3    0    0 -0.22134307788E+01  0.16632742715E+02 -0.15226288836E+02  0.22658051064E+02  0.51100000000E-03 0. -1.
<mgrwt>
<rscale>  0 0.88102865E+02</rscale>
<asrwt>0</asrwt>
<pdfrwt beam="2">  1        3 0.30283259E-02 0.88102865E+02</pdfrwt>
<pdfrwt beam="1">  1       -3 0.15166688E-01 0.88102865E+02</pdfrwt>
<totfact> 0.36612932E+04</totfact>
</mgrwt>
</event>
<event>
 5    1  0.7431090E-001  0.9340578E+02  0.7818608E-02  0.1294808E+00
         -3   -1    0    0    0  501 -0.00000000000E+00  0.00000000000E+00  0.13870194624E+03  0.13870197742E+03  0.93000000000E-01 0.  1.
          3   -1    0    0  501    0  0.00000000000E+00 -0.00000000000E+00 -0.15725349026E+02  0.15725624026E+02  0.93000000000E-01 0. -1.
         23    2    1    2    0    0  0.00000000000E+00  0.00000000000E+00  0.12297659721E+03  0.15442760144E+03  0.93405784754E+02 0.  0.
        -11    1    3    3    0    0  0.19101491684E+02 -0.18822471167E+02  0.12470414980E+03  0.12755499748E+03  0.51100000000E-03 0.  1.
         11    1    3    3    0    0 -0.19101491684E+02  0.18822471167E+02 -0.17275525875E+01  0.26872603960E+02  0.51100000000E-03 0. -1.
<mgrwt>
<rscale>  0 0.93405785E+02</rscale>
<asrwt>0</asrwt>
<pdfrwt beam="2">  1        3 0.24193080E-02 0.93405785E+02</pdfrwt>
<pdfrwt beam="1">  1       -3 0.21338784E-01 0.93405785E+02</pdfrwt>
<totfact> 0.29069192E+04</totfact>
</mgrwt>
</event>
<event>
 5    1  0.7431090E-001  0.8957992E+02  0.7818608E-02  0.1303872E+00
         -3   -1    0    0    0  501 -0.00000000000E+00  0.00000000000E+00  0.31585292415E+02  0.31585429330E+02  0.93000000000E-01 0.  1.
          3   -1    0    0  501    0  0.00000000000E+00 -0.00000000000E+00 -0.63514713942E+02  0.63514782029E+02  0.93000000000E-01 0. -1.
         23    2    1    2    0    0  0.00000000000E+00  0.00000000000E+00 -0.31929421527E+02  0.95100211358E+02  0.89579920972E+02 0.  0.
        -11    1    3    3    0    0  0.27728925964E+02 -0.33139385302E+02 -0.28482352503E+02  0.51752841445E+02  0.51100000000E-03 0. -1.
         11    1    3    3    0    0 -0.27728925964E+02  0.33139385302E+02 -0.34470690242E+01  0.43347369913E+02  0.51100000000E-03 0.  1.
<mgrwt>
<rscale>  0 0.89579921E+02</rscale>
<asrwt>0</asrwt>
<pdfrwt beam="2">  1        3 0.97715102E-02 0.89579921E+02</pdfrwt>
<pdfrwt beam="1">  1       -3 0.48592915E-02 0.89579921E+02</pdfrwt>
<totfact> 0.36761293E+04</totfact>
</mgrwt>
</event>
<event>
 5    1  0.7431090E-001  0.8985192E+02  0.7818608E-02  0.1303211E+00
         -3   -1    0    0    0  501 -0.00000000000E+00  0.00000000000E+00  0.13271521027E+03  0.13271524285E+03  0.93000000000E-01 0. -1.
          3   -1    0    0  501    0  0.00000000000E+00 -0.00000000000E+00 -0.15207890978E+02  0.15208175334E+02  0.93000000000E-01 0.  1.
         23    2    1    2    0    0  0.00000000000E+00  0.00000000000E+00  0.11750731929E+03  0.14792341819E+03  0.89851920189E+02 0.  0.
        -11    1    3    3    0    0 -0.19475451547E+02  0.26360605837E+02  0.81672319806E+01  0.33776891976E+02  0.51100000000E-03 0.  1.
         11    1    3    3    0    0  0.19475451547E+02 -0.26360605837E+02  0.10934008731E+03  0.11414652621E+03  0.51100000000E-03 0. -1.
<mgrwt>
<rscale>  0 0.89851920E+02</rscale>
<asrwt>0</asrwt>
<pdfrwt beam="2">  1        3 0.23396999E-02 0.89851920E+02</pdfrwt>
<pdfrwt beam="1">  1       -3 0.20417749E-01 0.89851920E+02</pdfrwt>
<totfact> 0.32704253E+04</totfact>
</mgrwt>
</event>
<event>
 5    1  0.7431090E-001  0.9116879E+02  0.7818608E-02  0.1300046E+00
          3   -1    0    0  501    0  0.00000000000E+00  0.00000000000E+00  0.29248121826E+02  0.29248269681E+02  0.93000000000E-01 0. -1.
         -3   -1    0    0    0  501 -0.00000000000E+00 -0.00000000000E+00 -0.71044793486E+02  0.71044854356E+02  0.93000000000E-01 0.  1.
         23    2    1    2    0    0  0.00000000000E+00  0.00000000000E+00 -0.41796671660E+02  0.10029312404E+03  0.91168793824E+02 0.  0.
        -11    1    3    3    0    0 -0.18797642185E+00  0.35856404021E+02 -0.51861683230E+02  0.63050386455E+02  0.51100000000E-03 0.  1.
         11    1    3    3    0    0  0.18797642185E+00 -0.35856404021E+02  0.10065011570E+02  0.37242737582E+02  0.51100000000E-03 0. -1.
<mgrwt>
<rscale>  0 0.91168794E+02</rscale>
<asrwt>0</asrwt>
<pdfrwt beam="1">  1        3 0.44997271E-02 0.91168794E+02</pdfrwt>
<pdfrwt beam="2">  1       -3 0.10929984E-01 0.91168794E+02</pdfrwt>
<totfact> 0.34659007E+04</totfact>
</mgrwt>
</event>
<event>
 5    1  0.7431090E-001  0.9020319E+02  0.7818608E-02  0.1302360E+00
         -3   -1    0    0    0  501 -0.00000000000E+00  0.00000000000E+00  0.45020487908E+02  0.45020583965E+02  0.93000000000E-01 0.  1.
          3   -1    0    0  501    0  0.00000000000E+00 -0.00000000000E+00 -0.45182654899E+02  0.45182750610E+02  0.93000000000E-01 0. -1.
         23    2    1    2    0    0  0.00000000000E+00  0.00000000000E+00 -0.16216699032E+00  0.90203334575E+02  0.90203188803E+02 0.  0.
        -11    1    3    3    0    0  0.27007998516E+02  0.35694930728E+02 -0.56122544968E+01  0.45111611192E+02  0.51100000000E-03 0. -1.
         11    1    3    3    0    0 -0.27007998516E+02 -0.35694930728E+02  0.54500875065E+01  0.45091723383E+02  0.51100000000E-03 0.  1.
<mgrwt>
<rscale>  0 0.90203189E+02</rscale>
<asrwt>0</asrwt>
<pdfrwt beam="2">  1        3 0.69511924E-02 0.90203189E+02</pdfrwt>
<pdfrwt beam="1">  1       -3 0.69262437E-02 0.90203189E+02</pdfrwt>
<totfact> 0.36463055E+04</totfact>
</mgrwt>
</event>
<event>
 5    1  0.7431090E-001  0.9155544E+02  0.7818608E-02  0.1299128E+00
         -3   -1    0    0    0  501 -0.00000000000E+00  0.00000000000E+00  0.17791848354E+03  0.17791850784E+03  0.93000000000E-01 0.  1.
          3   -1    0    0  501    0  0.00000000000E+00 -0.00000000000E+00 -0.11778217353E+02  0.11778584509E+02  0.93000000000E-01 0. -1.
         23    2    1    2    0    0  0.00000000000E+00  0.00000000000E+00  0.16614026618E+03  0.18969709235E+03  0.91555441122E+02 0.  0.
        -11    1    3    3    0    0 -0.16794196880E+02  0.24696639497E+02  0.15495262656E+03  0.15780458019E+03  0.51100000000E-03 0.  1.
         11    1    3    3    0    0  0.16794196880E+02 -0.24696639497E+02  0.11187639623E+02  0.31892512160E+02  0.51100000000E-03 0. -1.
<mgrwt>
<rscale>  0 0.91555441E+02</rscale>
<asrwt>0</asrwt>
<pdfrwt beam="2">  1        3 0.18120634E-02 0.91555441E+02</pdfrwt>
<pdfrwt beam="1">  1       -3 0.27372106E-01 0.91555441E+02</pdfrwt>
<totfact> 0.28715869E+04</totfact>
</mgrwt>
</event>
<event>
 5    1  0.7431090E-001  0.8935486E+02  0.7818608E-02  0.1304422E+00
          3   -1    0    0  501    0  0.00000000000E+00  0.00000000000E+00  0.20467177295E+03  0.20467179408E+03  0.93000000000E-01 0. -1.
         -3   -1    0    0    0  501 -0.00000000000E+00 -0.00000000000E+00 -0.97523126612E+01  0.97527560844E+01  0.93000000000E-01 0.  1.
         23    2    1    2    0    0  0.00000000000E+00  0.00000000000E+00  0.19491946029E+03  0.21442455016E+03  0.89354863960E+02 0.  0.
        -11    1    3    3    0    0 -0.13601663331E+02 -0.42388092480E+02  0.10653975112E+03  0.11546633361E+03  0.51100000000E-03 0. -1.
         11    1    3    3    0    0  0.13601663331E+02  0.42388092480E+02  0.88379709168E+02  0.98958216548E+02  0.51100000000E-03 0.  1.
<mgrwt>
<rscale>  0 0.89354864E+02</rscale>
<asrwt>0</asrwt>
<pdfrwt beam="1">  1        3 0.31488000E-01 0.89354864E+02</pdfrwt>
<pdfrwt beam="2">  1       -3 0.15003916E-02 0.89354864E+02</pdfrwt>
<totfact> 0.29318488E+04</totfact>
</mgrwt>
</event>
<event>
 5    1  0.7431090E-001  0.9163642E+02  0.7818608E-02  0.1298937E+00
         -3   -1    0    0    0  501 -0.00000000000E+00  0.00000000000E+00  0.77539794491E+02  0.77539850262E+02  0.93000000000E-01 0.  1.
          3   -1    0    0  501    0  0.00000000000E+00 -0.00000000000E+00 -0.27073804455E+02  0.27073964184E+02  0.93000000000E-01 0. -1.
         23    2    1    2    0    0  0.00000000000E+00  0.00000000000E+00  0.50465990036E+02  0.10461381445E+03  0.91636423014E+02 0.  0.
        -11    1    3    3    0    0  0.57520246368E+01  0.37807119166E+02  0.54042619424E+02  0.66204748784E+02  0.51100000000E-03 0.  1.
         11    1    3    3    0    0 -0.57520246368E+01 -0.37807119166E+02 -0.35766293880E+01  0.38409065663E+02  0.51100000000E-03 0. -1.
<mgrwt>
<rscale>  0 0.91636423E+02</rscale>
<asrwt>0</asrwt>
<pdfrwt beam="2">  1        3 0.41652172E-02 0.91636423E+02</pdfrwt>
<pdfrwt beam="1">  1       -3 0.11929216E-01 0.91636423E+02</pdfrwt>
<totfact> 0.33866668E+04</totfact>
</mgrwt>
</event>
<event>
 5    1  0.7431090E-001  0.9140038E+02  0.7818608E-02  0.1299495E+00
         -3   -1    0    0    0  501 -0.00000000000E+00  0.00000000000E+00  0.66802537387E+02  0.66802602122E+02  0.93000000000E-01 0.  1.
          3   -1    0    0  501    0  0.00000000000E+00 -0.00000000000E+00 -0.31263744305E+02  0.31263882627E+02  0.93000000000E-01 0. -1.
         23    2    1    2    0    0  0.00000000000E+00  0.00000000000E+00  0.35538793082E+02  0.98066484750E+02  0.91400380839E+02 0.  0.
        -11    1    3    3    0    0  0.19638751102E+02 -0.57906050734E+01  0.61606237204E+02  0.64919489482E+02  0.51100000000E-03 0.  1.
         11    1    3    3    0    0 -0.19638751102E+02  0.57906050734E+01 -0.26067444122E+02  0.33146995267E+02  0.51100000000E-03 0. -1.
<mgrwt>
<rscale>  0 0.91400381E+02</rscale>
<asrwt>0</asrwt>
<pdfrwt beam="2">  1        3 0.48098224E-02 0.91400381E+02</pdfrwt>
<pdfrwt beam="1">  1       -3 0.10277329E-01 0.91400381E+02</pdfrwt>
<totfact> 0.34584439E+04</totfact>
</mgrwt>
</event>
<event>
 5    1  0.7431090E-001  0.9007681E+02  0.7818608E-02  0.1302666E+00
         -3   -1    0    0    0  501 -0.00000000000E+00  0.00000000000E+00  0.82773722990E+02  0.82773775234E+02  0.93000000000E-01 0.  1.
          3   -1    0    0  501    0  0.00000000000E+00 -0.00000000000E+00 -0.24505910531E+02  0.24506086998E+02  0.93000000000E-01 0. -1.
         23    2    1    2    0    0  0.00000000000E+00  0.00000000000E+00  0.58267812459E+02  0.10727986223E+03  0.90076805404E+02 0.  0.
        -11    1    3    3    0    0  0.21669303940E+01 -0.36623675025E+02  0.60247240550E+02  0.70538777660E+02  0.51100000000E-03 0. -1.
         11    1    3    3    0    0 -0.21669303940E+01  0.36623675025E+02 -0.19794280911E+01  0.36741084572E+02  0.51100000000E-03 0.  1.
<mgrwt>
<rscale>  0 0.90076805E+02</rscale>
<asrwt>0</asrwt>
<pdfrwt beam="2">  1        3 0.37701577E-02 0.90076805E+02</pdfrwt>
<pdfrwt beam="1">  1       -3 0.12734436E-01 0.90076805E+02</pdfrwt>
<totfact> 0.35284601E+04</totfact>
</mgrwt>
</event>
<event>
 5    1  0.7431090E-001  0.9184800E+02  0.7818608E-02  0.1298437E+00
          3   -1    0    0  501    0  0.00000000000E+00  0.00000000000E+00  0.11495256522E+02  0.11495632715E+02  0.93000000000E-01 0. -1.
         -3   -1    0    0    0  501 -0.00000000000E+00 -0.00000000000E+00 -0.18346479673E+03  0.18346482030E+03  0.93000000000E-01 0.  1.
         23    2    1    2    0    0  0.00000000000E+00  0.00000000000E+00 -0.17196954021E+03  0.19496045302E+03  0.91848002052E+02 0.  0.
        -11    1    3    3    0    0 -0.76027321346E+01 -0.43597749050E+02 -0.59948971459E+02  0.74514726313E+02  0.51100000000E-03 0. -1.
         11    1    3    3    0    0  0.76027321346E+01  0.43597749050E+02 -0.11202056875E+03  0.12044572670E+03  0.51100000000E-03 0.  1.
<mgrwt>
<rscale>  0 0.91848002E+02</rscale>
<asrwt>0</asrwt>
<pdfrwt beam="1">  1        3 0.17685319E-02 0.91848002E+02</pdfrwt>
<pdfrwt beam="2">  1       -3 0.28225382E-01 0.91848002E+02</pdfrwt>
<totfact> 0.28195507E+04</totfact>
</mgrwt>
</event>
<event>
 5    1  0.7431090E-001  0.9458977E+02  0.7818608E-02  0.1292103E+00
          3   -1    0    0  501    0  0.00000000000E+00  0.00000000000E+00  0.13633423650E+03  0.13633426822E+03  0.93000000000E-01 0. -1.
         -3   -1    0    0    0  501 -0.00000000000E+00 -0.00000000000E+00 -0.16406615513E+02  0.16406879094E+02  0.93000000000E-01 0.  1.
         23    2    1    2    0    0  0.00000000000E+00  0.00000000000E+00  0.11992762098E+03  0.15274114731E+03  0.94589765867E+02 0.  0.
        -11    1    3    3    0    0 -0.31093708832E+02 -0.35618032156E+02  0.61835143927E+02  0.77839886744E+02  0.51100000000E-03 0.  1.
         11    1    3    3    0    0  0.31093708832E+02  0.35618032156E+02  0.58092477057E+02  0.74901260567E+02  0.51100000000E-03 0. -1.
<mgrwt>
<rscale>  0 0.94589766E+02</rscale>
<asrwt>0</asrwt>
<pdfrwt beam="1">  1        3 0.20974521E-01 0.94589766E+02</pdfrwt>
<pdfrwt beam="2">  1       -3 0.25241174E-02 0.94589766E+02</pdfrwt>
<totfact> 0.28181006E+04</totfact>
</mgrwt>
</event>
<event>
 5    1  0.7431090E-001  0.9167685E+02  0.7818608E-02  0.1298841E+00
          3   -1    0    0  501    0  0.00000000000E+00  0.00000000000E+00  0.45734624669E+03  0.45734625615E+03  0.93000000000E-01 0. -1.
         -3   -1    0    0    0  501 -0.00000000000E+00 -0.00000000000E+00 -0.45937659597E+01  0.45947072478E+01  0.93000000000E-01 0.  1.
         23    2    1    2    0    0  0.00000000000E+00  0.00000000000E+00  0.45275248073E+03  0.46194096339E+03  0.91676850150E+02 0.  0.
        -11    1    3    3    0    0  0.42360526303E+02  0.17268396061E+02  0.24110946147E+03  0.24541064382E+03  0.51100000000E-03 0. -1.
         11    1    3    3    0    0 -0.42360526303E+02 -0.17268396061E+02  0.21164301926E+03  0.21653031957E+03  0.51100000000E-03 0.  1.
<mgrwt>
<rscale>  0 0.91676850E+02</rscale>
<asrwt>0</asrwt>
<pdfrwt beam="1">  1        3 0.70361033E-01 0.91676850E+02</pdfrwt>
<pdfrwt beam="2">  1       -3 0.70680637E-03 0.91676850E+02</pdfrwt>
<totfact> 0.18597192E+04</totfact>
</mgrwt>
</event>
<event>
 4    1  0.7431090E-001  0.3497735E+02  0.7818608E-02  0.1548802E+00
          3   -1    0    0  501    0  0.00000000000E+00  0.00000000000E+00  0.72601472173E+01  0.72607428419E+01  0.93000000000E-01 0. -1.
         -3   -1    0    0    0  501 -0.00000000000E+00 -0.00000000000E+00 -0.42125396170E+02  0.42125498828E+02  0.93000000000E-01 0.  1.
        -11    1    1    2    0    0  0.10127143577E+01 -0.15221349132E+02 -0.29507782543E+02  0.33217830914E+02  0.51100000000E-03 0. -1.
         11    1    1    2    0    0 -0.10127143577E+01  0.15221349132E+02 -0.53574664092E+01  0.16168410755E+02  0.51100000000E-03 0.  1.
<mgrwt>
<rscale>  0 0.34977354E+02</rscale>
<asrwt>0</asrwt>
<pdfrwt beam="1">  1        3 0.11169995E-02 0.34977354E+02</pdfrwt>
<pdfrwt beam="2">  1       -3 0.64808838E-02 0.34977354E+02</pdfrwt>
<totfact> 0.45586202E+05</totfact>
</mgrwt>
</event>
<event>
 5    1  0.7431090E-001  0.9526001E+02  0.7818608E-02  0.1290592E+00
         -3   -1    0    0    0  501 -0.00000000000E+00  0.00000000000E+00  0.15601930162E+02  0.15602207336E+02  0.93000000000E-01 0.  1.
          3   -1    0    0  501    0  0.00000000000E+00 -0.00000000000E+00 -0.14540461959E+03  0.14540464933E+03  0.93000000000E-01 0. -1.
         23    2    1    2    0    0  0.00000000000E+00  0.00000000000E+00 -0.12980268943E+03  0.16100685667E+03  0.95260011081E+02 0.  0.
        -11    1    3    3    0    0  0.47277530092E+02  0.55003400193E+01 -0.61878403491E+02  0.78066352616E+02  0.51100000000E-03 0.  1.
         11    1    3    3    0    0 -0.47277530092E+02 -0.55003400193E+01 -0.67924285938E+02  0.82940504052E+02  0.51100000000E-03 0. -1.
<mgrwt>
<rscale>  0 0.95260011E+02</rscale>
<asrwt>0</asrwt>
<pdfrwt beam="2">  1        3 0.22369964E-01 0.95260011E+02</pdfrwt>
<pdfrwt beam="1">  1       -3 0.24003207E-02 0.95260011E+02</pdfrwt>
<totfact> 0.27208520E+04</totfact>
</mgrwt>
</event>
<event>
 5    1  0.7431090E-001  0.8873554E+02  0.7818608E-02  0.1305943E+00
         -3   -1    0    0    0  501 -0.00000000000E+00  0.00000000000E+00  0.85312942430E+01  0.85318011264E+01  0.93000000000E-01 0.  1.
          3   -1    0    0  501    0  0.00000000000E+00 -0.00000000000E+00 -0.23073126279E+03  0.23073128153E+03  0.93000000000E-01 0. -1.
         23    2    1    2    0    0  0.00000000000E+00  0.00000000000E+00 -0.22219996855E+03  0.23926308266E+03  0.88735543618E+02 0.  0.
        -11    1    3    3    0    0 -0.31750023579E+02 -0.30327740886E+02 -0.12829408419E+03  0.13559943917E+03  0.51100000000E-03 0. -1.
         11    1    3    3    0    0  0.31750023579E+02  0.30327740886E+02 -0.93905884359E+02  0.10366364349E+03  0.51100000000E-03 0.  1.
<mgrwt>
<rscale>  0 0.88735544E+02</rscale>
<asrwt>0</asrwt>
<pdfrwt beam="2">  1        3 0.35497153E-01 0.88735544E+02</pdfrwt>
<pdfrwt beam="1">  1       -3 0.13125474E-02 0.88735544E+02</pdfrwt>
<totfact> 0.28597062E+04</totfact>
</mgrwt>
</event>
<event>
 5    1  0.7431090E-001  0.8927498E+02  0.7818608E-02  0.1304617E+00
          3   -1    0    0  501    0  0.00000000000E+00  0.00000000000E+00  0.58276551929E+02  0.58276626135E+02  0.93000000000E-01 0.  1.
         -3   -1    0    0    0  501 -0.00000000000E+00 -0.00000000000E+00 -0.34190357764E+02  0.34190484247E+02  0.93000000000E-01 0. -1.
         23    2    1    2    0    0  0.00000000000E+00  0.00000000000E+00  0.24086194165E+02  0.92467110382E+02  0.89274978315E+02 0.  0.
        -11    1    3    3    0    0 -0.42025841901E+02  0.13592251566E+02  0.53638952171E+01  0.44493730595E+02  0.51100000000E-03 0.  1.
         11    1    3    3    0    0  0.42025841901E+02 -0.13592251566E+02  0.18722298948E+02  0.47973379788E+02  0.51100000000E-03 0. -1.
<mgrwt>
<rscale>  0 0.89274978E+02</rscale>
<asrwt>0</asrwt>
<pdfrwt beam="1">  1        3 0.89656388E-02 0.89274978E+02</pdfrwt>
<pdfrwt beam="2">  1       -3 0.52600705E-02 0.89274978E+02</pdfrwt>
<totfact> 0.37316647E+04</totfact>
</mgrwt>
</event>
<event>
 5    1  0.7431090E-001  0.9216951E+02  0.7818608E-02  0.1297681E+00
         -3   -1    0    0    0  501 -0.00000000000E+00  0.00000000000E+00  0.74748660072E+02  0.74748717925E+02  0.93000000000E-01 0.  1.
          3   -1    0    0  501    0  0.00000000000E+00 -0.00000000000E+00 -0.28412469458E+02  0.28412621662E+02  0.93000000000E-01 0. -1.
         23    2    1    2    0    0  0.00000000000E+00  0.00000000000E+00  0.46336190613E+02  0.10316133959E+03  0.92169514618E+02 0.  0.
        -11    1    3    3    0    0  0.27242372149E+02  0.31363246857E+02  0.83886223609E+00  0.41551218800E+02  0.51100000000E-03 0. -1.
         11    1    3    3    0    0 -0.27242372149E+02 -0.31363246857E+02  0.45497328377E+02  0.61610120787E+02  0.51100000000E-03 0.  1.
<mgrwt>
<rscale>  0 0.92169515E+02</rscale>
<asrwt>0</asrwt>
<pdfrwt beam="2">  1        3 0.43711653E-02 0.92169515E+02</pdfrwt>
<pdfrwt beam="1">  1       -3 0.11499810E-01 0.92169515E+02</pdfrwt>
<totfact> 0.33437607E+04</totfact>
</mgrwt>
</event>
<event>
 5    1  0.7431090E-001  0.9254324E+02  0.7818608E-02  0.1296807E+00
          3   -1    0    0  501    0  0.00000000000E+00  0.00000000000E+00  0.77401602216E+02  0.77401658087E+02  0.93000000000E-01 0. -1.
         -3   -1    0    0    0  501 -0.00000000000E+00 -0.00000000000E+00 -0.27661594184E+02  0.27661750520E+02  0.93000000000E-01 0.  1.
         23    2    1    2    0    0  0.00000000000E+00  0.00000000000E+00  0.49740008031E+02  0.10506340861E+03  0.92543240861E+02 0.  0.
        -11    1    3    3    0    0  0.54756484983E+01 -0.27322933329E+02 -0.17067203747E+02  0.32677436499E+02  0.51100000000E-03 0.  1.
         11    1    3    3    0    0 -0.54756484983E+01  0.27322933329E+02  0.66807211778E+02  0.72385972108E+02  0.51100000000E-03 0. -1.
<mgrwt>
<rscale>  0 0.92543241E+02</rscale>
<asrwt>0</asrwt>
<pdfrwt beam="1">  1        3 0.11907955E-01 0.92543241E+02</pdfrwt>
<pdfrwt beam="2">  1       -3 0.42556463E-02 0.92543241E+02</pdfrwt>
<totfact> 0.32936368E+04</totfact>
</mgrwt>
</event>
<event>
 5    1  0.7431090E-001  0.9149629E+02  0.7818608E-02  0.1299268E+00
         -3   -1    0    0    0  501 -0.00000000000E+00  0.00000000000E+00  0.10367813783E+03  0.10367817954E+03  0.93000000000E-01 0.  1.
          3   -1    0    0  501    0  0.00000000000E+00 -0.00000000000E+00 -0.20186290803E+02  0.20186505032E+02  0.93000000000E-01 0. -1.
         23    2    1    2    0    0  0.00000000000E+00  0.00000000000E+00  0.83491847024E+02  0.12386468457E+03  0.91496292625E+02 0.  0.
        -11    1    3    3    0    0 -0.16748108532E+02 -0.42164708555E+02  0.49701089290E+02  0.67294576779E+02  0.51100000000E-03 0.  1.
         11    1    3    3    0    0  0.16748108532E+02  0.42164708555E+02  0.33790757734E+02  0.56570107791E+02  0.51100000000E-03 0. -1.
<mgrwt>
<rscale>  0 0.91496293E+02</rscale>
<asrwt>0</asrwt>
<pdfrwt beam="2">  1        3 0.31056029E-02 0.91496293E+02</pdfrwt>
<pdfrwt beam="1">  1       -3 0.15950502E-01 0.91496293E+02</pdfrwt>
<totfact> 0.32673420E+04</totfact>
</mgrwt>
</event>
<event>
 5    1  0.7431090E-001  0.9113001E+02  0.7818608E-02  0.1300138E+00
         -3   -1    0    0    0  501 -0.00000000000E+00  0.00000000000E+00  0.33083698940E+02  0.33083829654E+02  0.93000000000E-01 0.  1.
          3   -1    0    0  501    0  0.00000000000E+00 -0.00000000000E+00 -0.62754782505E+02  0.62754851416E+02  0.93000000000E-01 0. -1.
         23    2    1    2    0    0  0.00000000000E+00  0.00000000000E+00 -0.29671083564E+02  0.95838681070E+02  0.91130014755E+02 0.  0.
        -11    1    3    3    0    0 -0.38942274632E+02  0.22892465387E+02 -0.85603091076E+01  0.45976565958E+02  0.51100000000E-03 0.  1.
         11    1    3    3    0    0  0.38942274632E+02 -0.22892465387E+02 -0.21110774457E+02  0.49862115112E+02  0.51100000000E-03 0. -1.
<mgrwt>
<rscale>  0 0.91130015E+02</rscale>
<asrwt>0</asrwt>
<pdfrwt beam="2">  1        3 0.96545973E-02 0.91130015E+02</pdfrwt>
<pdfrwt beam="1">  1       -3 0.50898152E-02 0.91130015E+02</pdfrwt>
<totfact> 0.35031723E+04</totfact>
</mgrwt>
</event>
<event>
 5    1  0.7431090E-001  0.9144028E+02  0.7818608E-02  0.1299401E+00
          3   -1    0    0  501    0  0.00000000000E+00  0.00000000000E+00  0.89696141243E+02  0.89696189456E+02  0.93000000000E-01 0. -1.
         -3   -1    0    0    0  501 -0.00000000000E+00 -0.00000000000E+00 -0.23304434792E+02  0.23304620356E+02  0.93000000000E-01 0.  1.
         23    2    1    2    0    0  0.00000000000E+00  0.00000000000E+00  0.66391706451E+02  0.11300080981E+03  0.91440277409E+02 0.  0.
        -11    1    3    3    0    0 -0.24813859120E+02 -0.22264214537E+02 -0.54688793460E+01  0.33783598016E+02  0.51100000000E-03 0.  1.
         11    1    3    3    0    0  0.24813859120E+02  0.22264214537E+02  0.71860585797E+02  0.79217211796E+02  0.51100000000E-03 0. -1.
<mgrwt>
<rscale>  0 0.91440277E+02</rscale>
<asrwt>0</asrwt>
<pdfrwt beam="1">  1        3 0.13799424E-01 0.91440277E+02</pdfrwt>
<pdfrwt beam="2">  1       -3 0.35853157E-02 0.91440277E+02</pdfrwt>
<totfact> 0.33468093E+04</totfact>
</mgrwt>
</event>
<event>
 5    1  0.7431090E-001  0.7829242E+02  0.7818608E-02  0.1333968E+00
         -3   -1    0    0    0  501 -0.00000000000E+00  0.00000000000E+00  0.99846888270E+01  0.99851219307E+01  0.93000000000E-01 0.  1.
          3   -1    0    0  501    0  0.00000000000E+00 -0.00000000000E+00 -0.15347378033E+03  0.15347380851E+03  0.93000000000E-01 0. -1.
         23    2    1    2    0    0  0.00000000000E+00  0.00000000000E+00 -0.14348909151E+03  0.16345893044E+03  0.78292417001E+02 0.  0.
        -11    1    3    3    0    0 -0.74367807703E+01 -0.37745061746E+02 -0.56627048546E+02  0.68458878326E+02  0.51100000000E-03 0.  1.
         11    1    3    3    0    0  0.74367807703E+01  0.37745061746E+02 -0.86862042961E+02  0.95000052116E+02  0.51100000000E-03 0. -1.
<mgrwt>
<rscale>  0 0.78292417E+02</rscale>
<asrwt>0</asrwt>
<pdfrwt beam="2">  1        3 0.23611385E-01 0.78292417E+02</pdfrwt>
<pdfrwt beam="1">  1       -3 0.15361416E-02 0.78292417E+02</pdfrwt>
<totfact> 0.45872345E+04</totfact>
</mgrwt>
</event>
<event>
 5    1  0.7431090E-001  0.9090499E+02  0.7818608E-02  0.1300675E+00
          3   -1    0    0  501    0  0.00000000000E+00  0.00000000000E+00  0.78502136525E+02  0.78502191613E+02  0.93000000000E-01 0. -1.
         -3   -1    0    0    0  501 -0.00000000000E+00 -0.00000000000E+00 -0.26316710113E+02  0.26316874438E+02  0.93000000000E-01 0.  1.
         23    2    1    2    0    0  0.00000000000E+00  0.00000000000E+00  0.52185426413E+02  0.10481906605E+03  0.90904993690E+02 0.  0.
        -11    1    3    3    0    0 -0.27030536632E+02 -0.15745661103E+02  0.64114976604E+02  0.71339371874E+02  0.51100000000E-03 0. -1.
         11    1    3    3    0    0  0.27030536632E+02  0.15745661103E+02 -0.11929550191E+02  0.33479694177E+02  0.51100000000E-03 0.  1.
<mgrwt>
<rscale>  0 0.90904994E+02</rscale>
<asrwt>0</asrwt>
<pdfrwt beam="1">  1        3 0.12077268E-01 0.90904994E+02</pdfrwt>
<pdfrwt beam="2">  1       -3 0.40487416E-02 0.90904994E+02</pdfrwt>
<totfact> 0.34597286E+04</totfact>
</mgrwt>
</event>
<event>
 5    1  0.7431090E-001  0.9101205E+02  0.7818608E-02  0.1300419E+00
         -3   -1    0    0    0  501 -0.00000000000E+00  0.00000000000E+00  0.83451958977E+02  0.83452010797E+02  0.93000000000E-01 0.  1.
          3   -1    0    0  501    0  0.00000000000E+00 -0.00000000000E+00 -0.24814109682E+02  0.24814283957E+02  0.93000000000E-01 0. -1.
         23    2    1    2    0    0  0.00000000000E+00  0.00000000000E+00  0.58637849295E+02  0.10826629475E+03  0.91012049806E+02 0.  0.
        -11    1    3    3    0    0 -0.32761965887E+00  0.26762793467E+02  0.73098836368E+02  0.77844680790E+02  0.51100000000E-03 0.  1.
         11    1    3    3    0    0  0.32761965887E+00 -0.26762793467E+02 -0.14460987073E+02  0.30421613964E+02  0.51100000000E-03 0. -1.
<mgrwt>
<rscale>  0 0.91012050E+02</rscale>
<asrwt>0</asrwt>
<pdfrwt beam="2">  1        3 0.38175727E-02 0.91012050E+02</pdfrwt>
<pdfrwt beam="1">  1       -3 0.12838780E-01 0.91012050E+02</pdfrwt>
<totfact> 0.34238625E+04</totfact>
</mgrwt>
</event>
<event>
 5    1  0.7431090E-001  0.9084645E+02  0.7818608E-02  0.1300815E+00
          3   -1    0    0  501    0  0.00000000000E+00  0.00000000000E+00  0.33525289844E+02  0.33525418836E+02  0.93000000000E-01 0. -1.
         -3   -1    0    0    0  501 -0.00000000000E+00 -0.00000000000E+00 -0.61543380656E+02  0.61543450924E+02  0.93000000000E-01 0.  1.
         23    2    1    2    0    0  0.00000000000E+00  0.00000000000E+00 -0.28018090812E+02  0.95068869760E+02  0.90846445085E+02 0.  0.
        -11    1    3    3    0    0 -0.56659661914E+01  0.41874011001E+02 -0.31448956763E+02  0.52674214299E+02  0.51100000000E-03 0.  1.
         11    1    3    3    0    0  0.56659661914E+01 -0.41874011001E+02  0.34308659509E+01  0.42394655461E+02  0.51100000000E-03 0. -1.
<mgrwt>
<rscale>  0 0.90846445E+02</rscale>
<asrwt>0</asrwt>
<pdfrwt beam="1">  1        3 0.51577522E-02 0.90846445E+02</pdfrwt>
<pdfrwt beam="2">  1       -3 0.94682277E-02 0.90846445E+02</pdfrwt>
<totfact> 0.35390014E+04</totfact>
</mgrwt>
</event>
<event>
 5    1  0.7431090E-001  0.9063303E+02  0.7818608E-02  0.1301326E+00
          3   -1    0    0  501    0  0.00000000000E+00  0.00000000000E+00  0.45548863144E+02  0.45548958086E+02  0.93000000000E-01 0. -1.
         -3   -1    0    0    0  501 -0.00000000000E+00 -0.00000000000E+00 -0.45085163701E+02  0.45085259620E+02  0.93000000000E-01 0.  1.
         23    2    1    2    0    0  0.00000000000E+00  0.00000000000E+00  0.46369944255E+00  0.90634217706E+02  0.90633031517E+02 0.  0.
        -11    1    3    3    0    0  0.21318802968E+02  0.19476897749E+02 -0.34693465197E+02  0.45138425244E+02  0.51100000000E-03 0.  1.
         11    1    3    3    0    0 -0.21318802968E+02 -0.19476897749E+02  0.35157164640E+02  0.45495792461E+02  0.51100000000E-03 0. -1.
<mgrwt>
<rscale>  0 0.90633032E+02</rscale>
<asrwt>0</asrwt>
<pdfrwt beam="1">  1        3 0.70075321E-02 0.90633032E+02</pdfrwt>
<pdfrwt beam="2">  1       -3 0.69361937E-02 0.90633032E+02</pdfrwt>
<totfact> 0.35961137E+04</totfact>
</mgrwt>
</event>
<event>
 5    1  0.7431090E-001  0.9232497E+02  0.7818608E-02  0.1297317E+00
          3   -1    0    0  501    0  0.00000000000E+00  0.00000000000E+00  0.46166390340E+01  0.46175756594E+01  0.93000000000E-01 0. -1.
         -3   -1    0    0    0  501 -0.00000000000E+00 -0.00000000000E+00 -0.46153808029E+03  0.46153808966E+03  0.93000000000E-01 0.  1.
         23    2    1    2    0    0  0.00000000000E+00  0.00000000000E+00 -0.45692144126E+03  0.46615566532E+03  0.92324974030E+02 0.  0.
        -11    1    3    3    0    0 -0.31525582400E+02 -0.33295895534E+02 -0.20150783531E+03  0.20665886552E+03  0.51100000000E-03 0.  1.
         11    1    3    3    0    0  0.31525582400E+02  0.33295895534E+02 -0.25541360595E+03  0.25949679981E+03  0.51100000000E-03 0. -1.
<mgrwt>
<rscale>  0 0.92324974E+02</rscale>
<asrwt>0</asrwt>
<pdfrwt beam="1">  1        3 0.71032529E-03 0.92324974E+02</pdfrwt>
<pdfrwt beam="2">  1       -3 0.71005895E-01 0.92324974E+02</pdfrwt>
<totfact> 0.18125151E+04</totfact>
</mgrwt>
</event>
<event>
 5    1  0.7431090E-001  0.9128739E+02  0.7818608E-02  0.1299764E+00
          3   -1    0    0  501    0  0.00000000000E+00  0.00000000000E+00  0.82480927348E+02  0.82480979778E+02  0.93000000000E-01 0. -1.
         -3   -1    0    0    0  501 -0.00000000000E+00 -0.00000000000E+00 -0.25258385233E+02  0.25258556443E+02  0.93000000000E-01 0.  1.
         23    2    1    2    0    0  0.00000000000E+00  0.00000000000E+00  0.57222542114E+02  0.10773953622E+03  0.91287394196E+02 0.  0.
        -11    1    3    3    0    0 -0.38238756980E+01  0.44297427862E+02  0.40788922162E+02  0.60337553082E+02  0.51100000000E-03 0. -1.
         11    1    3    3    0    0  0.38238756980E+01 -0.44297427862E+02  0.16433619953E+02  0.47401983139E+02  0.51100000000E-03 0.  1.
<mgrwt>
<rscale>  0 0.91287394E+02</rscale>
<asrwt>0</asrwt>
<pdfrwt beam="1">  1        3 0.12689391E-01 0.91287394E+02</pdfrwt>
<pdfrwt beam="2">  1       -3 0.38859225E-02 0.91287394E+02</pdfrwt>
<totfact> 0.33994134E+04</totfact>
</mgrwt>
</event>
<event>
 5    1  0.7431090E-001  0.9248204E+02  0.7818608E-02  0.1296950E+00
         -3   -1    0    0    0  501 -0.00000000000E+00  0.00000000000E+00  0.33983497414E+02  0.33983624666E+02  0.93000000000E-01 0.  1.
          3   -1    0    0  501    0  0.00000000000E+00 -0.00000000000E+00 -0.62919435665E+02  0.62919504396E+02  0.93000000000E-01 0. -1.
         23    2    1    2    0    0  0.00000000000E+00  0.00000000000E+00 -0.28935938252E+02  0.96903129063E+02  0.92482040957E+02 0.  0.
        -11    1    3    3    0    0  0.18584269609E+02 -0.18218076886E+02  0.25581738130E+02  0.36492447552E+02  0.51100000000E-03 0.  1.
         11    1    3    3    0    0 -0.18584269609E+02  0.18218076886E+02 -0.54517676381E+02  0.60410681511E+02  0.51100000000E-03 0. -1.
<mgrwt>
<rscale>  0 0.92482041E+02</rscale>
<asrwt>0</asrwt>
<pdfrwt beam="2">  1        3 0.96799282E-02 0.92482041E+02</pdfrwt>
<pdfrwt beam="1">  1       -3 0.52282455E-02 0.92482041E+02</pdfrwt>
<totfact> 0.33574386E+04</totfact>
</mgrwt>
</event>
<event>
 5    1  0.7431090E-001  0.9219851E+02  0.7818608E-02  0.1297613E+00
         -3   -1    0    0    0  501 -0.00000000000E+00  0.00000000000E+00  0.13473223432E+02  0.13473544398E+02  0.93000000000E-01 0.  1.
          3   -1    0    0  501    0  0.00000000000E+00 -0.00000000000E+00 -0.15772851162E+03  0.15772853904E+03  0.93000000000E-01 0. -1.
         23    2    1    2    0    0  0.00000000000E+00  0.00000000000E+00 -0.14425528819E+03  0.17120208344E+03  0.92198509763E+02 0.  0.
        -11    1    3    3    0    0 -0.37541927525E+02 -0.20427761458E+02 -0.40048552905E+02  0.58571122155E+02  0.51100000000E-03 0.  1.
         11    1    3    3    0    0  0.37541927525E+02  0.20427761458E+02 -0.10420673528E+03  0.11263096128E+03  0.51100000000E-03 0. -1.
<mgrwt>
<rscale>  0 0.92198510E+02</rscale>
<asrwt>0</asrwt>
<pdfrwt beam="2">  1        3 0.24265950E-01 0.92198510E+02</pdfrwt>
<pdfrwt beam="1">  1       -3 0.20728305E-02 0.92198510E+02</pdfrwt>
<totfact> 0.29164212E+04</totfact>
</mgrwt>
</event>
<event>
 5    1  0.7431090E-001  0.9268327E+02  0.7818608E-02  0.1296481E+00
         -3   -1    0    0    0  501 -0.00000000000E+00  0.00000000000E+00  0.81487397994E+02  0.81487451063E+02  0.93000000000E-01 0.  1.
          3   -1    0    0  501    0  0.00000000000E+00 -0.00000000000E+00 -0.26354200190E+02  0.26354364281E+02  0.93000000000E-01 0. -1.
         23    2    1    2    0    0  0.00000000000E+00  0.00000000000E+00  0.55133197804E+02  0.10784181534E+03  0.92683265138E+02 0.  0.
        -11    1    3    3    0    0 -0.11954393191E+02  0.44352991190E+02  0.34687268728E+02  0.57561288694E+02  0.51100000000E-03 0.  1.
         11    1    3    3    0    0  0.11954393191E+02 -0.44352991190E+02  0.20445929076E+02  0.50280526650E+02  0.51100000000E-03 0. -1.
<mgrwt>
<rscale>  0 0.92683265E+02</rscale>
<asrwt>0</asrwt>
<pdfrwt beam="2">  1        3 0.40545091E-02 0.92683265E+02</pdfrwt>
<pdfrwt beam="1">  1       -3 0.12536539E-01 0.92683265E+02</pdfrwt>
<totfact> 0.32610892E+04</totfact>
</mgrwt>
</event>
<event>
 5    1  0.7431090E-001  0.8973088E+02  0.7818608E-02  0.1303505E+00
         -3   -1    0    0    0  501 -0.00000000000E+00  0.00000000000E+00  0.90005437086E+01  0.90010241667E+01  0.93000000000E-01 0.  1.
          3   -1    0    0  501    0  0.00000000000E+00 -0.00000000000E+00 -0.22363643744E+03  0.22363645678E+03  0.93000000000E-01 0. -1.
         23    2    1    2    0    0  0.00000000000E+00  0.00000000000E+00 -0.21463589373E+03  0.23263748095E+03  0.89730879089E+02 0.  0.
        -11    1    3    3    0    0 -0.19966779705E+02  0.27268355089E+02 -0.18381859226E+03  0.18689973339E+03  0.51100000000E-03 0. -1.
         11    1    3    3    0    0  0.19966779705E+02 -0.27268355089E+02 -0.30817301474E+02  0.45737747555E+02  0.51100000000E-03 0.  1.
<mgrwt>
<rscale>  0 0.89730879E+02</rscale>
<asrwt>0</asrwt>
<pdfrwt beam="2">  1        3 0.34405640E-01 0.89730879E+02</pdfrwt>
<pdfrwt beam="1">  1       -3 0.13847376E-02 0.89730879E+02</pdfrwt>
<totfact> 0.28075135E+04</totfact>
</mgrwt>
</event>
<event>
 5    1  0.7431090E-001  0.9115166E+02  0.7818608E-02  0.1300087E+00
          3   -1    0    0  501    0  0.00000000000E+00  0.00000000000E+00  0.92260682906E+01  0.92265370049E+01  0.93000000000E-01 0. -1.
         -3   -1    0    0    0  501 -0.00000000000E+00 -0.00000000000E+00 -0.22513371906E+03  0.22513373827E+03  0.93000000000E-01 0.  1.
         23    2    1    2    0    0  0.00000000000E+00  0.00000000000E+00 -0.21590765077E+03  0.23436027527E+03  0.91151659148E+02 0.  0.
        -11    1    3    3    0    0 -0.29383389096E+02 -0.34823436955E+02 -0.11065155416E+03  0.11966545765E+03  0.51100000000E-03 0. -1.
         11    1    3    3    0    0  0.29383389096E+02  0.34823436955E+02 -0.10525609661E+03  0.11469481763E+03  0.51100000000E-03 0.  1.
<mgrwt>
<rscale>  0 0.91151659E+02</rscale>
<asrwt>0</asrwt>
<pdfrwt beam="1">  1        3 0.14194328E-02 0.91151659E+02</pdfrwt>
<pdfrwt beam="2">  1       -3 0.34635990E-01 0.91151659E+02</pdfrwt>
<totfact> 0.26831120E+04</totfact>
</mgrwt>
</event>
<event>
 5    1  0.7431090E-001  0.9694695E+02  0.7818608E-02  0.1286850E+00
         -3   -1    0    0    0  501 -0.00000000000E+00  0.00000000000E+00  0.68521055007E+02  0.68521118119E+02  0.93000000000E-01 0.  1.
          3   -1    0    0  501    0  0.00000000000E+00 -0.00000000000E+00 -0.34291183451E+02  0.34291309562E+02  0.93000000000E-01 0. -1.
         23    2    1    2    0    0  0.00000000000E+00  0.00000000000E+00  0.34229871556E+02  0.10281242768E+03  0.96946950333E+02 0.  0.
        -11    1    3    3    0    0 -0.43926825232E+02 -0.18900345978E+02  0.25524972919E+02  0.54206210860E+02  0.51100000000E-03 0.  1.
         11    1    3    3    0    0  0.43926825232E+02  0.18900345978E+02  0.87048986372E+01  0.48606216820E+02  0.51100000000E-03 0. -1.
<mgrwt>
<rscale>  0 0.96946950E+02</rscale>
<asrwt>0</asrwt>
<pdfrwt beam="2">  1        3 0.52755813E-02 0.96946950E+02</pdfrwt>
<pdfrwt beam="1">  1       -3 0.10541715E-01 0.96946950E+02</pdfrwt>
<totfact> 0.29140677E+04</totfact>
</mgrwt>
</event>
<event>
 5    1  0.7431090E-001  0.9175748E+02  0.7818608E-02  0.1298651E+00
          3   -1    0    0  501    0  0.00000000000E+00  0.00000000000E+00  0.30763664419E+02  0.30763804991E+02  0.93000000000E-01 0. -1.
         -3   -1    0    0    0  501 -0.00000000000E+00 -0.00000000000E+00 -0.68419952623E+02  0.68420015829E+02  0.93000000000E-01 0.  1.
         23    2    1    2    0    0  0.00000000000E+00  0.00000000000E+00 -0.37656288204E+02  0.99183820819E+02  0.91757475287E+02 0.  0.
        -11    1    3    3    0    0 -0.17632824945E+02  0.33832035734E+02  0.87162943228E+01  0.39134344819E+02  0.51100000000E-03 0. -1.
         11    1    3    3    0    0  0.17632824945E+02 -0.33832035734E+02 -0.46372582527E+02  0.60049476000E+02  0.51100000000E-03 0.  1.
<mgrwt>
<rscale>  0 0.91757475E+02</rscale>
<asrwt>0</asrwt>
<pdfrwt beam="1">  1        3 0.47328871E-02 0.91757475E+02</pdfrwt>
<pdfrwt beam="2">  1       -3 0.10526162E-01 0.91757475E+02</pdfrwt>
<totfact> 0.34136618E+04</totfact>
</mgrwt>
</event>
<event>
 5    1  0.7431090E-001  0.9247252E+02  0.7818608E-02  0.1296972E+00
          3   -1    0    0  501    0  0.00000000000E+00  0.00000000000E+00  0.12266039970E+03  0.12266043496E+03  0.93000000000E-01 0. -1.
         -3   -1    0    0    0  501 -0.00000000000E+00 -0.00000000000E+00 -0.17428379910E+02  0.17428628038E+02  0.93000000000E-01 0.  1.
         23    2    1    2    0    0  0.00000000000E+00  0.00000000000E+00  0.10523201979E+03  0.14008906300E+03  0.92472523389E+02 0.  0.
        -11    1    3    3    0    0  0.34165012475E+01 -0.24752286833E+02 -0.63191760567E+01  0.25773633243E+02  0.51100000000E-03 0.  1.
         11    1    3    3    0    0 -0.34165012475E+01  0.24752286833E+02  0.11155119585E+03  0.11431542975E+03  0.51100000000E-03 0. -1.
<mgrwt>
<rscale>  0 0.92472523E+02</rscale>
<asrwt>0</asrwt>
<pdfrwt beam="1">  1        3 0.18870853E-01 0.92472523E+02</pdfrwt>
<pdfrwt beam="2">  1       -3 0.26813110E-02 0.92472523E+02</pdfrwt>
<totfact> 0.30723905E+04</totfact>
</mgrwt>
</event>
<event>
 5    1  0.7431090E-001  0.8970228E+02  0.7818608E-02  0.1303574E+00
         -3   -1    0    0    0  501 -0.00000000000E+00  0.00000000000E+00  0.11717435017E+03  0.11717438708E+03  0.93000000000E-01 0.  1.
          3   -1    0    0  501    0  0.00000000000E+00 -0.00000000000E+00 -0.17167626644E+02  0.17167878540E+02  0.93000000000E-01 0. -1.
         23    2    1    2    0    0  0.00000000000E+00  0.00000000000E+00  0.10000672353E+03  0.13434226562E+03  0.89702283031E+02 0.  0.
        -11    1    3    3    0    0 -0.24873539385E+02  0.29553677043E+01 -0.57162701570E+01  0.25692467856E+02  0.51100000000E-03 0. -1.
         11    1    3    3    0    0  0.24873539385E+02 -0.29553677043E+01  0.10572299369E+03  0.10864979776E+03  0.51100000000E-03 0.  1.
<mgrwt>
<rscale>  0 0.89702283E+02</rscale>
<asrwt>0</asrwt>
<pdfrwt beam="2">  1        3 0.26411955E-02 0.89702283E+02</pdfrwt>
<pdfrwt beam="1">  1       -3 0.18026845E-01 0.89702283E+02</pdfrwt>
<totfact> 0.33750495E+04</totfact>
</mgrwt>
</event>
<event>
 5    1  0.7431090E-001  0.9234423E+02  0.7818608E-02  0.1297272E+00
         -3   -1    0    0    0  501 -0.00000000000E+00  0.00000000000E+00  0.20644551923E+03  0.20644554018E+03  0.93000000000E-01 0. -1.
          3   -1    0    0  501    0  0.00000000000E+00 -0.00000000000E+00 -0.10326292039E+02  0.10326710816E+02  0.93000000000E-01 0.  1.
         23    2    1    2    0    0  0.00000000000E+00  0.00000000000E+00  0.19611922719E+03  0.21677225100E+03  0.92344233858E+02 0.  0.
        -11    1    3    3    0    0 -0.39155412486E+02 -0.24307767281E+02  0.10463683834E+03  0.11433670371E+03  0.51100000000E-03 0. -1.
         11    1    3    3    0    0  0.39155412486E+02  0.24307767281E+02  0.91482388852E+02  0.10243554728E+03  0.51100000000E-03 0.  1.
<mgrwt>
<rscale>  0 0.92344234E+02</rscale>
<asrwt>0</asrwt>
<pdfrwt beam="2">  1        3 0.15886943E-02 0.92344234E+02</pdfrwt>
<pdfrwt beam="1">  1       -3 0.31760880E-01 0.92344234E+02</pdfrwt>
<totfact> 0.26717750E+04</totfact>
</mgrwt>
</event>
<event>
 5    1  0.7431090E-001  0.9099040E+02  0.7818608E-02  0.1300471E+00
          3   -1    0    0  501    0  0.00000000000E+00  0.00000000000E+00  0.23833588535E+02  0.23833769980E+02  0.93000000000E-01 0. -1.
         -3   -1    0    0    0  501 -0.00000000000E+00 -0.00000000000E+00 -0.86843850202E+02  0.86843899998E+02  0.93000000000E-01 0.  1.
         23    2    1    2    0    0  0.00000000000E+00  0.00000000000E+00 -0.63010261667E+02  0.11067766998E+03  0.90990403650E+02 0.  0.
        -11    1    3    3    0    0  0.33829303508E+02 -0.24195668696E+02 -0.53932540264E+02  0.68107055868E+02  0.51100000000E-03 0.  1.
         11    1    3    3    0    0 -0.33829303508E+02  0.24195668696E+02 -0.90777214035E+01  0.42570614109E+02  0.51100000000E-03 0. -1.
<mgrwt>
<rscale>  0 0.90990404E+02</rscale>
<asrwt>0</asrwt>
<pdfrwt beam="1">  1        3 0.36667238E-02 0.90990404E+02</pdfrwt>
<pdfrwt beam="2">  1       -3 0.13360610E-01 0.90990404E+02</pdfrwt>
<totfact> 0.34087427E+04</totfact>
</mgrwt>
</event>
<event>
 5    1  0.7431090E-001  0.9173204E+02  0.7818608E-02  0.1298711E+00
          3   -1    0    0  501    0  0.00000000000E+00  0.00000000000E+00  0.21324594420E+03  0.21324596448E+03  0.93000000000E-01 0. -1.
         -3   -1    0    0    0  501 -0.00000000000E+00 -0.00000000000E+00 -0.98648573713E+01  0.98652957359E+01  0.93000000000E-01 0.  1.
         23    2    1    2    0    0  0.00000000000E+00  0.00000000000E+00  0.20338108683E+03  0.22311126022E+03  0.91732044322E+02 0.  0.
        -11    1    3    3    0    0  0.35898737453E+02 -0.27897113190E+02  0.11642973665E+03  0.12499140711E+03  0.51100000000E-03 0.  1.
         11    1    3    3    0    0 -0.35898737453E+02  0.27897113190E+02  0.86951350184E+02  0.98119853109E+02  0.51100000000E-03 0. -1.
<mgrwt>
<rscale>  0 0.91732044E+02</rscale>
<asrwt>0</asrwt>
<pdfrwt beam="1">  1        3 0.32807102E-01 0.91732044E+02</pdfrwt>
<pdfrwt beam="2">  1       -3 0.15177057E-02 0.91732044E+02</pdfrwt>
<totfact> 0.26901829E+04</totfact>
</mgrwt>
</event>
<event>
 5    1  0.7431090E-001  0.9170715E+02  0.7818608E-02  0.1298769E+00
          3   -1    0    0  501    0  0.00000000000E+00  0.00000000000E+00  0.37080001283E+02  0.37080117909E+02  0.93000000000E-01 0. -1.
         -3   -1    0    0    0  501 -0.00000000000E+00 -0.00000000000E+00 -0.56702843545E+02  0.56702919811E+02  0.93000000000E-01 0.  1.
         23    2    1    2    0    0  0.00000000000E+00  0.00000000000E+00 -0.19622842262E+02  0.93783037720E+02  0.91707154713E+02 0.  0.
        -11    1    3    3    0    0  0.11368470193E+02  0.41868562368E+02  0.53681601747E+01  0.43715395151E+02  0.51100000000E-03 0. -1.
         11    1    3    3    0    0 -0.11368470193E+02 -0.41868562368E+02 -0.24991002437E+02  0.50067642569E+02  0.51100000000E-03 0.  1.
<mgrwt>
<rscale>  0 0.91707155E+02</rscale>
<asrwt>0</asrwt>
<pdfrwt beam="1">  1        3 0.57046304E-02 0.91707155E+02</pdfrwt>
<pdfrwt beam="2">  1       -3 0.87235292E-02 0.91707155E+02</pdfrwt>
<totfact> 0.34588263E+04</totfact>
</mgrwt>
</event>
<event>
 5    1  0.7431090E-001  0.9143228E+02  0.7818608E-02  0.1299420E+00
         -3   -1    0    0    0  501 -0.00000000000E+00  0.00000000000E+00  0.85051098415E+02  0.85051149260E+02  0.93000000000E-01 0.  1.
          3   -1    0    0  501    0  0.00000000000E+00 -0.00000000000E+00 -0.24572907917E+02  0.24573083903E+02  0.93000000000E-01 0. -1.
         23    2    1    2    0    0  0.00000000000E+00  0.00000000000E+00  0.60478190498E+02  0.10962423316E+03  0.91432275323E+02 0.  0.
        -11    1    3    3    0    0 -0.43827936551E+02  0.11366484530E+02  0.22667524683E+02  0.50634984630E+02  0.51100000000E-03 0. -1.
         11    1    3    3    0    0  0.43827936551E+02 -0.11366484530E+02  0.37810665815E+02  0.58989248533E+02  0.51100000000E-03 0.  1.
<mgrwt>
<rscale>  0 0.91432275E+02</rscale>
<asrwt>0</asrwt>
<pdfrwt beam="2">  1        3 0.37804648E-02 0.91432275E+02</pdfrwt>
<pdfrwt beam="1">  1       -3 0.13084802E-01 0.91432275E+02</pdfrwt>
<totfact> 0.33715372E+04</totfact>
</mgrwt>
</event>
<event>
 5    1  0.7431090E-001  0.9152417E+02  0.7818608E-02  0.1299202E+00
         -3   -1    0    0    0  501 -0.00000000000E+00  0.00000000000E+00  0.70468886111E+01  0.70475022595E+01  0.93000000000E-01 0.  1.
          3   -1    0    0  501    0  0.00000000000E+00 -0.00000000000E+00 -0.29716277428E+03  0.29716278883E+03  0.93000000000E-01 0. -1.
         23    2    1    2    0    0  0.00000000000E+00  0.00000000000E+00 -0.29011588567E+03  0.30421029109E+03  0.91524172156E+02 0.  0.
        -11    1    3    3    0    0 -0.19001572446E+02  0.37850990760E+02 -0.87448165140E+02  0.97164493738E+02  0.51100000000E-03 0.  1.
         11    1    3    3    0    0  0.19001572446E+02 -0.37850990760E+02 -0.20266772053E+03  0.20704579735E+03  0.51100000000E-03 0. -1.
<mgrwt>
<rscale>  0 0.91524172E+02</rscale>
<asrwt>0</asrwt>
<pdfrwt beam="2">  1        3 0.45717389E-01 0.91524172E+02</pdfrwt>
<pdfrwt beam="1">  1       -3 0.10841853E-02 0.91524172E+02</pdfrwt>
<totfact> 0.23626560E+04</totfact>
</mgrwt>
</event>
<event>
 5    1  0.7431090E-001  0.1004429E+03  0.7818608E-02  0.1279367E+00
         -3   -1    0    0    0  501 -0.00000000000E+00  0.00000000000E+00  0.13117984174E+03  0.13117987471E+03  0.93000000000E-01 0.  1.
          3   -1    0    0  501    0  0.00000000000E+00 -0.00000000000E+00 -0.19226831981E+02  0.19227056900E+02  0.93000000000E-01 0. -1.
         23    2    1    2    0    0  0.00000000000E+00  0.00000000000E+00  0.11195300976E+03  0.15040693161E+03  0.10044286277E+03 0.  0.
        -11    1    3    3    0    0  0.23065907042E+02 -0.27045553310E+02  0.10910271992E+03  0.11474711986E+03  0.51100000000E-03 0.  1.
         11    1    3    3    0    0 -0.23065907042E+02  0.27045553310E+02  0.28502898391E+01  0.35659811749E+02  0.51100000000E-03 0. -1.
<mgrwt>
<rscale>  0 0.10044286E+03</rscale>
<asrwt>0</asrwt>
<pdfrwt beam="2">  1        3 0.29579939E-02 0.10044286E+03</pdfrwt>
<pdfrwt beam="1">  1       -3 0.20181535E-01 0.10044286E+03</pdfrwt>
<totfact> 0.24027482E+04</totfact>
</mgrwt>
</event>
<event>
 5    1  0.7431090E-001  0.9233040E+02  0.7818608E-02  0.1297304E+00
         -3   -1    0    0    0  501 -0.00000000000E+00  0.00000000000E+00  0.46335513096E+02  0.46335606426E+02  0.93000000000E-01 0.  1.
          3   -1    0    0  501    0  0.00000000000E+00 -0.00000000000E+00 -0.45995331141E+02  0.45995425161E+02  0.93000000000E-01 0. -1.
         23    2    1    2    0    0  0.00000000000E+00  0.00000000000E+00  0.34018195580E+00  0.92331031587E+02  0.92330404907E+02 0.  0.
        -11    1    3    3    0    0  0.32573544395E+02  0.32486101139E+02  0.40228246990E+01  0.46179710702E+02  0.51100000000E-03 0. -1.
         11    1    3    3    0    0 -0.32573544395E+02 -0.32486101139E+02 -0.36826427432E+01  0.46151320886E+02  0.51100000000E-03 0.  1.
<mgrwt>
<rscale>  0 0.92330405E+02</rscale>
<asrwt>0</asrwt>
<pdfrwt beam="2">  1        3 0.70762192E-02 0.92330405E+02</pdfrwt>
<pdfrwt beam="1">  1       -3 0.71285549E-02 0.92330405E+02</pdfrwt>
<totfact> 0.34060132E+04</totfact>
</mgrwt>
</event>
<event>
 5    1  0.7431090E-001  0.8996797E+02  0.7818608E-02  0.1302929E+00
         -3   -1    0    0    0  501 -0.00000000000E+00  0.00000000000E+00  0.11725699451E+02  0.11726068251E+02  0.93000000000E-01 0.  1.
          3   -1    0    0  501    0  0.00000000000E+00 -0.00000000000E+00 -0.17257159197E+03  0.17257161703E+03  0.93000000000E-01 0. -1.
         23    2    1    2    0    0  0.00000000000E+00  0.00000000000E+00 -0.16084589252E+03  0.18429768528E+03  0.89967970186E+02 0.  0.
        -11    1    3    3    0    0 -0.38990936938E+02 -0.22307931024E+02 -0.75565857775E+02  0.87909816354E+02  0.51100000000E-03 0. -1.
         11    1    3    3    0    0  0.38990936938E+02  0.22307931024E+02 -0.85280034746E+02  0.96387868928E+02  0.51100000000E-03 0.  1.
<mgrwt>
<rscale>  0 0.89967970E+02</rscale>
<asrwt>0</asrwt>
<pdfrwt beam="2">  1        3 0.26549504E-01 0.89967970E+02</pdfrwt>
<pdfrwt beam="1">  1       -3 0.18039842E-02 0.89967970E+02</pdfrwt>
<totfact> 0.30405299E+04</totfact>
</mgrwt>
</event>
<event>
 5    1  0.7431090E-001  0.9040335E+02  0.7818608E-02  0.1301878E+00
          3   -1    0    0  501    0  0.00000000000E+00  0.00000000000E+00  0.71284605611E+02  0.71284666276E+02  0.93000000000E-01 0. -1.
         -3   -1    0    0    0  501 -0.00000000000E+00 -0.00000000000E+00 -0.28662299417E+02  0.28662450294E+02  0.93000000000E-01 0.  1.
         23    2    1    2    0    0  0.00000000000E+00  0.00000000000E+00  0.42622306194E+02  0.99947116570E+02  0.90403346870E+02 0.  0.
        -11    1    3    3    0    0 -0.19409879184E+02  0.19914309964E+02  0.60708327254E+02  0.66774427362E+02  0.51100000000E-03 0. -1.
         11    1    3    3    0    0  0.19409879184E+02 -0.19914309964E+02 -0.18086021060E+02  0.33172689208E+02  0.51100000000E-03 0.  1.
<mgrwt>
<rscale>  0 0.90403347E+02</rscale>
<asrwt>0</asrwt>
<pdfrwt beam="1">  1        3 0.10966879E-01 0.90403347E+02</pdfrwt>
<pdfrwt beam="2">  1       -3 0.44096009E-02 0.90403347E+02</pdfrwt>
<totfact> 0.35487125E+04</totfact>
</mgrwt>
</event>
<event>
 5    1  0.7431090E-001  0.9896817E+02  0.7818608E-02  0.1282481E+00
         -3   -1    0    0    0  501 -0.00000000000E+00  0.00000000000E+00  0.95447086209E+02  0.95447131517E+02  0.93000000000E-01 0.  1.
          3   -1    0    0  501    0  0.00000000000E+00 -0.00000000000E+00 -0.25654651361E+02  0.25654819927E+02  0.93000000000E-01 0. -1.
         23    2    1    2    0    0  0.00000000000E+00  0.00000000000E+00  0.69792434848E+02  0.12110195144E+03  0.98968170042E+02 0.  0.
        -11    1    3    3    0    0  0.24227018302E+01  0.15945650410E+02  0.92140614623E+02  0.93541574257E+02  0.51100000000E-03 0.  1.
         11    1    3    3    0    0 -0.24227018302E+01 -0.15945650410E+02 -0.22348179775E+02  0.27560377187E+02  0.51100000000E-03 0. -1.
<mgrwt>
<rscale>  0 0.98968170E+02</rscale>
<asrwt>0</asrwt>
<pdfrwt beam="2">  1        3 0.39468859E-02 0.98968170E+02</pdfrwt>
<pdfrwt beam="1">  1       -3 0.14684183E-01 0.98968170E+02</pdfrwt>
<totfact> 0.26515024E+04</totfact>
</mgrwt>
</event>
<event>
 5    1  0.7431090E-001  0.9181519E+02  0.7818608E-02  0.1298515E+00
          3   -1    0    0  501    0  0.00000000000E+00  0.00000000000E+00  0.22164371075E+02  0.22164566185E+02  0.93000000000E-01 0. -1.
         -3   -1    0    0    0  501 -0.00000000000E+00 -0.00000000000E+00 -0.95084724997E+02  0.95084770478E+02  0.93000000000E-01 0.  1.
         23    2    1    2    0    0  0.00000000000E+00  0.00000000000E+00 -0.72920353922E+02  0.11724933666E+03  0.91815189003E+02 0.  0.
        -11    1    3    3    0    0  0.28902290492E+02 -0.27672277279E+02 -0.65197542916E+02  0.76497169412E+02  0.51100000000E-03 0.  1.
         11    1    3    3    0    0 -0.28902290492E+02  0.27672277279E+02 -0.77228110058E+01  0.40752167250E+02  0.51100000000E-03 0. -1.
<mgrwt>
<rscale>  0 0.91815189E+02</rscale>
<asrwt>0</asrwt>
<pdfrwt beam="1">  1        3 0.34099218E-02 0.91815189E+02</pdfrwt>
<pdfrwt beam="2">  1       -3 0.14628438E-01 0.91815189E+02</pdfrwt>
<totfact> 0.32808144E+04</totfact>
</mgrwt>
</event>
<event>
 5    1  0.7431090E-001  0.9149521E+02  0.7818608E-02  0.1299271E+00
          3   -1    0    0  501    0  0.00000000000E+00  0.00000000000E+00  0.32366886401E+02  0.32367020009E+02  0.93000000000E-01 0. -1.
         -3   -1    0    0    0  501 -0.00000000000E+00 -0.00000000000E+00 -0.64659712485E+02  0.64659779366E+02  0.93000000000E-01 0.  1.
         23    2    1    2    0    0  0.00000000000E+00  0.00000000000E+00 -0.32292826085E+02  0.97026799375E+02  0.91495208511E+02 0.  0.
        -11    1    3    3    0    0 -0.27893827750E+02  0.50831812104E+01 -0.54218749166E+02  0.61184778492E+02  0.51100000000E-03 0.  1.
         11    1    3    3    0    0  0.27893827750E+02 -0.50831812104E+01  0.21925923081E+02  0.35842020883E+02  0.51100000000E-03 0. -1.
<mgrwt>
<rscale>  0 0.91495209E+02</rscale>
<asrwt>0</asrwt>
<pdfrwt beam="1">  1        3 0.49795364E-02 0.91495209E+02</pdfrwt>
<pdfrwt beam="2">  1       -3 0.99476635E-02 0.91495209E+02</pdfrwt>
<totfact> 0.34563914E+04</totfact>
</mgrwt>
</event>
<event>
 5    1  0.7431090E-001  0.8849138E+02  0.7818608E-02  0.1306547E+00
         -3   -1    0    0    0  501 -0.00000000000E+00  0.00000000000E+00  0.39690856613E+02  0.39690965568E+02  0.93000000000E-01 0.  1.
          3   -1    0    0  501    0  0.00000000000E+00 -0.00000000000E+00 -0.49323009864E+02  0.49323097541E+02  0.93000000000E-01 0. -1.
         23    2    1    2    0    0  0.00000000000E+00  0.00000000000E+00 -0.96321532505E+01  0.89014063109E+02  0.88491384071E+02 0.  0.
        -11    1    3    3    0    0  0.18879952550E+02  0.33118884665E+02  0.17774715390E+02  0.42062496802E+02  0.51100000000E-03 0. -1.
         11    1    3    3    0    0 -0.18879952550E+02 -0.33118884665E+02 -0.27406868640E+02  0.46951566307E+02  0.51100000000E-03 0.  1.
<mgrwt>
<rscale>  0 0.88491384E+02</rscale>
<asrwt>0</asrwt>
<pdfrwt beam="2">  1        3 0.75881704E-02 0.88491384E+02</pdfrwt>
<pdfrwt beam="1">  1       -3 0.61063008E-02 0.88491384E+02</pdfrwt>
<totfact> 0.38509989E+04</totfact>
</mgrwt>
</event>
<event>
 5    1  0.7431090E-001  0.9092459E+02  0.7818608E-02  0.1300628E+00
          3   -1    0    0  501    0  0.00000000000E+00  0.00000000000E+00  0.12836593680E+02  0.12836930564E+02  0.93000000000E-01 0. -1.
         -3   -1    0    0    0  501 -0.00000000000E+00 -0.00000000000E+00 -0.16100756384E+03  0.16100759070E+03  0.93000000000E-01 0.  1.
         23    2    1    2    0    0  0.00000000000E+00  0.00000000000E+00 -0.14817097016E+03  0.17384452126E+03  0.90924590597E+02 0.  0.
        -11    1    3    3    0    0 -0.22593358332E+02  0.16158291053E+02 -0.14289679439E+03  0.14557143971E+03  0.51100000000E-03 0.  1.
         11    1    3    3    0    0  0.22593358332E+02 -0.16158291053E+02 -0.52741757689E+01  0.28273081558E+02  0.51100000000E-03 0. -1.
<mgrwt>
<rscale>  0 0.90924591E+02</rscale>
<asrwt>0</asrwt>
<pdfrwt beam="1">  1        3 0.19748887E-02 0.90924591E+02</pdfrwt>
<pdfrwt beam="2">  1       -3 0.24770421E-01 0.90924591E+02</pdfrwt>
<totfact> 0.30133790E+04</totfact>
</mgrwt>
</event>
<event>
 5    1  0.7431090E-001  0.9326759E+02  0.7818608E-02  0.1295126E+00
          3   -1    0    0  501    0  0.00000000000E+00  0.00000000000E+00  0.27056193403E+02  0.27056353237E+02  0.93000000000E-01 0. -1.
         -3   -1    0    0    0  501 -0.00000000000E+00 -0.00000000000E+00 -0.80377129139E+02  0.80377182942E+02  0.93000000000E-01 0.  1.
         23    2    1    2    0    0  0.00000000000E+00  0.00000000000E+00 -0.53320935736E+02  0.10743353618E+03  0.93267585517E+02 0.  0.
        -11    1    3    3    0    0  0.13337280328E+02 -0.44631494677E+02 -0.24121805452E+02  0.52456790429E+02  0.51100000000E-03 0.  1.
         11    1    3    3    0    0 -0.13337280328E+02  0.44631494677E+02 -0.29199130283E+02  0.54976745749E+02  0.51100000000E-03 0. -1.
<mgrwt>
<rscale>  0 0.93267586E+02</rscale>
<asrwt>0</asrwt>
<pdfrwt beam="1">  1        3 0.41625078E-02 0.93267586E+02</pdfrwt>
<pdfrwt beam="2">  1       -3 0.12365728E-01 0.93267586E+02</pdfrwt>
<totfact> 0.32083724E+04</totfact>
</mgrwt>
</event>
<event>
 5    1  0.7431090E-001  0.9313957E+02  0.7818608E-02  0.1295422E+00
          3   -1    0    0  501    0  0.00000000000E+00  0.00000000000E+00  0.21038892920E+02  0.21039098466E+02  0.93000000000E-01 0. -1.
         -3   -1    0    0    0  501 -0.00000000000E+00 -0.00000000000E+00 -0.10308191437E+03  0.10308195632E+03  0.93000000000E-01 0.  1.
         23    2    1    2    0    0  0.00000000000E+00  0.00000000000E+00 -0.82043021447E+02  0.12412105479E+03  0.93139566634E+02 0.  0.
        -11    1    3    3    0    0  0.38948576113E+02  0.13939698817E+02 -0.12519379662E+02  0.43220847420E+02  0.51100000000E-03 0. -1.
         11    1    3    3    0    0 -0.38948576113E+02 -0.13939698817E+02 -0.69523641785E+02  0.80900207365E+02  0.51100000000E-03 0.  1.
<mgrwt>
<rscale>  0 0.93139567E+02</rscale>
<asrwt>0</asrwt>
<pdfrwt beam="1">  1        3 0.32367719E-02 0.93139567E+02</pdfrwt>
<pdfrwt beam="2">  1       -3 0.15858775E-01 0.93139567E+02</pdfrwt>
<totfact> 0.31111161E+04</totfact>
</mgrwt>
</event>
<event>
 5    1  0.7431090E-001  0.9090266E+02  0.7818608E-02  0.1300680E+00
         -3   -1    0    0    0  501 -0.00000000000E+00  0.00000000000E+00  0.42818117344E+02  0.42818218341E+02  0.93000000000E-01 0.  1.
          3   -1    0    0  501    0  0.00000000000E+00 -0.00000000000E+00 -0.48246281522E+02  0.48246371156E+02  0.93000000000E-01 0. -1.
         23    2    1    2    0    0  0.00000000000E+00  0.00000000000E+00 -0.54281641785E+01  0.91064589497E+02  0.90902664944E+02 0.  0.
        -11    1    3    3    0    0  0.60325150144E+01 -0.30335475965E+02  0.30649766599E+02  0.43543547538E+02  0.51100000000E-03 0.  1.
         11    1    3    3    0    0 -0.60325150144E+01  0.30335475965E+02 -0.36077930777E+02  0.47521041959E+02  0.51100000000E-03 0. -1.
<mgrwt>
<rscale>  0 0.90902665E+02</rscale>
<asrwt>0</asrwt>
<pdfrwt beam="2">  1        3 0.74225196E-02 0.90902665E+02</pdfrwt>
<pdfrwt beam="1">  1       -3 0.65874173E-02 0.90902665E+02</pdfrwt>
<totfact> 0.35638472E+04</totfact>
</mgrwt>
</event>
<event>
 5    1  0.7431090E-001  0.9252910E+02  0.7818608E-02  0.1296840E+00
          3   -1    0    0  501    0  0.00000000000E+00  0.00000000000E+00  0.46316400993E+02  0.46316494362E+02  0.93000000000E-01 0. -1.
         -3   -1    0    0    0  501 -0.00000000000E+00 -0.00000000000E+00 -0.46212573720E+02  0.46212667298E+02  0.93000000000E-01 0.  1.
         23    2    1    2    0    0  0.00000000000E+00  0.00000000000E+00  0.10382727319E+00  0.92529161660E+02  0.92529103407E+02 0.  0.
        -11    1    3    3    0    0 -0.39614710198E+02  0.17419114526E+02 -0.16308351219E+02  0.46246222923E+02  0.51100000000E-03 0.  1.
         11    1    3    3    0    0  0.39614710198E+02 -0.17419114526E+02  0.16412178492E+02  0.46282938736E+02  0.51100000000E-03 0. -1.
<mgrwt>
<rscale>  0 0.92529103E+02</rscale>
<asrwt>0</asrwt>
<pdfrwt beam="1">  1        3 0.71256145E-02 0.92529103E+02</pdfrwt>
<pdfrwt beam="2">  1       -3 0.71096411E-02 0.92529103E+02</pdfrwt>
<totfact> 0.33846050E+04</totfact>
</mgrwt>
</event>
<event>
 5    1  0.7431090E-001  0.8207842E+02  0.7818608E-02  0.1323255E+00
         -3   -1    0    0    0  501 -0.00000000000E+00  0.00000000000E+00  0.37918269967E+02  0.37918384015E+02  0.93000000000E-01 0.  1.
          3   -1    0    0  501    0  0.00000000000E+00 -0.00000000000E+00 -0.44416796014E+02  0.44416893376E+02  0.93000000000E-01 0. -1.
         23    2    1    2    0    0  0.00000000000E+00  0.00000000000E+00 -0.64985260468E+01  0.82335277391E+02  0.82078420198E+02 0.  0.
        -11    1    3    3    0    0 -0.13312266759E+01  0.32657802133E+02 -0.28144513188E+02  0.43132561105E+02  0.51100000000E-03 0. -1.
         11    1    3    3    0    0  0.13312266759E+01 -0.32657802133E+02  0.21645987141E+02  0.39202716286E+02  0.51100000000E-03 0.  1.
<mgrwt>
<rscale>  0 0.82078420E+02</rscale>
<asrwt>0</asrwt>
<pdfrwt beam="2">  1        3 0.68333695E-02 0.82078420E+02</pdfrwt>
<pdfrwt beam="1">  1       -3 0.58335962E-02 0.82078420E+02</pdfrwt>
<totfact> 0.47896418E+04</totfact>
</mgrwt>
</event>
<event>
 5    1  0.7431090E-001  0.9166032E+02  0.7818608E-02  0.1298880E+00
         -3   -1    0    0    0  501 -0.00000000000E+00  0.00000000000E+00  0.35156210090E+02  0.35156333098E+02  0.93000000000E-01 0.  1.
          3   -1    0    0  501    0  0.00000000000E+00 -0.00000000000E+00 -0.59744616028E+02  0.59744688411E+02  0.93000000000E-01 0. -1.
         23    2    1    2    0    0  0.00000000000E+00  0.00000000000E+00 -0.24588405938E+02  0.94901021508E+02  0.91660319532E+02 0.  0.
        -11    1    3    3    0    0  0.27612200316E+02 -0.14940791899E+01 -0.50134113986E+02  0.57254652775E+02  0.51100000000E-03 0. -1.
         11    1    3    3    0    0 -0.27612200316E+02  0.14940791899E+01  0.25545708048E+02  0.37646368734E+02  0.51100000000E-03 0.  1.
<mgrwt>
<rscale>  0 0.91660320E+02</rscale>
<asrwt>0</asrwt>
<pdfrwt beam="2">  1        3 0.91914944E-02 0.91660320E+02</pdfrwt>
<pdfrwt beam="1">  1       -3 0.54086628E-02 0.91660320E+02</pdfrwt>
<totfact> 0.34551826E+04</totfact>
</mgrwt>
</event>
<event>
 5    1  0.7431090E-001  0.9118509E+02  0.7818608E-02  0.1300007E+00
          3   -1    0    0  501    0  0.00000000000E+00  0.00000000000E+00  0.37514530546E+02  0.37514645822E+02  0.93000000000E-01 0. -1.
         -3   -1    0    0    0  501 -0.00000000000E+00 -0.00000000000E+00 -0.55409766272E+02  0.55409844318E+02  0.93000000000E-01 0.  1.
         23    2    1    2    0    0  0.00000000000E+00  0.00000000000E+00 -0.17895235726E+02  0.92924490139E+02  0.91185094210E+02 0.  0.
        -11    1    3    3    0    0 -0.19210831147E+01  0.45551938008E+02 -0.88420334896E+01  0.46441911816E+02  0.51100000000E-03 0.  1.
         11    1    3    3    0    0  0.19210831147E+01 -0.45551938008E+02 -0.90532022362E+01  0.46482578324E+02  0.51100000000E-03 0. -1.
<mgrwt>
<rscale>  0 0.91185094E+02</rscale>
<asrwt>0</asrwt>
<pdfrwt beam="1">  1        3 0.57714811E-02 0.91185094E+02</pdfrwt>
<pdfrwt beam="2">  1       -3 0.85245943E-02 0.91185094E+02</pdfrwt>
<totfact> 0.35196774E+04</totfact>
</mgrwt>
</event>
<event>
 5    1  0.7431090E-001  0.9050810E+02  0.7818608E-02  0.1301626E+00
         -3   -1    0    0    0  501 -0.00000000000E+00  0.00000000000E+00  0.52412198989E+02  0.52412281499E+02  0.93000000000E-01 0.  1.
          3   -1    0    0  501    0  0.00000000000E+00 -0.00000000000E+00 -0.39073349045E+02  0.39073459721E+02  0.93000000000E-01 0. -1.
         23    2    1    2    0    0  0.00000000000E+00  0.00000000000E+00  0.13338849945E+02  0.91485741220E+02  0.90508098691E+02 0.  0.
        -11    1    3    3    0    0 -0.11692664897E+02  0.25700665457E+02  0.42416472429E+02  0.50954879559E+02  0.51100000000E-03 0.  1.
         11    1    3    3    0    0  0.11692664897E+02 -0.25700665457E+02 -0.29077622484E+02  0.40530861661E+02  0.51100000000E-03 0. -1.
<mgrwt>
<rscale>  0 0.90508099E+02</rscale>
<asrwt>0</asrwt>
<pdfrwt beam="2">  1        3 0.60112994E-02 0.90508099E+02</pdfrwt>
<pdfrwt beam="1">  1       -3 0.80634300E-02 0.90508099E+02</pdfrwt>
<totfact> 0.36030045E+04</totfact>
</mgrwt>
</event>
<event>
 5    1  0.7431090E-001  0.9134557E+02  0.7818608E-02  0.1299626E+00
          3   -1    0    0  501    0  0.00000000000E+00  0.00000000000E+00  0.25407490834E+03  0.25407492536E+03  0.93000000000E-01 0. -1.
         -3   -1    0    0    0  501 -0.00000000000E+00 -0.00000000000E+00 -0.82099101141E+01  0.82104368386E+01  0.93000000000E-01 0.  1.
         23    2    1    2    0    0  0.00000000000E+00  0.00000000000E+00  0.24586499822E+03  0.26228536220E+03  0.91345573901E+02 0.  0.
        -11    1    3    3    0    0  0.33817819262E+02 -0.87857322468E+01  0.38475209557E+02  0.51972836574E+02  0.51100000000E-03 0.  1.
         11    1    3    3    0    0 -0.33817819262E+02  0.87857322468E+01  0.20738978867E+03  0.21031252562E+03  0.51100000000E-03 0. -1.
<mgrwt>
<rscale>  0 0.91345574E+02</rscale>
<asrwt>0</asrwt>
<pdfrwt beam="1">  1        3 0.39088479E-01 0.91345574E+02</pdfrwt>
<pdfrwt beam="2">  1       -3 0.12631053E-02 0.91345574E+02</pdfrwt>
<totfact> 0.25440743E+04</totfact>
</mgrwt>
</event>
<event>
 5    1  0.7431090E-001  0.9230958E+02  0.7818608E-02  0.1297353E+00
         -3   -1    0    0    0  501 -0.00000000000E+00  0.00000000000E+00  0.78889446602E+01  0.78894928133E+01  0.93000000000E-01 0.  1.
          3   -1    0    0  501    0  0.00000000000E+00 -0.00000000000E+00 -0.27002172054E+03  0.27002173655E+03  0.93000000000E-01 0. -1.
         23    2    1    2    0    0  0.00000000000E+00  0.00000000000E+00 -0.26213277588E+03  0.27791122937E+03  0.92309583569E+02 0.  0.
        -11    1    3    3    0    0  0.39929490559E+02  0.23071592882E+02 -0.13678041916E+03  0.14434523088E+03  0.51100000000E-03 0.  1.
         11    1    3    3    0    0 -0.39929490559E+02 -0.23071592882E+02 -0.12535235672E+03  0.13356599848E+03  0.51100000000E-03 0. -1.
<mgrwt>
<rscale>  0 0.92309584E+02</rscale>
<asrwt>0</asrwt>
<pdfrwt beam="2">  1        3 0.41541839E-01 0.92309584E+02</pdfrwt>
<pdfrwt beam="1">  1       -3 0.12137274E-02 0.92309584E+02</pdfrwt>
<totfact> 0.24097327E+04</totfact>
</mgrwt>
</event>
<event>
 5    1  0.7431090E-001  0.9196944E+02  0.7818608E-02  0.1298151E+00
          3   -1    0    0  501    0  0.00000000000E+00  0.00000000000E+00  0.83031339839E+02  0.83031391922E+02  0.93000000000E-01 0. -1.
         -3   -1    0    0    0  501 -0.00000000000E+00 -0.00000000000E+00 -0.25467281514E+02  0.25467451319E+02  0.93000000000E-01 0.  1.
         23    2    1    2    0    0  0.00000000000E+00  0.00000000000E+00  0.57564058325E+02  0.10849884324E+03  0.91969441521E+02 0.  0.
        -11    1    3    3    0    0  0.26246856616E+02  0.28615271047E+02 -0.28007161521E+00  0.38830524845E+02  0.51100000000E-03 0.  1.
         11    1    3    3    0    0 -0.26246856616E+02 -0.28615271047E+02  0.57844129941E+02  0.69668318396E+02  0.51100000000E-03 0. -1.
<mgrwt>
<rscale>  0 0.91969442E+02</rscale>
<asrwt>0</asrwt>
<pdfrwt beam="1">  1        3 0.12774069E-01 0.91969442E+02</pdfrwt>
<pdfrwt beam="2">  1       -3 0.39180604E-02 0.91969442E+02</pdfrwt>
<totfact> 0.33258421E+04</totfact>
</mgrwt>
</event>
<event>
 5    1  0.7431090E-001  0.9258707E+02  0.7818608E-02  0.1296705E+00
         -3   -1    0    0    0  501 -0.00000000000E+00  0.00000000000E+00  0.29340042674E+02  0.29340190066E+02  0.93000000000E-01 0.  1.
          3   -1    0    0  501    0  0.00000000000E+00 -0.00000000000E+00 -0.73042859735E+02  0.73042918940E+02  0.93000000000E-01 0. -1.
         23    2    1    2    0    0  0.00000000000E+00  0.00000000000E+00 -0.43702817061E+02  0.10238310901E+03  0.92587066001E+02 0.  0.
        -11    1    3    3    0    0 -0.38623405412E+02  0.28857690488E+00 -0.50070867539E+02  0.63237192369E+02  0.51100000000E-03 0. -1.
         11    1    3    3    0    0  0.38623405412E+02 -0.28857690488E+00  0.63680504777E+01  0.39145916638E+02  0.51100000000E-03 0.  1.
<mgrwt>
<rscale>  0 0.92587066E+02</rscale>
<asrwt>0</asrwt>
<pdfrwt beam="2">  1        3 0.11237379E-01 0.92587066E+02</pdfrwt>
<pdfrwt beam="1">  1       -3 0.45138687E-02 0.92587066E+02</pdfrwt>
<totfact> 0.33080721E+04</totfact>
</mgrwt>
</event>
<event>
 5    1  0.7431090E-001  0.9099549E+02  0.7818608E-02  0.1300459E+00
         -3   -1    0    0    0  501 -0.00000000000E+00  0.00000000000E+00  0.11498108960E+02  0.11498485059E+02  0.93000000000E-01 0.  1.
          3   -1    0    0  501    0  0.00000000000E+00 -0.00000000000E+00 -0.18003018253E+03  0.18003020655E+03  0.93000000000E-01 0. -1.
         23    2    1    2    0    0  0.00000000000E+00  0.00000000000E+00 -0.16853207357E+03  0.19152869161E+03  0.90995493777E+02 0.  0.
        -11    1    3    3    0    0 -0.38073623420E+02 -0.19910283860E+01 -0.32005550834E+02  0.49778713109E+02  0.51100000000E-03 0.  1.
         11    1    3    3    0    0  0.38073623420E+02  0.19910283860E+01 -0.13652652273E+03  0.14174997850E+03  0.51100000000E-03 0. -1.
<mgrwt>
<rscale>  0 0.90995494E+02</rscale>
<asrwt>0</asrwt>
<pdfrwt beam="2">  1        3 0.27696980E-01 0.90995494E+02</pdfrwt>
<pdfrwt beam="1">  1       -3 0.17689707E-02 0.90995494E+02</pdfrwt>
<totfact> 0.29098637E+04</totfact>
</mgrwt>
</event>
<event>
 5    1  0.7431090E-001  0.9116952E+02  0.7818608E-02  0.1300044E+00
          3   -1    0    0  501    0  0.00000000000E+00  0.00000000000E+00  0.10124462403E+03  0.10124466675E+03  0.93000000000E-01 0. -1.
         -3   -1    0    0    0  501 -0.00000000000E+00 -0.00000000000E+00 -0.20524101188E+02  0.20524311890E+02  0.93000000000E-01 0.  1.
         23    2    1    2    0    0  0.00000000000E+00  0.00000000000E+00  0.80720522844E+02  0.12176897864E+03  0.91169519850E+02 0.  0.
        -11    1    3    3    0    0  0.10109961055E+02  0.41303913481E+02  0.62296608342E+02  0.75426069714E+02  0.51100000000E-03 0.  1.
         11    1    3    3    0    0 -0.10109961055E+02 -0.41303913481E+02  0.18423914502E+02  0.46342908921E+02  0.51100000000E-03 0. -1.
<mgrwt>
<rscale>  0 0.91169520E+02</rscale>
<asrwt>0</asrwt>
<pdfrwt beam="1">  1        3 0.15576116E-01 0.91169520E+02</pdfrwt>
<pdfrwt beam="2">  1       -3 0.31575735E-02 0.91169520E+02</pdfrwt>
<totfact> 0.33132959E+04</totfact>
</mgrwt>
</event>
<event>
 5    1  0.7431090E-001  0.1039779E+03  0.7818608E-02  0.1272147E+00
         -3   -1    0    0    0  501 -0.00000000000E+00  0.00000000000E+00  0.57508095778E+02  0.57508170977E+02  0.93000000000E-01 0.  1.
          3   -1    0    0  501    0  0.00000000000E+00 -0.00000000000E+00 -0.46999363371E+02  0.46999455383E+02  0.93000000000E-01 0. -1.
         23    2    1    2    0    0  0.00000000000E+00  0.00000000000E+00  0.10508732407E+02  0.10450762636E+03  0.10397793281E+03 0.  0.
        -11    1    3    3    0    0  0.15004218212E+02 -0.40734821259E+02  0.34007800330E+02  0.55145105955E+02  0.51100000000E-03 0.  1.
         11    1    3    3    0    0 -0.15004218212E+02  0.40734821259E+02 -0.23499067923E+02  0.49362520405E+02  0.51100000000E-03 0. -1.
<mgrwt>
<rscale>  0 0.10397793E+03</rscale>
<asrwt>0</asrwt>
<pdfrwt beam="2">  1        3 0.72306841E-02 0.10397793E+03</pdfrwt>
<pdfrwt beam="1">  1       -3 0.88474122E-02 0.10397793E+03</pdfrwt>
<totfact> 0.23946163E+04</totfact>
</mgrwt>
</event>
<event>
 5    1  0.7431090E-001  0.9066799E+02  0.7818608E-02  0.1301242E+00
         -3   -1    0    0    0  501 -0.00000000000E+00  0.00000000000E+00  0.61378845679E+02  0.61378916135E+02  0.93000000000E-01 0.  1.
          3   -1    0    0  501    0  0.00000000000E+00 -0.00000000000E+00 -0.33483220735E+02  0.33483349889E+02  0.93000000000E-01 0. -1.
         23    2    1    2    0    0  0.00000000000E+00  0.00000000000E+00  0.27895624944E+02  0.94862266023E+02  0.90667985662E+02 0.  0.
        -11    1    3    3    0    0  0.81389839223E+01 -0.34019537464E+02  0.44119283500E+02  0.56303491591E+02  0.51100000000E-03 0.  1.
         11    1    3    3    0    0 -0.81389839223E+01  0.34019537464E+02 -0.16223658555E+02  0.38558774433E+02  0.51100000000E-03 0. -1.
<mgrwt>
<rscale>  0 0.90667986E+02</rscale>
<asrwt>0</asrwt>
<pdfrwt beam="2">  1        3 0.51512801E-02 0.90667986E+02</pdfrwt>
<pdfrwt beam="1">  1       -3 0.94429146E-02 0.90667986E+02</pdfrwt>
<totfact> 0.35595509E+04</totfact>
</mgrwt>
</event>
<event>
 5    1  0.7431090E-001  0.8993994E+02  0.7818608E-02  0.1302997E+00
         -3   -1    0    0    0  501 -0.00000000000E+00  0.00000000000E+00  0.26157570877E+03  0.26157572531E+03  0.93000000000E-01 0.  1.
          3   -1    0    0  501    0  0.00000000000E+00 -0.00000000000E+00 -0.77309183704E+01  0.77314777275E+01  0.93000000000E-01 0. -1.
         23    2    1    2    0    0  0.00000000000E+00  0.00000000000E+00  0.25384479040E+03  0.26930720303E+03  0.89939935462E+02 0.  0.
        -11    1    3    3    0    0 -0.25802112929E+02  0.29457586415E+02  0.60721966058E+02  0.72254104321E+02  0.51100000000E-03 0. -1.
         11    1    3    3    0    0  0.25802112929E+02 -0.29457586415E+02  0.19312282435E+03  0.19705309871E+03  0.51100000000E-03 0.  1.
<mgrwt>
<rscale>  0 0.89939935E+02</rscale>
<asrwt>0</asrwt>
<pdfrwt beam="2">  1        3 0.11894163E-02 0.89939935E+02</pdfrwt>
<pdfrwt beam="1">  1       -3 0.40242463E-01 0.89939935E+02</pdfrwt>
<totfact> 0.26206559E+04</totfact>
</mgrwt>
</event>
<event>
 5    1  0.7431090E-001  0.9402852E+02  0.7818608E-02  0.1293379E+00
         -3   -1    0    0    0  501 -0.00000000000E+00  0.00000000000E+00  0.89355304608E+01  0.89360144144E+01  0.93000000000E-01 0.  1.
          3   -1    0    0  501    0  0.00000000000E+00 -0.00000000000E+00 -0.24735817951E+03  0.24735819699E+03  0.93000000000E-01 0. -1.
         23    2    1    2    0    0  0.00000000000E+00  0.00000000000E+00 -0.23842264905E+03  0.25629421141E+03  0.94028523445E+02 0.  0.
        -11    1    3    3    0    0 -0.28725247037E+02  0.28010418018E+02 -0.52411063224E+02  0.66004870149E+02  0.51100000000E-03 0. -1.
         11    1    3    3    0    0  0.28725247037E+02 -0.28010418018E+02 -0.18601158583E+03  0.19028934126E+03  0.51100000000E-03 0.  1.
<mgrwt>
<rscale>  0 0.94028523E+02</rscale>
<asrwt>0</asrwt>
<pdfrwt beam="2">  1        3 0.38055138E-01 0.94028523E+02</pdfrwt>
<pdfrwt beam="1">  1       -3 0.13747358E-02 0.94028523E+02</pdfrwt>
<totfact> 0.23767975E+04</totfact>
</mgrwt>
</event>
<event>
 5    1  0.7431090E-001  0.9178814E+02  0.7818608E-02  0.1298578E+00
          3   -1    0    0  501    0  0.00000000000E+00  0.00000000000E+00  0.12355073238E+02  0.12355423251E+02  0.93000000000E-01 0. -1.
         -3   -1    0    0    0  501 -0.00000000000E+00 -0.00000000000E+00 -0.17047502086E+03  0.17047504623E+03  0.93000000000E-01 0.  1.
         23    2    1    2    0    0  0.00000000000E+00  0.00000000000E+00 -0.15811994762E+03  0.18283046948E+03  0.91788140485E+02 0.  0.
        -11    1    3    3    0    0  0.33526358985E+02  0.23240471937E+02 -0.12094286953E+03  0.12763743171E+03  0.51100000000E-03 0.  1.
         11    1    3    3    0    0 -0.33526358985E+02 -0.23240471937E+02 -0.37177078093E+02  0.55193037772E+02  0.51100000000E-03 0. -1.
<mgrwt>
<rscale>  0 0.91788140E+02</rscale>
<asrwt>0</asrwt>
<pdfrwt beam="1">  1        3 0.19008095E-02 0.91788140E+02</pdfrwt>
<pdfrwt beam="2">  1       -3 0.26226954E-01 0.91788140E+02</pdfrwt>
<totfact> 0.28883489E+04</totfact>
</mgrwt>
</event>
<event>
 5    1  0.7431090E-001  0.9391529E+02  0.7818608E-02  0.1293638E+00
          3   -1    0    0  501    0  0.00000000000E+00  0.00000000000E+00  0.25352735923E+02  0.25352906495E+02  0.93000000000E-01 0. -1.
         -3   -1    0    0    0  501 -0.00000000000E+00 -0.00000000000E+00 -0.86973186541E+02  0.86973236263E+02  0.93000000000E-01 0.  1.
         23    2    1    2    0    0  0.00000000000E+00  0.00000000000E+00 -0.61620450618E+02  0.11232614276E+03  0.93915293816E+02 0.  0.
        -11    1    3    3    0    0  0.26434978703E+02  0.34266097752E+02 -0.52604596150E+02  0.68119138944E+02  0.51100000000E-03 0. -1.
         11    1    3    3    0    0 -0.26434978703E+02 -0.34266097752E+02 -0.90158544684E+01  0.44207003814E+02  0.51100000000E-03 0.  1.
<mgrwt>
<rscale>  0 0.93915294E+02</rscale>
<asrwt>0</asrwt>
<pdfrwt beam="1">  1        3 0.39004379E-02 0.93915294E+02</pdfrwt>
<pdfrwt beam="2">  1       -3 0.13380507E-01 0.93915294E+02</pdfrwt>
<totfact> 0.31162660E+04</totfact>
</mgrwt>
</event>
<event>
 5    1  0.7431090E-001  0.9239590E+02  0.7818608E-02  0.1297151E+00
          3   -1    0    0  501    0  0.00000000000E+00  0.00000000000E+00  0.11490544152E+03  0.11490547916E+03  0.93000000000E-01 0. -1.
         -3   -1    0    0    0  501 -0.00000000000E+00 -0.00000000000E+00 -0.18573817428E+02  0.18574050254E+02  0.93000000000E-01 0.  1.
         23    2    1    2    0    0  0.00000000000E+00  0.00000000000E+00  0.96331624097E+02  0.13347952941E+03  0.92395903434E+02 0.  0.
        -11    1    3    3    0    0 -0.22967573627E+02  0.22038845876E+02 -0.20358567539E+00  0.31831770501E+02  0.51100000000E-03 0.  1.
         11    1    3    3    0    0  0.22967573627E+02 -0.22038845876E+02  0.96535209773E+02  0.10164775891E+03  0.51100000000E-03 0. -1.
<mgrwt>
<rscale>  0 0.92395903E+02</rscale>
<asrwt>0</asrwt>
<pdfrwt beam="1">  1        3 0.17677781E-01 0.92395903E+02</pdfrwt>
<pdfrwt beam="2">  1       -3 0.28575312E-02 0.92395903E+02</pdfrwt>
<totfact> 0.31201368E+04</totfact>
</mgrwt>
</event>
<event>
 5    1  0.7431090E-001  0.9076225E+02  0.7818608E-02  0.1301016E+00
          3   -1    0    0  501    0  0.00000000000E+00  0.00000000000E+00  0.75393278388E+02  0.75393335747E+02  0.93000000000E-01 0. -1.
         -3   -1    0    0    0  501 -0.00000000000E+00 -0.00000000000E+00 -0.27315904906E+02  0.27316063220E+02  0.93000000000E-01 0.  1.
         23    2    1    2    0    0  0.00000000000E+00  0.00000000000E+00  0.48077373482E+02  0.10270939897E+03  0.90762254243E+02 0.  0.
        -11    1    3    3    0    0 -0.35183903861E+02  0.28643830125E+02  0.25209585197E+02  0.51902786835E+02  0.51100000000E-03 0. -1.
         11    1    3    3    0    0  0.35183903861E+02 -0.28643830125E+02  0.22867788285E+02  0.50806612133E+02  0.51100000000E-03 0.  1.
<mgrwt>
<rscale>  0 0.90762254E+02</rscale>
<asrwt>0</asrwt>
<pdfrwt beam="1">  1        3 0.11598982E-01 0.90762254E+02</pdfrwt>
<pdfrwt beam="2">  1       -3 0.42024635E-02 0.90762254E+02</pdfrwt>
<totfact> 0.34901264E+04</totfact>
</mgrwt>
</event>
<event>
 5    1  0.7431090E-001  0.8986880E+02  0.7818608E-02  0.1303170E+00
         -3   -1    0    0    0  501 -0.00000000000E+00  0.00000000000E+00  0.60285857875E+02  0.60285929608E+02  0.93000000000E-01 0.  1.
          3   -1    0    0  501    0  0.00000000000E+00 -0.00000000000E+00 -0.33491949725E+02  0.33492078845E+02  0.93000000000E-01 0. -1.
         23    2    1    2    0    0  0.00000000000E+00  0.00000000000E+00  0.26793908151E+02  0.93778008453E+02  0.89868800790E+02 0.  0.
        -11    1    3    3    0    0  0.12654203594E+02  0.80580156094E+01  0.57595512256E+02  0.59517253939E+02  0.51100000000E-03 0.  1.
         11    1    3    3    0    0 -0.12654203594E+02 -0.80580156094E+01 -0.30801604105E+02  0.34260754514E+02  0.51100000000E-03 0. -1.
<mgrwt>
<rscale>  0 0.89868801E+02</rscale>
<asrwt>0</asrwt>
<pdfrwt beam="2">  1        3 0.51526232E-02 0.89868801E+02</pdfrwt>
<pdfrwt beam="1">  1       -3 0.92747627E-02 0.89868801E+02</pdfrwt>
<totfact> 0.36547597E+04</totfact>
</mgrwt>
</event>
<event>
 5    1  0.7431090E-001  0.9219734E+02  0.7818608E-02  0.1297616E+00
         -3   -1    0    0    0  501 -0.00000000000E+00  0.00000000000E+00  0.19953846080E+03  0.19953848247E+03  0.93000000000E-01 0. -1.
          3   -1    0    0  501    0  0.00000000000E+00 -0.00000000000E+00 -0.10649789741E+02  0.10650195797E+02  0.93000000000E-01 0.  1.
         23    2    1    2    0    0  0.00000000000E+00  0.00000000000E+00  0.18888867105E+03  0.21018867827E+03  0.92197344962E+02 0.  0.
        -11    1    3    3    0    0 -0.62865178511E+01 -0.38177576336E+02  0.37311662437E+02  0.53751351571E+02  0.51100000000E-03 0.  1.
         11    1    3    3    0    0  0.62865178511E+01  0.38177576336E+02  0.15157700862E+03  0.15643732669E+03  0.51100000000E-03 0. -1.
<mgrwt>
<rscale>  0 0.92197345E+02</rscale>
<asrwt>0</asrwt>
<pdfrwt beam="2">  1        3 0.16384623E-02 0.92197345E+02</pdfrwt>
<pdfrwt beam="1">  1       -3 0.30698253E-01 0.92197345E+02</pdfrwt>
<totfact> 0.27149518E+04</totfact>
</mgrwt>
</event>
<event>
 5    1  0.7431090E-001  0.9190162E+02  0.7818608E-02  0.1298311E+00
          3   -1    0    0  501    0  0.00000000000E+00  0.00000000000E+00  0.10107361790E+03  0.10107366069E+03  0.93000000000E-01 0. -1.
         -3   -1    0    0    0  501 -0.00000000000E+00 -0.00000000000E+00 -0.20890333720E+02  0.20890540728E+02  0.93000000000E-01 0.  1.
         23    2    1    2    0    0  0.00000000000E+00  0.00000000000E+00  0.80183284182E+02  0.12196420142E+03  0.91901617857E+02 0.  0.
        -11    1    3    3    0    0  0.41984546761E+02  0.14962402365E+02  0.25259888314E+02  0.51231217135E+02  0.51100000000E-03 0.  1.
         11    1    3    3    0    0 -0.41984546761E+02 -0.14962402365E+02  0.54923395868E+02  0.70732984280E+02  0.51100000000E-03 0. -1.
<mgrwt>
<rscale>  0 0.91901618E+02</rscale>
<asrwt>0</asrwt>
<pdfrwt beam="1">  1        3 0.15549807E-01 0.91901618E+02</pdfrwt>
<pdfrwt beam="2">  1       -3 0.32139167E-02 0.91901618E+02</pdfrwt>
<totfact> 0.32406713E+04</totfact>
</mgrwt>
</event>
<event>
 5    1  0.7431090E-001  0.9310613E+02  0.7818608E-02  0.1295499E+00
          3   -1    0    0  501    0  0.00000000000E+00  0.00000000000E+00  0.12828001991E+03  0.12828005362E+03  0.93000000000E-01 0. -1.
         -3   -1    0    0    0  501 -0.00000000000E+00 -0.00000000000E+00 -0.16894031756E+02  0.16894287732E+02  0.93000000000E-01 0.  1.
         23    2    1    2    0    0  0.00000000000E+00  0.00000000000E+00  0.11138598815E+03  0.14517434135E+03  0.93106127780E+02 0.  0.
        -11    1    3    3    0    0  0.42197999231E+02  0.10876646133E+02  0.30156969835E+02  0.52994484619E+02  0.51100000000E-03 0.  1.
         11    1    3    3    0    0 -0.42197999231E+02 -0.10876646133E+02  0.81229018315E+02  0.92179856730E+02  0.51100000000E-03 0. -1.
<mgrwt>
<rscale>  0 0.93106128E+02</rscale>
<asrwt>0</asrwt>
<pdfrwt beam="1">  1        3 0.19735411E-01 0.93106128E+02</pdfrwt>
<pdfrwt beam="2">  1       -3 0.25991040E-02 0.93106128E+02</pdfrwt>
<totfact> 0.29857294E+04</totfact>
</mgrwt>
</event>
<event>
 5    1  0.7431090E-001  0.8894605E+02  0.7818608E-02  0.1305424E+00
         -3   -1    0    0    0  501 -0.00000000000E+00  0.00000000000E+00  0.17456906193E+02  0.17457153916E+02  0.93000000000E-01 0.  1.
          3   -1    0    0  501    0  0.00000000000E+00 -0.00000000000E+00 -0.11329793024E+03  0.11329796841E+03  0.93000000000E-01 0. -1.
         23    2    1    2    0    0  0.00000000000E+00  0.00000000000E+00 -0.95841024044E+02  0.13075512232E+03  0.88946051760E+02 0.  0.
        -11    1    3    3    0    0 -0.18497910104E+02  0.10987029021E+02  0.92975289562E+01  0.23437822635E+02  0.51100000000E-03 0.  1.
         11    1    3    3    0    0  0.18497910104E+02 -0.10987029021E+02 -0.10513855300E+03  0.10731729969E+03  0.51100000000E-03 0. -1.
<mgrwt>
<rscale>  0 0.88946052E+02</rscale>
<asrwt>0</asrwt>
<pdfrwt beam="2">  1        3 0.17430472E-01 0.88946052E+02</pdfrwt>
<pdfrwt beam="1">  1       -3 0.26856999E-02 0.88946052E+02</pdfrwt>
<totfact> 0.34780041E+04</totfact>
</mgrwt>
</event>
<event>
 5    1  0.7431090E-001  0.9028357E+02  0.7818608E-02  0.1302166E+00
          3   -1    0    0  501    0  0.00000000000E+00  0.00000000000E+00  0.15630831393E+03  0.15630834160E+03  0.93000000000E-01 0. -1.
         -3   -1    0    0    0  501 -0.00000000000E+00 -0.00000000000E+00 -0.13036737361E+02  0.13037069073E+02  0.93000000000E-01 0.  1.
         23    2    1    2    0    0  0.00000000000E+00  0.00000000000E+00  0.14327157657E+03  0.16934541067E+03  0.90283572494E+02 0.  0.
        -11    1    3    3    0    0 -0.20452783286E+02 -0.34517255555E+02  0.32829817835E+02  0.51841626272E+02  0.51100000000E-03 0.  1.
         11    1    3    3    0    0  0.20452783286E+02  0.34517255555E+02  0.11044175873E+03  0.11750378440E+03  0.51100000000E-03 0. -1.
<mgrwt>
<rscale>  0 0.90283572E+02</rscale>
<asrwt>0</asrwt>
<pdfrwt beam="1">  1        3 0.24047461E-01 0.90283572E+02</pdfrwt>
<pdfrwt beam="2">  1       -3 0.20056795E-02 0.90283572E+02</pdfrwt>
<totfact> 0.30976245E+04</totfact>
</mgrwt>
</event>
<event>
 5    1  0.7431090E-001  0.9048677E+02  0.7818608E-02  0.1301677E+00
          3   -1    0    0  501    0  0.00000000000E+00  0.00000000000E+00  0.16349265746E+03  0.16349268391E+03  0.93000000000E-01 0.  1.
         -3   -1    0    0    0  501 -0.00000000000E+00 -0.00000000000E+00 -0.12520017808E+02  0.12520363211E+02  0.93000000000E-01 0. -1.
         23    2    1    2    0    0  0.00000000000E+00  0.00000000000E+00  0.15097263965E+03  0.17601304712E+03  0.90486766067E+02 0.  0.
        -11    1    3    3    0    0  0.29800340766E+02  0.26575787199E+02  0.11687026686E+03  0.12350300422E+03  0.51100000000E-03 0.  1.
         11    1    3    3    0    0 -0.29800340766E+02 -0.26575787199E+02  0.34102372784E+02  0.52510042895E+02  0.51100000000E-03 0. -1.
<mgrwt>
<rscale>  0 0.90486766E+02</rscale>
<asrwt>0</asrwt>
<pdfrwt beam="1">  1        3 0.25152743E-01 0.90486766E+02</pdfrwt>
<pdfrwt beam="2">  1       -3 0.19261854E-02 0.90486766E+02</pdfrwt>
<totfact> 0.30404236E+04</totfact>
</mgrwt>
</event>
<event>
 5    1  0.7431090E-001  0.9170721E+02  0.7818608E-02  0.1298769E+00
         -3   -1    0    0    0  501 -0.00000000000E+00  0.00000000000E+00  0.29521863632E+02  0.29522010116E+02  0.93000000000E-01 0.  1.
          3   -1    0    0  501    0  0.00000000000E+00 -0.00000000000E+00 -0.71219842683E+02  0.71219903403E+02  0.93000000000E-01 0. -1.
         23    2    1    2    0    0  0.00000000000E+00  0.00000000000E+00 -0.41697979051E+02  0.10074191352E+03  0.91707206274E+02 0.  0.
        -11    1    3    3    0    0 -0.22750384947E+02  0.38699895267E+02 -0.31112395195E+02  0.54619072163E+02  0.51100000000E-03 0. -1.
         11    1    3    3    0    0  0.22750384947E+02 -0.38699895267E+02 -0.10585583855E+02  0.46122841356E+02  0.51100000000E-03 0.  1.
<mgrwt>
<rscale>  0 0.91707206E+02</rscale>
<asrwt>0</asrwt>
<pdfrwt beam="2">  1        3 0.10956915E-01 0.91707206E+02</pdfrwt>
<pdfrwt beam="1">  1       -3 0.45418411E-02 0.91707206E+02</pdfrwt>
<totfact> 0.34072865E+04</totfact>
</mgrwt>
</event>
<event>
 5    1  0.7431090E-001  0.1007946E+03  0.7818608E-02  0.1278634E+00
          3   -1    0    0  501    0  0.00000000000E+00  0.00000000000E+00  0.55854113612E+02  0.55854191037E+02  0.93000000000E-01 0. -1.
         -3   -1    0    0    0  501 -0.00000000000E+00 -0.00000000000E+00 -0.45473455494E+02  0.45473550593E+02  0.93000000000E-01 0.  1.
         23    2    1    2    0    0  0.00000000000E+00  0.00000000000E+00  0.10380658118E+02  0.10132774163E+03  0.10079460879E+03 0.  0.
        -11    1    3    3    0    0  0.16560627652E+02  0.16845162506E+02 -0.39563389239E+02  0.46079015358E+02  0.51100000000E-03 0.  1.
         11    1    3    3    0    0 -0.16560627652E+02 -0.16845162506E+02  0.49944047356E+02  0.55248726272E+02  0.51100000000E-03 0. -1.
<mgrwt>
<rscale>  0 0.10079461E+03</rscale>
<asrwt>0</asrwt>
<pdfrwt beam="1">  1        3 0.85929538E-02 0.10079461E+03</pdfrwt>
<pdfrwt beam="2">  1       -3 0.69959296E-02 0.10079461E+03</pdfrwt>
<totfact> 0.26265221E+04</totfact>
</mgrwt>
</event>
<event>
 5    1  0.7431090E-001  0.8605586E+02  0.7818608E-02  0.1312694E+00
         -3   -1    0    0    0  501 -0.00000000000E+00  0.00000000000E+00  0.42845816158E+02  0.42845917089E+02  0.93000000000E-01 0.  1.
          3   -1    0    0  501    0  0.00000000000E+00 -0.00000000000E+00 -0.43210616918E+02  0.43210716997E+02  0.93000000000E-01 0. -1.
         23    2    1    2    0    0  0.00000000000E+00  0.00000000000E+00 -0.36480075995E+00  0.86056634086E+02  0.86055860873E+02 0.  0.
        -11    1    3    3    0    0  0.39246551468E+02  0.16053586073E+02  0.71247419449E+01  0.42997341499E+02  0.51100000000E-03 0. -1.
         11    1    3    3    0    0 -0.39246551468E+02 -0.16053586073E+02 -0.74895427048E+01  0.43059292587E+02  0.51100000000E-03 0.  1.
<mgrwt>
<rscale>  0 0.86055861E+02</rscale>
<asrwt>0</asrwt>
<pdfrwt beam="2">  1        3 0.66478027E-02 0.86055861E+02</pdfrwt>
<pdfrwt beam="1">  1       -3 0.65916795E-02 0.86055861E+02</pdfrwt>
<totfact> 0.41805713E+04</totfact>
</mgrwt>
</event>
<event>
 5    1  0.7431090E-001  0.9295468E+02  0.7818608E-02  0.1295850E+00
          3   -1    0    0  501    0  0.00000000000E+00  0.00000000000E+00  0.67415140293E+01  0.67421554719E+01  0.93000000000E-01 0. -1.
         -3   -1    0    0    0  501 -0.00000000000E+00 -0.00000000000E+00 -0.32040811303E+03  0.32040812653E+03  0.93000000000E-01 0.  1.
         23    2    1    2    0    0  0.00000000000E+00  0.00000000000E+00 -0.31366659900E+03  0.32715028200E+03  0.92954675424E+02 0.  0.
        -11    1    3    3    0    0 -0.43701599019E+02 -0.36763020337E+01 -0.21099160217E+03  0.21550127874E+03  0.51100000000E-03 0. -1.
         11    1    3    3    0    0  0.43701599019E+02  0.36763020337E+01 -0.10267499683E+03  0.11164900325E+03  0.51100000000E-03 0.  1.
<mgrwt>
<rscale>  0 0.92954675E+02</rscale>
<asrwt>0</asrwt>
<pdfrwt beam="1">  1        3 0.10372066E-02 0.92954675E+02</pdfrwt>
<pdfrwt beam="2">  1       -3 0.49293594E-01 0.92954675E+02</pdfrwt>
<totfact> 0.21844195E+04</totfact>
</mgrwt>
</event>
<event>
 5    1  0.7431090E-001  0.9017227E+02  0.7818608E-02  0.1302435E+00
          3   -1    0    0  501    0  0.00000000000E+00  0.00000000000E+00  0.19481254822E+03  0.19481257042E+03  0.93000000000E-01 0. -1.
         -3   -1    0    0    0  501 -0.00000000000E+00 -0.00000000000E+00 -0.10434208854E+02  0.10434623300E+02  0.93000000000E-01 0.  1.
         23    2    1    2    0    0  0.00000000000E+00  0.00000000000E+00  0.18437833937E+03  0.20524719372E+03  0.90172271249E+02 0.  0.
        -11    1    3    3    0    0 -0.21649932619E+02 -0.20511529842E+02  0.15225177816E+02  0.33485048584E+02  0.51100000000E-03 0.  1.
         11    1    3    3    0    0  0.21649932619E+02  0.20511529842E+02  0.16915316155E+03  0.17176214514E+03  0.51100000000E-03 0. -1.
<mgrwt>
<rscale>  0 0.90172271E+02</rscale>
<asrwt>0</asrwt>
<pdfrwt beam="1">  1        3 0.29971194E-01 0.90172271E+02</pdfrwt>
<pdfrwt beam="2">  1       -3 0.16052965E-02 0.90172271E+02</pdfrwt>
<totfact> 0.29084187E+04</totfact>
</mgrwt>
</event>
<event>
 5    1  0.7431090E-001  0.9044464E+02  0.7818608E-02  0.1301779E+00
          3   -1    0    0  501    0  0.00000000000E+00  0.00000000000E+00  0.94448533601E+02  0.94448579388E+02  0.93000000000E-01 0. -1.
         -3   -1    0    0    0  501 -0.00000000000E+00 -0.00000000000E+00 -0.21652468434E+02  0.21652668156E+02  0.93000000000E-01 0.  1.
         23    2    1    2    0    0  0.00000000000E+00  0.00000000000E+00  0.72796065167E+02  0.11610124754E+03  0.90444638191E+02 0.  0.
        -11    1    3    3    0    0  0.16756390400E+02 -0.34657281274E+02  0.59353746669E+01  0.38950384302E+02  0.51100000000E-03 0. -1.
         11    1    3    3    0    0 -0.16756390400E+02  0.34657281274E+02  0.66860690500E+02  0.77150863242E+02  0.51100000000E-03 0.  1.
<mgrwt>
<rscale>  0 0.90444638E+02</rscale>
<asrwt>0</asrwt>
<pdfrwt beam="1">  1        3 0.14530562E-01 0.90444638E+02</pdfrwt>
<pdfrwt beam="2">  1       -3 0.33311679E-02 0.90444638E+02</pdfrwt>
<totfact> 0.34256174E+04</totfact>
</mgrwt>
</event>
<event>
 5    1  0.7431090E-001  0.9328623E+02  0.7818608E-02  0.1295083E+00
          3   -1    0    0  501    0  0.00000000000E+00  0.00000000000E+00  0.25691806865E+02  0.25691975187E+02  0.93000000000E-01 0.  1.
         -3   -1    0    0    0  501 -0.00000000000E+00 -0.00000000000E+00 -0.84679454985E+02  0.84679506054E+02  0.93000000000E-01 0. -1.
         23    2    1    2    0    0  0.00000000000E+00  0.00000000000E+00 -0.58987648119E+02  0.11037148124E+03  0.93286232857E+02 0.  0.
        -11    1    3    3    0    0  0.29913028306E+02  0.14469753641E+02  0.92336024239E+01  0.34488004391E+02  0.51100000000E-03 0.  1.
         11    1    3    3    0    0 -0.29913028306E+02 -0.14469753641E+02 -0.68221250543E+02  0.75883476850E+02  0.51100000000E-03 0. -1.
<mgrwt>
<rscale>  0 0.93286233E+02</rscale>
<asrwt>0</asrwt>
<pdfrwt beam="1">  1        3 0.39526026E-02 0.93286233E+02</pdfrwt>
<pdfrwt beam="2">  1       -3 0.13027625E-01 0.93286233E+02</pdfrwt>
<totfact> 0.31869578E+04</totfact>
</mgrwt>
</event>
<event>
 5    1  0.7431090E-001  0.9147611E+02  0.7818608E-02  0.1299316E+00
          3   -1    0    0  501    0  0.00000000000E+00  0.00000000000E+00  0.60692198823E+02  0.60692270076E+02  0.93000000000E-01 0. -1.
         -3   -1    0    0    0  501 -0.00000000000E+00 -0.00000000000E+00 -0.34468358952E+02  0.34468484414E+02  0.93000000000E-01 0.  1.
         23    2    1    2    0    0  0.00000000000E+00  0.00000000000E+00  0.26223839871E+02  0.95160754490E+02  0.91476113918E+02 0.  0.
        -11    1    3    3    0    0  0.40371159408E+02  0.15902878746E+02  0.28159623668E+02  0.51727134753E+02  0.51100000000E-03 0. -1.
         11    1    3    3    0    0 -0.40371159408E+02 -0.15902878746E+02 -0.19357837966E+01  0.43433619737E+02  0.51100000000E-03 0.  1.
<mgrwt>
<rscale>  0 0.91476114E+02</rscale>
<asrwt>0</asrwt>
<pdfrwt beam="1">  1        3 0.93372765E-02 0.91476114E+02</pdfrwt>
<pdfrwt beam="2">  1       -3 0.53028396E-02 0.91476114E+02</pdfrwt>
<totfact> 0.34722383E+04</totfact>
</mgrwt>
</event>
<event>
 5    1  0.7431090E-001  0.9238873E+02  0.7818608E-02  0.1297168E+00
          3   -1    0    0  501    0  0.00000000000E+00  0.00000000000E+00  0.91056839765E+01  0.91061588873E+01  0.93000000000E-01 0. -1.
         -3   -1    0    0    0  501 -0.00000000000E+00 -0.00000000000E+00 -0.23434367719E+03  0.23434369565E+03  0.93000000000E-01 0.  1.
         23    2    1    2    0    0  0.00000000000E+00  0.00000000000E+00 -0.22523799322E+03  0.24344985454E+03  0.92388733536E+02 0.  0.
        -11    1    3    3    0    0  0.35592931416E+02 -0.25717374322E+02 -0.74828211318E+02  0.86761174024E+02  0.51100000000E-03 0. -1.
         11    1    3    3    0    0 -0.35592931416E+02  0.25717374322E+02 -0.15040978190E+03  0.15668868051E+03  0.51100000000E-03 0.  1.
<mgrwt>
<rscale>  0 0.92388734E+02</rscale>
<asrwt>0</asrwt>
<pdfrwt beam="1">  1        3 0.14009126E-02 0.92388734E+02</pdfrwt>
<pdfrwt beam="2">  1       -3 0.36052907E-01 0.92388734E+02</pdfrwt>
<totfact> 0.25470272E+04</totfact>
</mgrwt>
</event>
<event>
 5    1  0.7431090E-001  0.9107950E+02  0.7818608E-02  0.1300258E+00
          3   -1    0    0  501    0  0.00000000000E+00  0.00000000000E+00  0.83403538839E+02  0.83403590689E+02  0.93000000000E-01 0. -1.
         -3   -1    0    0    0  501 -0.00000000000E+00 -0.00000000000E+00 -0.24865333809E+02  0.24865507726E+02  0.93000000000E-01 0.  1.
         23    2    1    2    0    0  0.00000000000E+00  0.00000000000E+00  0.58538205030E+02  0.10826909841E+03  0.91079504958E+02 0.  0.
        -11    1    3    3    0    0 -0.17362458458E+02 -0.32165665014E+02 -0.30194443762E+01  0.36676995707E+02  0.51100000000E-03 0.  1.
         11    1    3    3    0    0  0.17362458458E+02  0.32165665014E+02  0.61557649406E+02  0.71592102708E+02  0.51100000000E-03 0. -1.
<mgrwt>
<rscale>  0 0.91079505E+02</rscale>
<asrwt>0</asrwt>
<pdfrwt beam="1">  1        3 0.12831331E-01 0.91079505E+02</pdfrwt>
<pdfrwt beam="2">  1       -3 0.38254533E-02 0.91079505E+02</pdfrwt>
<totfact> 0.34167820E+04</totfact>
</mgrwt>
</event>
<event>
 5    1  0.7431090E-001  0.9052080E+02  0.7818608E-02  0.1301595E+00
         -3   -1    0    0    0  501 -0.00000000000E+00  0.00000000000E+00  0.12880218194E+03  0.12880221552E+03  0.93000000000E-01 0.  1.
          3   -1    0    0  501    0  0.00000000000E+00 -0.00000000000E+00 -0.15904091074E+02  0.15904362983E+02  0.93000000000E-01 0. -1.
         23    2    1    2    0    0  0.00000000000E+00  0.00000000000E+00  0.11289809087E+03  0.14470657850E+03  0.90520798379E+02 0.  0.
        -11    1    3    3    0    0 -0.65828812073E+01 -0.42090496389E+02  0.32018189128E+02  0.53292669726E+02  0.51100000000E-03 0.  1.
         11    1    3    3    0    0  0.65828812073E+01  0.42090496389E+02  0.80879901740E+02  0.91413908772E+02  0.51100000000E-03 0. -1.
<mgrwt>
<rscale>  0 0.90520798E+02</rscale>
<asrwt>0</asrwt>
<pdfrwt beam="2">  1        3 0.24468067E-02 0.90520798E+02</pdfrwt>
<pdfrwt beam="1">  1       -3 0.19815744E-01 0.90520798E+02</pdfrwt>
<totfact> 0.32259394E+04</totfact>
</mgrwt>
</event>
<event>
 5    1  0.7431090E-001  0.9144853E+02  0.7818608E-02  0.1299381E+00
         -3   -1    0    0    0  501 -0.00000000000E+00  0.00000000000E+00  0.12637681366E+02  0.12638023552E+02  0.93000000000E-01 0.  1.
          3   -1    0    0  501    0  0.00000000000E+00 -0.00000000000E+00 -0.16543191281E+03  0.16543193895E+03  0.93000000000E-01 0. -1.
         23    2    1    2    0    0  0.00000000000E+00  0.00000000000E+00 -0.15279423145E+03  0.17806996251E+03  0.91448534068E+02 0.  0.
        -11    1    3    3    0    0  0.44369296145E+02 -0.33588588760E+01 -0.96893089452E+02  0.10662170116E+03  0.51100000000E-03 0. -1.
         11    1    3    3    0    0 -0.44369296145E+02  0.33588588760E+01 -0.55901141995E+02  0.71448261350E+02  0.51100000000E-03 0.  1.
<mgrwt>
<rscale>  0 0.91448534E+02</rscale>
<asrwt>0</asrwt>
<pdfrwt beam="2">  1        3 0.25451090E-01 0.91448534E+02</pdfrwt>
<pdfrwt beam="1">  1       -3 0.19442871E-02 0.91448534E+02</pdfrwt>
<totfact> 0.29434815E+04</totfact>
</mgrwt>
</event>
<event>
 5    1  0.7431090E-001  0.8989353E+02  0.7818608E-02  0.1303110E+00
          3   -1    0    0  501    0  0.00000000000E+00  0.00000000000E+00  0.57751147481E+02  0.57751222362E+02  0.93000000000E-01 0. -1.
         -3   -1    0    0    0  501 -0.00000000000E+00 -0.00000000000E+00 -0.34981164631E+02  0.34981288255E+02  0.93000000000E-01 0.  1.
         23    2    1    2    0    0  0.00000000000E+00  0.00000000000E+00  0.22769982849E+02  0.92732510617E+02  0.89893528167E+02 0.  0.
        -11    1    3    3    0    0  0.13641595488E+02 -0.18728512916E+02  0.51115768635E+02  0.56121939800E+02  0.51100000000E-03 0. -1.
         11    1    3    3    0    0 -0.13641595488E+02  0.18728512916E+02 -0.28345785786E+02  0.36610570817E+02  0.51100000000E-03 0.  1.
<mgrwt>
<rscale>  0 0.89893528E+02</rscale>
<asrwt>0</asrwt>
<pdfrwt beam="1">  1        3 0.88848071E-02 0.89893528E+02</pdfrwt>
<pdfrwt beam="2">  1       -3 0.53817329E-02 0.89893528E+02</pdfrwt>
<totfact> 0.36602852E+04</totfact>
</mgrwt>
</event>
<event>
 5    1  0.7431090E-001  0.9086520E+02  0.7818608E-02  0.1300770E+00
         -3   -1    0    0    0  501 -0.00000000000E+00  0.00000000000E+00  0.95027306229E+02  0.95027351736E+02  0.93000000000E-01 0.  1.
          3   -1    0    0  501    0  0.00000000000E+00 -0.00000000000E+00 -0.21721197123E+02  0.21721396214E+02  0.93000000000E-01 0. -1.
         23    2    1    2    0    0  0.00000000000E+00  0.00000000000E+00  0.73306109105E+02  0.11674874795E+03  0.90865199696E+02 0.  0.
        -11    1    3    3    0    0  0.43781521635E+02 -0.12004440923E+02  0.34357188021E+02  0.56932807831E+02  0.51100000000E-03 0.  1.
         11    1    3    3    0    0 -0.43781521635E+02  0.12004440923E+02  0.38948921084E+02  0.59815940120E+02  0.51100000000E-03 0. -1.
<mgrwt>
<rscale>  0 0.90865200E+02</rscale>
<asrwt>0</asrwt>
<pdfrwt beam="2">  1        3 0.33417414E-02 0.90865200E+02</pdfrwt>
<pdfrwt beam="1">  1       -3 0.14619605E-01 0.90865200E+02</pdfrwt>
<totfact> 0.33784552E+04</totfact>
</mgrwt>
</event>
<event>
 5    1  0.7431090E-001  0.8302568E+02  0.7818608E-02  0.1320678E+00
          3   -1    0    0  501    0  0.00000000000E+00  0.00000000000E+00  0.10218941629E+02  0.10219364805E+02  0.93000000000E-01 0. -1.
         -3   -1    0    0    0  501 -0.00000000000E+00 -0.00000000000E+00 -0.16863544758E+03  0.16863547322E+03  0.93000000000E-01 0.  1.
         23    2    1    2    0    0  0.00000000000E+00  0.00000000000E+00 -0.15841650595E+03  0.17885483803E+03  0.83025681141E+02 0.  0.
        -11    1    3    3    0    0  0.11451922800E+01 -0.40153280409E+02 -0.10177288487E+03  0.10941351602E+03  0.51100000000E-03 0.  1.
         11    1    3    3    0    0 -0.11451922800E+01  0.40153280409E+02 -0.56643621079E+02  0.69441322008E+02  0.51100000000E-03 0. -1.
<mgrwt>
<rscale>  0 0.83025681E+02</rscale>
<asrwt>0</asrwt>
<pdfrwt beam="1">  1        3 0.15721795E-02 0.83025681E+02</pdfrwt>
<pdfrwt beam="2">  1       -3 0.25943948E-01 0.83025681E+02</pdfrwt>
<totfact> 0.38095703E+04</totfact>
</mgrwt>
</event>
<event>
 5    1  0.7431090E-001  0.9058150E+02  0.7818608E-02  0.1301450E+00
          3   -1    0    0  501    0  0.00000000000E+00  0.00000000000E+00  0.27842124599E+02  0.27842279921E+02  0.93000000000E-01 0.  1.
         -3   -1    0    0    0  501 -0.00000000000E+00 -0.00000000000E+00 -0.73674021986E+02  0.73674080684E+02  0.93000000000E-01 0. -1.
         23    2    1    2    0    0  0.00000000000E+00  0.00000000000E+00 -0.45831897387E+02  0.10151636060E+03  0.90581502815E+02 0.  0.
        -11    1    3    3    0    0  0.76542139033E+01  0.24423304205E+02 -0.64791955545E+02  0.69664067369E+02  0.51100000000E-03 0. -1.
         11    1    3    3    0    0 -0.76542139033E+01 -0.24423304205E+02  0.18960058157E+02  0.31852293236E+02  0.51100000000E-03 0.  1.
<mgrwt>
<rscale>  0 0.90581503E+02</rscale>
<asrwt>0</asrwt>
<pdfrwt beam="1">  1        3 0.42834203E-02 0.90581503E+02</pdfrwt>
<pdfrwt beam="2">  1       -3 0.11334481E-01 0.90581503E+02</pdfrwt>
<totfact> 0.35181398E+04</totfact>
</mgrwt>
</event>
<event>
 5    1  0.7431090E-001  0.1054716E+03  0.7818608E-02  0.1269193E+00
         -3   -1    0    0    0  501 -0.00000000000E+00  0.00000000000E+00  0.10535113255E+03  0.10535117360E+03  0.93000000000E-01 0.  1.
          3   -1    0    0  501    0  0.00000000000E+00 -0.00000000000E+00 -0.26397916056E+02  0.26398079876E+02  0.93000000000E-01 0. -1.
         23    2    1    2    0    0  0.00000000000E+00  0.00000000000E+00  0.78953216492E+02  0.13174925347E+03  0.10547158573E+03 0.  0.
        -11    1    3    3    0    0 -0.49771849368E+01 -0.19854784907E+02  0.10018656121E+03  0.10225620715E+03  0.51100000000E-03 0.  1.
         11    1    3    3    0    0  0.49771849368E+01  0.19854784907E+02 -0.21233344713E+02  0.29493046326E+02  0.51100000000E-03 0. -1.
<mgrwt>
<rscale>  0 0.10547159E+03</rscale>
<asrwt>0</asrwt>
<pdfrwt beam="2">  1        3 0.40612336E-02 0.10547159E+03</pdfrwt>
<pdfrwt beam="1">  1       -3 0.16207882E-01 0.10547159E+03</pdfrwt>
<totfact> 0.21785554E+04</totfact>
</mgrwt>
</event>
<event>
 5    1  0.7431090E-001  0.9479166E+02  0.7818608E-02  0.1291646E+00
          3   -1    0    0  501    0  0.00000000000E+00  0.00000000000E+00  0.29845065190E+03  0.29845066639E+03  0.93000000000E-01 0. -1.
         -3   -1    0    0    0  501 -0.00000000000E+00 -0.00000000000E+00 -0.75264517364E+01  0.75270262880E+01  0.93000000000E-01 0.  1.
         23    2    1    2    0    0  0.00000000000E+00  0.00000000000E+00  0.29092420016E+03  0.30597769267E+03  0.94791656676E+02 0.  0.
        -11    1    3    3    0    0 -0.66182270314E+01  0.46617249246E+02  0.16296304351E+03  0.16962877824E+03  0.51100000000E-03 0. -1.
         11    1    3    3    0    0  0.66182270314E+01 -0.46617249246E+02  0.12796115665E+03  0.13634891444E+03  0.51100000000E-03 0.  1.
<mgrwt>
<rscale>  0 0.94791657E+02</rscale>
<asrwt>0</asrwt>
<pdfrwt beam="1">  1        3 0.45915518E-01 0.94791657E+02</pdfrwt>
<pdfrwt beam="2">  1       -3 0.11579613E-02 0.94791657E+02</pdfrwt>
<totfact> 0.21436002E+04</totfact>
</mgrwt>
</event>
<event>
 5    1  0.7431090E-001  0.9201668E+02  0.7818608E-02  0.1298040E+00
         -3   -1    0    0    0  501 -0.00000000000E+00  0.00000000000E+00  0.19799764608E+03  0.19799766792E+03  0.93000000000E-01 0.  1.
          3   -1    0    0  501    0  0.00000000000E+00 -0.00000000000E+00 -0.10690647724E+02  0.10691052228E+02  0.93000000000E-01 0. -1.
         23    2    1    2    0    0  0.00000000000E+00  0.00000000000E+00  0.18730699835E+03  0.20868872015E+03  0.92016684814E+02 0.  0.
        -11    1    3    3    0    0  0.35949798580E+02 -0.20522929140E+02  0.48114163145E+02  0.63470869963E+02  0.51100000000E-03 0. -1.
         11    1    3    3    0    0 -0.35949798580E+02  0.20522929140E+02  0.13919283521E+03  0.14521785018E+03  0.51100000000E-03 0.  1.
<mgrwt>
<rscale>  0 0.92016685E+02</rscale>
<asrwt>0</asrwt>
<pdfrwt beam="2">  1        3 0.16447479E-02 0.92016685E+02</pdfrwt>
<pdfrwt beam="1">  1       -3 0.30461208E-01 0.92016685E+02</pdfrwt>
<totfact> 0.27367293E+04</totfact>
</mgrwt>
</event>
<event>
 5    1  0.7431090E-001  0.7936737E+02  0.7818608E-02  0.1330856E+00
          3   -1    0    0  501    0  0.00000000000E+00  0.00000000000E+00  0.17975456370E+03  0.17975458776E+03  0.93000000000E-01 0. -1.
         -3   -1    0    0    0  501 -0.00000000000E+00 -0.00000000000E+00 -0.87605348272E+01  0.87610284476E+01  0.93000000000E-01 0.  1.
         23    2    1    2    0    0  0.00000000000E+00  0.00000000000E+00  0.17099402887E+03  0.18851561621E+03  0.79367371402E+02 0.  0.
        -11    1    3    3    0    0  0.26274462253E+02 -0.85304024763E+01  0.17826777364E+02  0.32877182430E+02  0.51100000000E-03 0.  1.
         11    1    3    3    0    0 -0.26274462253E+02  0.85304024763E+01  0.15316725151E+03  0.15563843378E+03  0.51100000000E-03 0. -1.
<mgrwt>
<rscale>  0 0.79367371E+02</rscale>
<asrwt>0</asrwt>
<pdfrwt beam="1">  1        3 0.27654589E-01 0.79367371E+02</pdfrwt>
<pdfrwt beam="2">  1       -3 0.13478144E-02 0.79367371E+02</pdfrwt>
<totfact> 0.42181156E+04</totfact>
</mgrwt>
</event>
<event>
 5    1  0.7431090E-001  0.8998777E+02  0.7818608E-02  0.1302881E+00
          3   -1    0    0  501    0  0.00000000000E+00  0.00000000000E+00  0.36693297426E+02  0.36693415281E+02  0.93000000000E-01 0. -1.
         -3   -1    0    0    0  501 -0.00000000000E+00 -0.00000000000E+00 -0.55171947246E+02  0.55172025628E+02  0.93000000000E-01 0.  1.
         23    2    1    2    0    0  0.00000000000E+00  0.00000000000E+00 -0.18478649820E+02  0.91865440909E+02  0.89987769915E+02 0.  0.
        -11    1    3    3    0    0  0.27932050075E+02 -0.16675503844E+02 -0.40971307643E+02  0.52315579898E+02  0.51100000000E-03 0.  1.
         11    1    3    3    0    0 -0.27932050075E+02  0.16675503844E+02  0.22492657823E+02  0.39549861011E+02  0.51100000000E-03 0. -1.
<mgrwt>
<rscale>  0 0.89987770E+02</rscale>
<asrwt>0</asrwt>
<pdfrwt beam="1">  1        3 0.56451378E-02 0.89987770E+02</pdfrwt>
<pdfrwt beam="2">  1       -3 0.84880070E-02 0.89987770E+02</pdfrwt>
<totfact> 0.36568492E+04</totfact>
</mgrwt>
</event>
<event>
 5    1  0.7431090E-001  0.9048436E+02  0.7818608E-02  0.1301683E+00
          3   -1    0    0  501    0  0.00000000000E+00  0.00000000000E+00  0.42590097088E+02  0.42590198626E+02  0.93000000000E-01 0. -1.
         -3   -1    0    0    0  501 -0.00000000000E+00 -0.00000000000E+00 -0.48059206671E+02  0.48059296654E+02  0.93000000000E-01 0.  1.
         23    2    1    2    0    0  0.00000000000E+00  0.00000000000E+00 -0.54691095829E+01  0.90649495279E+02  0.90484362377E+02 0.  0.
        -11    1    3    3    0    0 -0.99395881470E+01  0.81123519521E+01  0.40729519184E+02  0.42702451920E+02  0.51100000000E-03 0. -1.
         11    1    3    3    0    0  0.99395881470E+01 -0.81123519521E+01 -0.46198628767E+02  0.47947043360E+02  0.51100000000E-03 0.  1.
<mgrwt>
<rscale>  0 0.90484362E+02</rscale>
<asrwt>0</asrwt>
<pdfrwt beam="1">  1        3 0.65523374E-02 0.90484362E+02</pdfrwt>
<pdfrwt beam="2">  1       -3 0.73937388E-02 0.90484362E+02</pdfrwt>
<totfact> 0.36121016E+04</totfact>
</mgrwt>
</event>
<event>
 5    1  0.7431090E-001  0.9268371E+02  0.7818608E-02  0.1296480E+00
         -3   -1    0    0    0  501 -0.00000000000E+00  0.00000000000E+00  0.16450101923E+03  0.16450104552E+03  0.93000000000E-01 0.  1.
          3   -1    0    0  501    0  0.00000000000E+00 -0.00000000000E+00 -0.13054848219E+02  0.13055179471E+02  0.93000000000E-01 0. -1.
         23    2    1    2    0    0  0.00000000000E+00  0.00000000000E+00  0.15144617101E+03  0.17755622499E+03  0.92683711182E+02 0.  0.
        -11    1    3    3    0    0 -0.38459709527E+02  0.45263753863E+01  0.12448678153E+03  0.13037099412E+03  0.51100000000E-03 0.  1.
         11    1    3    3    0    0  0.38459709527E+02 -0.45263753863E+01  0.26959389480E+02  0.47185230872E+02  0.51100000000E-03 0. -1.
<mgrwt>
<rscale>  0 0.92683711E+02</rscale>
<asrwt>0</asrwt>
<pdfrwt beam="2">  1        3 0.20084658E-02 0.92683711E+02</pdfrwt>
<pdfrwt beam="1">  1       -3 0.25307876E-01 0.92683711E+02</pdfrwt>
<totfact> 0.28411421E+04</totfact>
</mgrwt>
</event>
<event>
 5    1  0.7431090E-001  0.9742335E+02  0.7818608E-02  0.1285810E+00
          3   -1    0    0  501    0  0.00000000000E+00  0.00000000000E+00  0.86241047863E+02  0.86241098007E+02  0.93000000000E-01 0. -1.
         -3   -1    0    0    0  501 -0.00000000000E+00 -0.00000000000E+00 -0.27513757438E+02  0.27513914613E+02  0.93000000000E-01 0.  1.
         23    2    1    2    0    0  0.00000000000E+00  0.00000000000E+00  0.58727290425E+02  0.11375501262E+03  0.97423345536E+02 0.  0.
        -11    1    3    3    0    0  0.47885072932E+02  0.85682835611E+01  0.26402502928E+02  0.55348783672E+02  0.51100000000E-03 0.  1.
         11    1    3    3    0    0 -0.47885072932E+02 -0.85682835611E+01  0.32324787497E+02  0.58406228948E+02  0.51100000000E-03 0. -1.
<mgrwt>
<rscale>  0 0.97423346E+02</rscale>
<asrwt>0</asrwt>
<pdfrwt beam="1">  1        3 0.13267870E-01 0.97423346E+02</pdfrwt>
<pdfrwt beam="2">  1       -3 0.42329017E-02 0.97423346E+02</pdfrwt>
<totfact> 0.28103100E+04</totfact>
</mgrwt>
</event>
<event>
 5    1  0.7431090E-001  0.9146740E+02  0.7818608E-02  0.1299337E+00
         -3   -1    0    0    0  501 -0.00000000000E+00  0.00000000000E+00  0.31232602503E+02  0.31232740964E+02  0.93000000000E-01 0.  1.
          3   -1    0    0  501    0  0.00000000000E+00 -0.00000000000E+00 -0.66967239654E+02  0.66967304230E+02  0.93000000000E-01 0. -1.
         23    2    1    2    0    0  0.00000000000E+00  0.00000000000E+00 -0.35734637151E+02  0.98200045193E+02  0.91467396288E+02 0.  0.
        -11    1    3    3    0    0 -0.22100192291E+02 -0.36167252374E+02 -0.36309704239E+02  0.55811139263E+02  0.51100000000E-03 0. -1.
         11    1    3    3    0    0  0.22100192291E+02  0.36167252374E+02  0.57506708831E+00  0.42388905931E+02  0.51100000000E-03 0.  1.
<mgrwt>
<rscale>  0 0.91467396E+02</rscale>
<asrwt>0</asrwt>
<pdfrwt beam="2">  1        3 0.10302668E-01 0.91467396E+02</pdfrwt>
<pdfrwt beam="1">  1       -3 0.48050314E-02 0.91467396E+02</pdfrwt>
<totfact> 0.34504275E+04</totfact>
</mgrwt>
</event>
<event>
 5    1  0.7431090E-001  0.9047131E+02  0.7818608E-02  0.1301714E+00
         -3   -1    0    0    0  501 -0.00000000000E+00  0.00000000000E+00  0.31567308454E+02  0.31567445447E+02  0.93000000000E-01 0.  1.
          3   -1    0    0  501    0  0.00000000000E+00 -0.00000000000E+00 -0.64821957107E+02  0.64822023820E+02  0.93000000000E-01 0. -1.
         23    2    1    2    0    0  0.00000000000E+00  0.00000000000E+00 -0.33254648652E+02  0.96389469267E+02  0.90471311080E+02 0.  0.
        -11    1    3    3    0    0 -0.19046107930E+02  0.69199402777E+01 -0.59715741345E+02  0.63060364456E+02  0.51100000000E-03 0. -1.
         11    1    3    3    0    0  0.19046107930E+02 -0.69199402777E+01  0.26461092693E+02  0.33329104811E+02  0.51100000000E-03 0.  1.
<mgrwt>
<rscale>  0 0.90471311E+02</rscale>
<asrwt>0</asrwt>
<pdfrwt beam="2">  1        3 0.99726244E-02 0.90471311E+02</pdfrwt>
<pdfrwt beam="1">  1       -3 0.48565247E-02 0.90471311E+02</pdfrwt>
<totfact> 0.35686725E+04</totfact>
</mgrwt>
</event>
<event>
 5    1  0.7431090E-001  0.9292556E+02  0.7818608E-02  0.1295918E+00
          3   -1    0    0  501    0  0.00000000000E+00  0.00000000000E+00  0.12207343206E+03  0.12207346748E+03  0.93000000000E-01 0. -1.
         -3   -1    0    0    0  501 -0.00000000000E+00 -0.00000000000E+00 -0.17684193318E+02  0.17684437857E+02  0.93000000000E-01 0.  1.
         23    2    1    2    0    0  0.00000000000E+00  0.00000000000E+00  0.10438923874E+03  0.13975790534E+03  0.92925555905E+02 0.  0.
        -11    1    3    3    0    0  0.38915331930E+02  0.24873830827E+02  0.59815972615E+02  0.75571562769E+02  0.51100000000E-03 0.  1.
         11    1    3    3    0    0 -0.38915331930E+02 -0.24873830827E+02  0.44573266123E+02  0.64186342569E+02  0.51100000000E-03 0. -1.
<mgrwt>
<rscale>  0 0.92925556E+02</rscale>
<asrwt>0</asrwt>
<pdfrwt beam="1">  1        3 0.18780550E-01 0.92925556E+02</pdfrwt>
<pdfrwt beam="2">  1       -3 0.27206666E-02 0.92925556E+02</pdfrwt>
<totfact> 0.30338213E+04</totfact>
</mgrwt>
</event>
<event>
 5    1  0.7431090E-001  0.7890486E+02  0.7818608E-02  0.1332188E+00
          3   -1    0    0  501    0  0.00000000000E+00  0.00000000000E+00  0.88190046307E+02  0.88190095343E+02  0.93000000000E-01 0. -1.
         -3   -1    0    0    0  501 -0.00000000000E+00 -0.00000000000E+00 -0.17649140444E+02  0.17649385468E+02  0.93000000000E-01 0.  1.
         23    2    1    2    0    0  0.00000000000E+00  0.00000000000E+00  0.70540905863E+02  0.10583948081E+03  0.78904855987E+02 0.  0.
        -11    1    3    3    0    0  0.28367721680E+02 -0.25262472571E+02  0.20975481943E+02  0.43392291904E+02  0.51100000000E-03 0. -1.
         11    1    3    3    0    0 -0.28367721680E+02  0.25262472571E+02  0.49565423920E+02  0.62447188907E+02  0.51100000000E-03 0.  1.
<mgrwt>
<rscale>  0 0.78904856E+02</rscale>
<asrwt>0</asrwt>
<pdfrwt beam="1">  1        3 0.13567722E-01 0.78904856E+02</pdfrwt>
<pdfrwt beam="2">  1       -3 0.27152750E-02 0.78904856E+02</pdfrwt>
<totfact> 0.50545959E+04</totfact>
</mgrwt>
</event>
<event>
 5    1  0.7431090E-001  0.9131904E+02  0.7818608E-02  0.1299689E+00
         -3   -1    0    0    0  501 -0.00000000000E+00  0.00000000000E+00  0.73500584687E+02  0.73500643523E+02  0.93000000000E-01 0.  1.
          3   -1    0    0  501    0  0.00000000000E+00 -0.00000000000E+00 -0.28364139738E+02  0.28364292201E+02  0.93000000000E-01 0. -1.
         23    2    1    2    0    0  0.00000000000E+00  0.00000000000E+00  0.45136444949E+02  0.10186493572E+03  0.91319036720E+02 0.  0.
        -11    1    3    3    0    0 -0.79208179891E+01 -0.33782200907E+02  0.55674151864E+02  0.65601735052E+02  0.51100000000E-03 0.  1.
         11    1    3    3    0    0  0.79208179891E+01  0.33782200907E+02 -0.10537706915E+02  0.36263200673E+02  0.51100000000E-03 0. -1.
<mgrwt>
<rscale>  0 0.91319037E+02</rscale>
<asrwt>0</asrwt>
<pdfrwt beam="2">  1        3 0.43637301E-02 0.91319037E+02</pdfrwt>
<pdfrwt beam="1">  1       -3 0.11307798E-01 0.91319037E+02</pdfrwt>
<totfact> 0.34388428E+04</totfact>
</mgrwt>
</event>
<event>
 5    1  0.7431090E-001  0.9091799E+02  0.7818608E-02  0.1300644E+00
         -3   -1    0    0    0  501 -0.00000000000E+00  0.00000000000E+00  0.11020054789E+02  0.11020447202E+02  0.93000000000E-01 0.  1.
          3   -1    0    0  501    0  0.00000000000E+00 -0.00000000000E+00 -0.18751985071E+03  0.18751987377E+03  0.93000000000E-01 0. -1.
         23    2    1    2    0    0  0.00000000000E+00  0.00000000000E+00 -0.17649979592E+03  0.19854032097E+03  0.90917991025E+02 0.  0.
        -11    1    3    3    0    0 -0.24941855783E+02 -0.32735944308E+02 -0.46087394788E+02  0.61788236568E+02  0.51100000000E-03 0.  1.
         11    1    3    3    0    0  0.24941855783E+02  0.32735944308E+02 -0.13041240113E+03  0.13675208440E+03  0.51100000000E-03 0. -1.
<mgrwt>
<rscale>  0 0.90917991E+02</rscale>
<asrwt>0</asrwt>
<pdfrwt beam="2">  1        3 0.28849238E-01 0.90917991E+02</pdfrwt>
<pdfrwt beam="1">  1       -3 0.16954251E-02 0.90917991E+02</pdfrwt>
<totfact> 0.28794210E+04</totfact>
</mgrwt>
</event>
<event>
 5    1  0.7431090E-001  0.9443544E+02  0.7818608E-02  0.1292453E+00
          3   -1    0    0  501    0  0.00000000000E+00  0.00000000000E+00  0.15221402375E+02  0.15221686479E+02  0.93000000000E-01 0. -1.
         -3   -1    0    0    0  501 -0.00000000000E+00 -0.00000000000E+00 -0.14647059161E+03  0.14647062113E+03  0.93000000000E-01 0.  1.
         23    2    1    2    0    0  0.00000000000E+00  0.00000000000E+00 -0.13124918923E+03  0.16169230761E+03  0.94435441791E+02 0.  0.
        -11    1    3    3    0    0 -0.31447662892E+02  0.32947940763E+02 -0.86940677141E+02  0.98148885087E+02  0.51100000000E-03 0. -1.
         11    1    3    3    0    0  0.31447662892E+02 -0.32947940763E+02 -0.44308512090E+02  0.63543422522E+02  0.51100000000E-03 0.  1.
<mgrwt>
<rscale>  0 0.94435442E+02</rscale>
<asrwt>0</asrwt>
<pdfrwt beam="1">  1        3 0.23417784E-02 0.94435442E+02</pdfrwt>
<pdfrwt beam="2">  1       -3 0.22533960E-01 0.94435442E+02</pdfrwt>
<totfact> 0.27824009E+04</totfact>
</mgrwt>
</event>
<event>
 5    1  0.7431090E-001  0.9043196E+02  0.7818608E-02  0.1301809E+00
          3   -1    0    0  501    0  0.00000000000E+00  0.00000000000E+00  0.17677227300E+03  0.17677229747E+03  0.93000000000E-01 0. -1.
         -3   -1    0    0    0  501 -0.00000000000E+00 -0.00000000000E+00 -0.11565430544E+02  0.11565804454E+02  0.93000000000E-01 0.  1.
         23    2    1    2    0    0  0.00000000000E+00  0.00000000000E+00  0.16520684246E+03  0.18833810192E+03  0.90431962492E+02 0.  0.
        -11    1    3    3    0    0 -0.20731510473E+02  0.33563845344E+02  0.12861809147E+03  0.13453230354E+03  0.51100000000E-03 0. -1.
         11    1    3    3    0    0  0.20731510473E+02 -0.33563845344E+02  0.36588750987E+02  0.53805798385E+02  0.51100000000E-03 0.  1.
<mgrwt>
<rscale>  0 0.90431962E+02</rscale>
<asrwt>0</asrwt>
<pdfrwt beam="1">  1        3 0.27195764E-01 0.90431962E+02</pdfrwt>
<pdfrwt beam="2">  1       -3 0.17793277E-02 0.90431962E+02</pdfrwt>
<totfact> 0.29763948E+04</totfact>
</mgrwt>
</event>
<event>
 5    1  0.7431090E-001  0.9005012E+02  0.7818608E-02  0.1302730E+00
          3   -1    0    0  501    0  0.00000000000E+00  0.00000000000E+00  0.69589757962E+02  0.69589820105E+02  0.93000000000E-01 0. -1.
         -3   -1    0    0    0  501 -0.00000000000E+00 -0.00000000000E+00 -0.29131377827E+02  0.29131526275E+02  0.93000000000E-01 0.  1.
         23    2    1    2    0    0  0.00000000000E+00  0.00000000000E+00  0.40458380134E+02  0.98721346380E+02  0.90050117757E+02 0.  0.
        -11    1    3    3    0    0  0.14084750912E+02  0.75946821031E+01 -0.25908958169E+02  0.30452151290E+02  0.51100000000E-03 0.  1.
         11    1    3    3    0    0 -0.14084750912E+02 -0.75946821031E+01  0.66367338304E+02  0.68269195090E+02  0.51100000000E-03 0. -1.
<mgrwt>
<rscale>  0 0.90050118E+02</rscale>
<asrwt>0</asrwt>
<pdfrwt beam="1">  1        3 0.10706133E-01 0.90050118E+02</pdfrwt>
<pdfrwt beam="2">  1       -3 0.44817667E-02 0.90050118E+02</pdfrwt>
<totfact> 0.35960561E+04</totfact>
</mgrwt>
</event>
<event>
 5    1  0.7431090E-001  0.9436718E+02  0.7818608E-02  0.1292608E+00
          3   -1    0    0  501    0  0.00000000000E+00  0.00000000000E+00  0.66052482637E+02  0.66052548108E+02  0.93000000000E-01 0. -1.
         -3   -1    0    0    0  501 -0.00000000000E+00 -0.00000000000E+00 -0.33704738781E+02  0.33704867086E+02  0.93000000000E-01 0.  1.
         23    2    1    2    0    0  0.00000000000E+00  0.00000000000E+00  0.32347743856E+02  0.99757415194E+02  0.94367183669E+02 0.  0.
        -11    1    3    3    0    0  0.29394358775E+02 -0.29993179784E+01 -0.22714159207E+02  0.37268716974E+02  0.51100000000E-03 0.  1.
         11    1    3    3    0    0 -0.29394358775E+02  0.29993179784E+01  0.55061903063E+02  0.62488698221E+02  0.51100000000E-03 0. -1.
<mgrwt>
<rscale>  0 0.94367184E+02</rscale>
<asrwt>0</asrwt>
<pdfrwt beam="1">  1        3 0.10161935E-01 0.94367184E+02</pdfrwt>
<pdfrwt beam="2">  1       -3 0.51853594E-02 0.94367184E+02</pdfrwt>
<totfact> 0.31578623E+04</totfact>
</mgrwt>
</event>
<event>
 5    1  0.7431090E-001  0.8406170E+02  0.7818608E-02  0.1317905E+00
          3   -1    0    0  501    0  0.00000000000E+00  0.00000000000E+00  0.48648173349E+02  0.48648262242E+02  0.93000000000E-01 0. -1.
         -3   -1    0    0    0  501 -0.00000000000E+00 -0.00000000000E+00 -0.36313463498E+02  0.36313582586E+02  0.93000000000E-01 0.  1.
         23    2    1    2    0    0  0.00000000000E+00  0.00000000000E+00  0.12334709850E+02  0.84961844828E+02  0.84061703585E+02 0.  0.
        -11    1    3    3    0    0  0.77620812606E+01 -0.12389216213E+02 -0.33660827585E+02  0.36698690683E+02  0.51100000000E-03 0.  1.
         11    1    3    3    0    0 -0.77620812606E+01  0.12389216213E+02  0.45995537435E+02  0.48263154145E+02  0.51100000000E-03 0. -1.
<mgrwt>
<rscale>  0 0.84061704E+02</rscale>
<asrwt>0</asrwt>
<pdfrwt beam="1">  1        3 0.74843503E-02 0.84061704E+02</pdfrwt>
<pdfrwt beam="2">  1       -3 0.55867027E-02 0.84061704E+02</pdfrwt>
<totfact> 0.44646803E+04</totfact>
</mgrwt>
</event>
<event>
 5    1  0.7431090E-001  0.9105587E+02  0.7818608E-02  0.1300315E+00
         -3   -1    0    0    0  501 -0.00000000000E+00  0.00000000000E+00  0.96763088914E+02  0.96763133606E+02  0.93000000000E-01 0.  1.
          3   -1    0    0  501    0  0.00000000000E+00 -0.00000000000E+00 -0.21421168020E+02  0.21421369899E+02  0.93000000000E-01 0. -1.
         23    2    1    2    0    0  0.00000000000E+00  0.00000000000E+00  0.75341920894E+02  0.11818450351E+03  0.91055871995E+02 0.  0.
        -11    1    3    3    0    0 -0.34450725693E+02  0.25250916021E+02  0.17217412463E+02  0.46053236074E+02  0.51100000000E-03 0.  1.
         11    1    3    3    0    0  0.34450725693E+02 -0.25250916021E+02  0.58124508431E+02  0.72131267432E+02  0.51100000000E-03 0. -1.
<mgrwt>
<rscale>  0 0.91055872E+02</rscale>
<asrwt>0</asrwt>
<pdfrwt beam="2">  1        3 0.32955833E-02 0.91055872E+02</pdfrwt>
<pdfrwt beam="1">  1       -3 0.14886648E-01 0.91055872E+02</pdfrwt>
<totfact> 0.33493401E+04</totfact>
</mgrwt>
</event>
<event>
 5    1  0.7431090E-001  0.9109950E+02  0.7818608E-02  0.1300211E+00
         -3   -1    0    0    0  501 -0.00000000000E+00  0.00000000000E+00  0.14626132257E+03  0.14626135214E+03  0.93000000000E-01 0. -1.
          3   -1    0    0  501    0  0.00000000000E+00 -0.00000000000E+00 -0.14185246578E+02  0.14185551433E+02  0.93000000000E-01 0.  1.
         23    2    1    2    0    0  0.00000000000E+00  0.00000000000E+00  0.13207607600E+03  0.16044690357E+03  0.91099500635E+02 0.  0.
        -11    1    3    3    0    0  0.17359295270E+02 -0.26732487970E+02  0.87288709801E+01  0.33047908166E+02  0.51100000000E-03 0.  1.
         11    1    3    3    0    0 -0.17359295270E+02  0.26732487970E+02  0.12334720502E+03  0.12739899541E+03  0.51100000000E-03 0. -1.
<mgrwt>
<rscale>  0 0.91099501E+02</rscale>
<asrwt>0</asrwt>
<pdfrwt beam="2">  1        3 0.21823713E-02 0.91099501E+02</pdfrwt>
<pdfrwt beam="1">  1       -3 0.22501768E-01 0.91099501E+02</pdfrwt>
<totfact> 0.30751261E+04</totfact>
</mgrwt>
</event>
<event>
 5    1  0.7431090E-001  0.9205181E+02  0.7818608E-02  0.1297958E+00
         -3   -1    0    0    0  501 -0.00000000000E+00  0.00000000000E+00  0.95511376365E+02  0.95511421642E+02  0.93000000000E-01 0.  1.
          3   -1    0    0  501    0  0.00000000000E+00 -0.00000000000E+00 -0.22179241380E+02  0.22179436359E+02  0.93000000000E-01 0. -1.
         23    2    1    2    0    0  0.00000000000E+00  0.00000000000E+00  0.73332134985E+02  0.11769085800E+03  0.92051811692E+02 0.  0.
        -11    1    3    3    0    0 -0.30608549669E+02 -0.11218307940E+02  0.78206443061E+02  0.84728870419E+02  0.51100000000E-03 0.  1.
         11    1    3    3    0    0  0.30608549669E+02  0.11218307940E+02 -0.48743080767E+01  0.32961987583E+02  0.51100000000E-03 0. -1.
<mgrwt>
<rscale>  0 0.92051812E+02</rscale>
<asrwt>0</asrwt>
<pdfrwt beam="2">  1        3 0.34122095E-02 0.92051812E+02</pdfrwt>
<pdfrwt beam="1">  1       -3 0.14694076E-01 0.92051812E+02</pdfrwt>
<totfact> 0.32549264E+04</totfact>
</mgrwt>
</event>
<event>
 5    1  0.7431090E-001  0.9256853E+02  0.7818608E-02  0.1296748E+00
          3   -1    0    0  501    0  0.00000000000E+00  0.00000000000E+00  0.29836601171E+02  0.29836746110E+02  0.93000000000E-01 0. -1.
         -3   -1    0    0    0  501 -0.00000000000E+00 -0.00000000000E+00 -0.71798487111E+02  0.71798547342E+02  0.93000000000E-01 0.  1.
         23    2    1    2    0    0  0.00000000000E+00  0.00000000000E+00 -0.41961885939E+02  0.10163529345E+03  0.92568531389E+02 0.  0.
        -11    1    3    3    0    0 -0.58077796014E+01  0.32033712853E+02  0.15140398143E+02  0.35904327305E+02  0.51100000000E-03 0.  1.
         11    1    3    3    0    0  0.58077796014E+01 -0.32033712853E+02 -0.57102284082E+02  0.65730966148E+02  0.51100000000E-03 0. -1.
<mgrwt>
<rscale>  0 0.92568531E+02</rscale>
<asrwt>0</asrwt>
<pdfrwt beam="1">  1        3 0.45902621E-02 0.92568531E+02</pdfrwt>
<pdfrwt beam="2">  1       -3 0.11045937E-01 0.92568531E+02</pdfrwt>
<totfact> 0.33152658E+04</totfact>
</mgrwt>
</event>
<event>
 5    1  0.7431090E-001  0.9130461E+02  0.7818608E-02  0.1299723E+00
         -3   -1    0    0    0  501 -0.00000000000E+00  0.00000000000E+00  0.65209499039E+02  0.65209565356E+02  0.93000000000E-01 0.  1.
          3   -1    0    0  501    0  0.00000000000E+00 -0.00000000000E+00 -0.31960421487E+02  0.31960556795E+02  0.93000000000E-01 0. -1.
         23    2    1    2    0    0  0.00000000000E+00  0.00000000000E+00  0.33249077552E+02  0.97170122151E+02  0.91304608212E+02 0.  0.
        -11    1    3    3    0    0  0.21935875341E+02 -0.28802938681E+02 -0.12970952927E+02  0.38458256899E+02  0.51100000000E-03 0. -1.
         11    1    3    3    0    0 -0.21935875341E+02  0.28802938681E+02  0.46220030479E+02  0.58711865252E+02  0.51100000000E-03 0.  1.
<mgrwt>
<rscale>  0 0.91304608E+02</rscale>
<asrwt>0</asrwt>
<pdfrwt beam="2">  1        3 0.49170035E-02 0.91304608E+02</pdfrwt>
<pdfrwt beam="1">  1       -3 0.10032246E-01 0.91304608E+02</pdfrwt>
<totfact> 0.34750382E+04</totfact>
</mgrwt>
</event>
<event>
 5    1  0.7431090E-001  0.9075003E+02  0.7818608E-02  0.1301045E+00
          3   -1    0    0  501    0  0.00000000000E+00  0.00000000000E+00  0.26678885199E+02  0.26679047293E+02  0.93000000000E-01 0. -1.
         -3   -1    0    0    0  501 -0.00000000000E+00 -0.00000000000E+00 -0.77172661688E+02  0.77172717724E+02  0.93000000000E-01 0.  1.
         23    2    1    2    0    0  0.00000000000E+00  0.00000000000E+00 -0.50493776488E+02  0.10385176502E+03  0.90750028282E+02 0.  0.
        -11    1    3    3    0    0  0.93816154407E+01  0.19499399051E+02 -0.70887821346E+02  0.74116964908E+02  0.51100000000E-03 0.  1.
         11    1    3    3    0    0 -0.93816154407E+01 -0.19499399051E+02  0.20394044858E+02  0.29734800110E+02  0.51100000000E-03 0. -1.
<mgrwt>
<rscale>  0 0.90750028E+02</rscale>
<asrwt>0</asrwt>
<pdfrwt beam="1">  1        3 0.41044607E-02 0.90750028E+02</pdfrwt>
<pdfrwt beam="2">  1       -3 0.11872734E-01 0.90750028E+02</pdfrwt>
<totfact> 0.34830832E+04</totfact>
</mgrwt>
</event>
<event>
 5    1  0.7431090E-001  0.9167923E+02  0.7818608E-02  0.1298835E+00
          3   -1    0    0  501    0  0.00000000000E+00  0.00000000000E+00  0.14491828223E+03  0.14491831207E+03  0.93000000000E-01 0. -1.
         -3   -1    0    0    0  501 -0.00000000000E+00 -0.00000000000E+00 -0.14499511043E+02  0.14499809291E+02  0.93000000000E-01 0.  1.
         23    2    1    2    0    0  0.00000000000E+00  0.00000000000E+00  0.13041877119E+03  0.15941812136E+03  0.91679231786E+02 0.  0.
        -11    1    3    3    0    0  0.40123740824E+02  0.22350535082E+01  0.26861113560E+02  0.48336626525E+02  0.51100000000E-03 0.  1.
         11    1    3    3    0    0 -0.40123740824E+02 -0.22350535082E+01  0.10355765763E+03  0.11108149484E+03  0.51100000000E-03 0. -1.
<mgrwt>
<rscale>  0 0.91679232E+02</rscale>
<asrwt>0</asrwt>
<pdfrwt beam="1">  1        3 0.22295145E-01 0.91679232E+02</pdfrwt>
<pdfrwt beam="2">  1       -3 0.22307193E-02 0.91679232E+02</pdfrwt>
<totfact> 0.30286048E+04</totfact>
</mgrwt>
</event>
<event>
 5    1  0.7431090E-001  0.8929655E+02  0.7818608E-02  0.1304564E+00
         -3   -1    0    0    0  501 -0.00000000000E+00  0.00000000000E+00  0.56464344852E+02  0.56464421440E+02  0.93000000000E-01 0.  1.
          3   -1    0    0  501    0  0.00000000000E+00 -0.00000000000E+00 -0.35304746376E+02  0.35304868867E+02  0.93000000000E-01 0. -1.
         23    2    1    2    0    0  0.00000000000E+00  0.00000000000E+00  0.21159598475E+02  0.91769290307E+02  0.89296551085E+02 0.  0.
        -11    1    3    3    0    0 -0.59438508502E+01  0.14611223475E+02  0.53505461696E+02  0.55782180362E+02  0.51100000000E-03 0.  1.
         11    1    3    3    0    0  0.59438508502E+01 -0.14611223475E+02 -0.32345863221E+02  0.35987109944E+02  0.51100000000E-03 0. -1.
<mgrwt>
<rscale>  0 0.89296551E+02</rscale>
<asrwt>0</asrwt>
<pdfrwt beam="2">  1        3 0.54315148E-02 0.89296551E+02</pdfrwt>
<pdfrwt beam="1">  1       -3 0.86868375E-02 0.89296551E+02</pdfrwt>
<totfact> 0.37349846E+04</totfact>
</mgrwt>
</event>
<event>
 5    1  0.7431090E-001  0.9081877E+02  0.7818608E-02  0.1300881E+00
          3   -1    0    0  501    0  0.00000000000E+00  0.00000000000E+00  0.26017237828E+02  0.26017404044E+02  0.93000000000E-01 0. -1.
         -3   -1    0    0    0  501 -0.00000000000E+00 -0.00000000000E+00 -0.79255163879E+02  0.79255218444E+02  0.93000000000E-01 0.  1.
         23    2    1    2    0    0  0.00000000000E+00  0.00000000000E+00 -0.53237926051E+02  0.10527262249E+03  0.90818766097E+02 0.  0.
        -11    1    3    3    0    0 -0.38839302501E+02 -0.23433141760E+02 -0.29052769865E+02  0.53867123449E+02  0.51100000000E-03 0. -1.
         11    1    3    3    0    0  0.38839302501E+02  0.23433141760E+02 -0.24185156186E+02  0.51405499040E+02  0.51100000000E-03 0.  1.
<mgrwt>
<rscale>  0 0.90818766E+02</rscale>
<asrwt>0</asrwt>
<pdfrwt beam="1">  1        3 0.40026690E-02 0.90818766E+02</pdfrwt>
<pdfrwt beam="2">  1       -3 0.12193119E-01 0.90818766E+02</pdfrwt>
<totfact> 0.34654798E+04</totfact>
</mgrwt>
</event>
<event>
 5    1  0.7431090E-001  0.9097602E+02  0.7818608E-02  0.1300505E+00
         -3   -1    0    0    0  501 -0.00000000000E+00  0.00000000000E+00  0.33862741842E+02  0.33862869549E+02  0.93000000000E-01 0.  1.
          3   -1    0    0  501    0  0.00000000000E+00 -0.00000000000E+00 -0.61104016253E+02  0.61104087026E+02  0.93000000000E-01 0. -1.
         23    2    1    2    0    0  0.00000000000E+00  0.00000000000E+00 -0.27241274411E+02  0.94966956575E+02  0.90976017771E+02 0.  0.
        -11    1    3    3    0    0  0.71076599850E+01  0.93875231335E+01  0.32244440636E+02  0.34327079299E+02  0.51100000000E-03 0.  1.
         11    1    3    3    0    0 -0.71076599850E+01 -0.93875231335E+01 -0.59485715047E+02  0.60639877275E+02  0.51100000000E-03 0. -1.
<mgrwt>
<rscale>  0 0.90976018E+02</rscale>
<asrwt>0</asrwt>
<pdfrwt beam="2">  1        3 0.94006332E-02 0.90976018E+02</pdfrwt>
<pdfrwt beam="1">  1       -3 0.52096678E-02 0.90976018E+02</pdfrwt>
<totfact> 0.35260051E+04</totfact>
</mgrwt>
</event>
<event>
 5    1  0.7431090E-001  0.9191530E+02  0.7818608E-02  0.1298279E+00
          3   -1    0    0  501    0  0.00000000000E+00  0.00000000000E+00  0.10423383455E+02  0.10423798332E+02  0.93000000000E-01 0. -1.
         -3   -1    0    0    0  501 -0.00000000000E+00 -0.00000000000E+00 -0.20262702263E+03  0.20262704397E+03  0.93000000000E-01 0.  1.
         23    2    1    2    0    0  0.00000000000E+00  0.00000000000E+00 -0.19220363917E+03  0.21305084230E+03  0.91915300654E+02 0.  0.
        -11    1    3    3    0    0  0.36707015695E+02 -0.23766213369E+02 -0.12887109037E+03  0.13608819138E+03  0.51100000000E-03 0.  1.
         11    1    3    3    0    0 -0.36707015695E+02  0.23766213369E+02 -0.63332548807E+02  0.76962650927E+02  0.51100000000E-03 0. -1.
<mgrwt>
<rscale>  0 0.91915301E+02</rscale>
<asrwt>0</asrwt>
<pdfrwt beam="1">  1        3 0.16036312E-02 0.91915301E+02</pdfrwt>
<pdfrwt beam="2">  1       -3 0.31173419E-01 0.91915301E+02</pdfrwt>
<totfact> 0.27235692E+04</totfact>
</mgrwt>
</event>
<event>
 5    1  0.7431090E-001  0.8844901E+02  0.7818608E-02  0.1306652E+00
          3   -1    0    0  501    0  0.00000000000E+00  0.00000000000E+00  0.32377569358E+02  0.32377702922E+02  0.93000000000E-01 0. -1.
         -3   -1    0    0    0  501 -0.00000000000E+00 -0.00000000000E+00 -0.60405935946E+02  0.60406007537E+02  0.93000000000E-01 0.  1.
         23    2    1    2    0    0  0.00000000000E+00  0.00000000000E+00 -0.28028366589E+02  0.92783710459E+02  0.88449011260E+02 0.  0.
        -11    1    3    3    0    0  0.42234992184E+02  0.24491593848E+00 -0.25847965074E+00  0.42236493232E+02  0.51100000000E-03 0. -1.
         11    1    3    3    0    0 -0.42234992184E+02 -0.24491593848E+00 -0.27769886938E+02  0.50547217227E+02  0.51100000000E-03 0.  1.
<mgrwt>
<rscale>  0 0.88449011E+02</rscale>
<asrwt>0</asrwt>
<pdfrwt beam="1">  1        3 0.49811803E-02 0.88449011E+02</pdfrwt>
<pdfrwt beam="2">  1       -3 0.92932366E-02 0.88449011E+02</pdfrwt>
<totfact> 0.38243436E+04</totfact>
</mgrwt>
</event>
<event>
 5    1  0.7431090E-001  0.9070803E+02  0.7818608E-02  0.1301146E+00
          3   -1    0    0  501    0  0.00000000000E+00  0.00000000000E+00  0.10907636518E+03  0.10907640483E+03  0.93000000000E-01 0. -1.
         -3   -1    0    0    0  501 -0.00000000000E+00 -0.00000000000E+00 -0.18858067767E+02  0.18858297084E+02  0.93000000000E-01 0.  1.
         23    2    1    2    0    0  0.00000000000E+00  0.00000000000E+00  0.90218297415E+02  0.12793470191E+03  0.90708030322E+02 0.  0.
        -11    1    3    3    0    0 -0.26553023535E+02  0.22418807390E+02  0.40056792437E+01  0.34981587302E+02  0.51100000000E-03 0.  1.
         11    1    3    3    0    0  0.26553023535E+02 -0.22418807390E+02  0.86212618171E+02  0.92953114611E+02  0.51100000000E-03 0. -1.
<mgrwt>
<rscale>  0 0.90708030E+02</rscale>
<asrwt>0</asrwt>
<pdfrwt beam="1">  1        3 0.16781000E-01 0.90708030E+02</pdfrwt>
<pdfrwt beam="2">  1       -3 0.29012618E-02 0.90708030E+02</pdfrwt>
<totfact> 0.33172594E+04</totfact>
</mgrwt>
</event>
<event>
 5    1  0.7431090E-001  0.9096309E+02  0.7818608E-02  0.1300536E+00
         -3   -1    0    0    0  501 -0.00000000000E+00  0.00000000000E+00  0.20148193167E+02  0.20148407801E+02  0.93000000000E-01 0.  1.
          3   -1    0    0  501    0  0.00000000000E+00 -0.00000000000E+00 -0.10266702515E+03  0.10266706728E+03  0.93000000000E-01 0. -1.
         23    2    1    2    0    0  0.00000000000E+00  0.00000000000E+00 -0.82518831986E+02  0.12281547508E+03  0.90963087490E+02 0.  0.
        -11    1    3    3    0    0 -0.41634442635E+02  0.18083289045E+02 -0.37407609283E+02  0.58819736388E+02  0.51100000000E-03 0.  1.
         11    1    3    3    0    0  0.41634442635E+02 -0.18083289045E+02 -0.45111222704E+02  0.63995738688E+02  0.51100000000E-03 0. -1.
<mgrwt>
<rscale>  0 0.90963087E+02</rscale>
<asrwt>0</asrwt>
<pdfrwt beam="2">  1        3 0.15794946E-01 0.90963087E+02</pdfrwt>
<pdfrwt beam="1">  1       -3 0.30997419E-02 0.90963087E+02</pdfrwt>
<totfact> 0.33266241E+04</totfact>
</mgrwt>
</event>
<event>
 5    1  0.7431090E-001  0.8981599E+02  0.7818608E-02  0.1303298E+00
         -3   -1    0    0    0  501 -0.00000000000E+00  0.00000000000E+00  0.20812867973E+02  0.20813075752E+02  0.93000000000E-01 0.  1.
          3   -1    0    0  501    0  0.00000000000E+00 -0.00000000000E+00 -0.96897417219E+02  0.96897461849E+02  0.93000000000E-01 0. -1.
         23    2    1    2    0    0  0.00000000000E+00  0.00000000000E+00 -0.76084549246E+02  0.11771053760E+03  0.89815989826E+02 0.  0.
        -11    1    3    3    0    0  0.71146726777E+01 -0.41028184502E+02 -0.60081659950E+02  0.73100864246E+02  0.51100000000E-03 0. -1.
         11    1    3    3    0    0 -0.71146726777E+01  0.41028184502E+02 -0.16002889296E+02  0.44609673356E+02  0.51100000000E-03 0.  1.
<mgrwt>
<rscale>  0 0.89815990E+02</rscale>
<asrwt>0</asrwt>
<pdfrwt beam="2">  1        3 0.14907314E-01 0.89815990E+02</pdfrwt>
<pdfrwt beam="1">  1       -3 0.32019992E-02 0.89815990E+02</pdfrwt>
<totfact> 0.34793154E+04</totfact>
</mgrwt>
</event>
<event>
 5    1  0.7431090E-001  0.8973767E+02  0.7818608E-02  0.1303488E+00
          3   -1    0    0  501    0  0.00000000000E+00  0.00000000000E+00  0.67125795484E+02  0.67125859908E+02  0.93000000000E-01 0. -1.
         -3   -1    0    0    0  501 -0.00000000000E+00 -0.00000000000E+00 -0.29991482915E+02  0.29991627105E+02  0.93000000000E-01 0.  1.
         23    2    1    2    0    0  0.00000000000E+00  0.00000000000E+00  0.37134312570E+02  0.97117487013E+02  0.89737668310E+02 0.  0.
        -11    1    3    3    0    0 -0.11673140160E+02 -0.27372708768E+02 -0.17775489083E+02  0.34662593655E+02  0.51100000000E-03 0.  1.
         11    1    3    3    0    0  0.11673140160E+02  0.27372708768E+02  0.54909801653E+02  0.62454893358E+02  0.51100000000E-03 0. -1.
<mgrwt>
<rscale>  0 0.89737668E+02</rscale>
<asrwt>0</asrwt>
<pdfrwt beam="1">  1        3 0.10327061E-01 0.89737668E+02</pdfrwt>
<pdfrwt beam="2">  1       -3 0.46140904E-02 0.89737668E+02</pdfrwt>
<totfact> 0.36426847E+04</totfact>
</mgrwt>
</event>
<event>
 5    1  0.7431090E-001  0.9111868E+02  0.7818608E-02  0.1300165E+00
          3   -1    0    0  501    0  0.00000000000E+00  0.00000000000E+00  0.10323751762E+03  0.10323755951E+03  0.93000000000E-01 0. -1.
         -3   -1    0    0    0  501 -0.00000000000E+00 -0.00000000000E+00 -0.20105459578E+02  0.20105674668E+02  0.93000000000E-01 0.  1.
         23    2    1    2    0    0  0.00000000000E+00  0.00000000000E+00  0.83132058043E+02  0.12334323418E+03  0.91118682734E+02 0.  0.
        -11    1    3    3    0    0  0.17844911840E+02  0.16953324093E+02  0.93462359757E+02  0.96649204694E+02  0.51100000000E-03 0. -1.
         11    1    3    3    0    0 -0.17844911840E+02 -0.16953324093E+02 -0.10330301714E+02  0.26694029484E+02  0.51100000000E-03 0.  1.
<mgrwt>
<rscale>  0 0.91118683E+02</rscale>
<asrwt>0</asrwt>
<pdfrwt beam="1">  1        3 0.15882715E-01 0.91118683E+02</pdfrwt>
<pdfrwt beam="2">  1       -3 0.30931674E-02 0.91118683E+02</pdfrwt>
<totfact> 0.33076520E+04</totfact>
</mgrwt>
</event>
<event>
 5    1  0.7431090E-001  0.9492562E+02  0.7818608E-02  0.1291344E+00
         -3   -1    0    0    0  501 -0.00000000000E+00  0.00000000000E+00  0.77415343173E+02  0.77415399034E+02  0.93000000000E-01 0.  1.
          3   -1    0    0  501    0  0.00000000000E+00 -0.00000000000E+00 -0.29098981458E+02  0.29099130071E+02  0.93000000000E-01 0. -1.
         23    2    1    2    0    0  0.00000000000E+00  0.00000000000E+00  0.48316361715E+02  0.10651452910E+03  0.94925624049E+02 0.  0.
        -11    1    3    3    0    0  0.10552241114E+02 -0.43235959165E+02  0.42664764823E+02  0.61652089301E+02  0.51100000000E-03 0.  1.
         11    1    3    3    0    0 -0.10552241114E+02  0.43235959165E+02  0.56515968923E+01  0.44862439804E+02  0.51100000000E-03 0. -1.
<mgrwt>
<rscale>  0 0.94925624E+02</rscale>
<asrwt>0</asrwt>
<pdfrwt beam="2">  1        3 0.44767821E-02 0.94925624E+02</pdfrwt>
<pdfrwt beam="1">  1       -3 0.11910068E-01 0.94925624E+02</pdfrwt>
<totfact> 0.30633623E+04</totfact>
</mgrwt>
</event>
<event>
 5    1  0.7431090E-001  0.9204505E+02  0.7818608E-02  0.1297974E+00
          3   -1    0    0  501    0  0.00000000000E+00  0.00000000000E+00  0.68696050166E+02  0.68696113118E+02  0.93000000000E-01 0. -1.
         -3   -1    0    0    0  501 -0.00000000000E+00 -0.00000000000E+00 -0.30832376573E+02  0.30832516831E+02  0.93000000000E-01 0.  1.
         23    2    1    2    0    0  0.00000000000E+00  0.00000000000E+00  0.37863673594E+02  0.99528629948E+02  0.92045045501E+02 0.  0.
        -11    1    3    3    0    0 -0.39981257682E+02 -0.22042278603E+02  0.25209880476E+02  0.52152670936E+02  0.51100000000E-03 0.  1.
         11    1    3    3    0    0  0.39981257682E+02  0.22042278603E+02  0.12653793118E+02  0.47375959013E+02  0.51100000000E-03 0. -1.
<mgrwt>
<rscale>  0 0.92045046E+02</rscale>
<asrwt>0</asrwt>
<pdfrwt beam="1">  1        3 0.10568639E-01 0.92045046E+02</pdfrwt>
<pdfrwt beam="2">  1       -3 0.47434583E-02 0.92045046E+02</pdfrwt>
<totfact> 0.33820183E+04</totfact>
</mgrwt>
</event>
<event>
 5    1  0.7431090E-001  0.9016016E+02  0.7818608E-02  0.1302464E+00
          3   -1    0    0  501    0  0.00000000000E+00  0.00000000000E+00  0.54096937982E+02  0.54097017922E+02  0.93000000000E-01 0. -1.
         -3   -1    0    0    0  501 -0.00000000000E+00 -0.00000000000E+00 -0.37565980281E+02  0.37566095398E+02  0.93000000000E-01 0.  1.
         23    2    1    2    0    0  0.00000000000E+00  0.00000000000E+00  0.16530957702E+02  0.91663113320E+02  0.90160156283E+02 0.  0.
        -11    1    3    3    0    0 -0.18571122015E+02 -0.27044308731E+02 -0.23168076243E+02  0.40162681244E+02  0.51100000000E-03 0.  1.
         11    1    3    3    0    0  0.18571122015E+02  0.27044308731E+02  0.39699033945E+02  0.51500432076E+02  0.51100000000E-03 0. -1.
<mgrwt>
<rscale>  0 0.90160156E+02</rscale>
<asrwt>0</asrwt>
<pdfrwt beam="1">  1        3 0.83226208E-02 0.90160156E+02</pdfrwt>
<pdfrwt beam="2">  1       -3 0.57793966E-02 0.90160156E+02</pdfrwt>
<totfact> 0.36394288E+04</totfact>
</mgrwt>
</event>
<event>
 5    1  0.7431090E-001  0.9053427E+02  0.7818608E-02  0.1301563E+00
         -3   -1    0    0    0  501 -0.00000000000E+00  0.00000000000E+00  0.14005881082E+03  0.14005884169E+03  0.93000000000E-01 0.  1.
          3   -1    0    0  501    0  0.00000000000E+00 -0.00000000000E+00 -0.14630199970E+02  0.14630495554E+02  0.93000000000E-01 0. -1.
         23    2    1    2    0    0  0.00000000000E+00  0.00000000000E+00  0.12542861085E+03  0.15468933725E+03  0.90534273284E+02 0.  0.
        -11    1    3    3    0    0  0.14726985113E+02  0.40043097773E+02  0.88558100103E+02  0.98299902665E+02  0.51100000000E-03 0. -1.
         11    1    3    3    0    0 -0.14726985113E+02 -0.40043097773E+02  0.36870510744E+02  0.56389434583E+02  0.51100000000E-03 0.  1.
<mgrwt>
<rscale>  0 0.90534273E+02</rscale>
<asrwt>0</asrwt>
<pdfrwt beam="2">  1        3 0.22508252E-02 0.90534273E+02</pdfrwt>
<pdfrwt beam="1">  1       -3 0.21547534E-01 0.90534273E+02</pdfrwt>
<totfact> 0.31622386E+04</totfact>
</mgrwt>
</event>
<event>
 5    1  0.7431090E-001  0.9236562E+02  0.7818608E-02  0.1297222E+00
         -3   -1    0    0    0  501 -0.00000000000E+00  0.00000000000E+00  0.69176384883E+02  0.69176447397E+02  0.93000000000E-01 0.  1.
          3   -1    0    0  501    0  0.00000000000E+00 -0.00000000000E+00 -0.30831936505E+02  0.30832076765E+02  0.93000000000E-01 0. -1.
         23    2    1    2    0    0  0.00000000000E+00  0.00000000000E+00  0.38344448378E+02  0.10000852416E+03  0.92365622304E+02 0.  0.
        -11    1    3    3    0    0  0.34847954340E+01 -0.24939857889E+02  0.61088791704E+02  0.66075568729E+02  0.51100000000E-03 0.  1.
         11    1    3    3    0    0 -0.34847954340E+01  0.24939857889E+02 -0.22744343326E+02  0.33932955432E+02  0.51100000000E-03 0. -1.
<mgrwt>
<rscale>  0 0.92365622E+02</rscale>
<asrwt>0</asrwt>
<pdfrwt beam="2">  1        3 0.47433905E-02 0.92365622E+02</pdfrwt>
<pdfrwt beam="1">  1       -3 0.10642536E-01 0.92365622E+02</pdfrwt>
<totfact> 0.33467574E+04</totfact>
</mgrwt>
</event>
<event>
 5    1  0.7431090E-001  0.9749723E+02  0.7818608E-02  0.1285649E+00
         -3   -1    0    0    0  501 -0.00000000000E+00  0.00000000000E+00  0.37556560137E+03  0.37556561288E+03  0.93000000000E-01 0.  1.
          3   -1    0    0  501    0  0.00000000000E+00 -0.00000000000E+00 -0.63272434360E+01  0.63279268721E+01  0.93000000000E-01 0. -1.
         23    2    1    2    0    0  0.00000000000E+00  0.00000000000E+00  0.36923835793E+03  0.38189353976E+03  0.97497234515E+02 0.  0.
        -11    1    3    3    0    0  0.42222292967E+02  0.23295799580E+02  0.21259504649E+03  0.21799557357E+03  0.51100000000E-03 0.  1.
         11    1    3    3    0    0 -0.42222292967E+02 -0.23295799580E+02  0.15664331144E+03  0.16389796619E+03  0.51100000000E-03 0. -1.
<mgrwt>
<rscale>  0 0.97497235E+02</rscale>
<asrwt>0</asrwt>
<pdfrwt beam="2">  1        3 0.97347512E-03 0.97497235E+02</pdfrwt>
<pdfrwt beam="1">  1       -3 0.57779401E-01 0.97497235E+02</pdfrwt>
<totfact> 0.17670145E+04</totfact>
</mgrwt>
</event>
<event>
 5    1  0.7431090E-001  0.9183762E+02  0.7818608E-02  0.1298462E+00
         -3   -1    0    0    0  501 -0.00000000000E+00  0.00000000000E+00  0.48188542665E+02  0.48188632406E+02  0.93000000000E-01 0.  1.
          3   -1    0    0  501    0  0.00000000000E+00 -0.00000000000E+00 -0.43755805353E+02  0.43755904186E+02  0.93000000000E-01 0. -1.
         23    2    1    2    0    0  0.00000000000E+00  0.00000000000E+00  0.44327373117E+01  0.91944536592E+02  0.91837621098E+02 0.  0.
        -11    1    3    3    0    0  0.88052233325E+01 -0.11133845418E+02 -0.41504170632E+02  0.43864457729E+02  0.51100000000E-03 0. -1.
         11    1    3    3    0    0 -0.88052233325E+01  0.11133845418E+02  0.45936907944E+02  0.48080078863E+02  0.51100000000E-03 0.  1.
<mgrwt>
<rscale>  0 0.91837621E+02</rscale>
<asrwt>0</asrwt>
<pdfrwt beam="2">  1        3 0.67316768E-02 0.91837621E+02</pdfrwt>
<pdfrwt beam="1">  1       -3 0.74136365E-02 0.91837621E+02</pdfrwt>
<totfact> 0.34590961E+04</totfact>
</mgrwt>
</event>
<event>
 5    1  0.7431090E-001  0.9183149E+02  0.7818608E-02  0.1298476E+00
         -3   -1    0    0    0  501 -0.00000000000E+00  0.00000000000E+00  0.62596883954E+02  0.62596953039E+02  0.93000000000E-01 0.  1.
          3   -1    0    0  501    0  0.00000000000E+00 -0.00000000000E+00 -0.33679731202E+02  0.33679859603E+02  0.93000000000E-01 0. -1.
         23    2    1    2    0    0  0.00000000000E+00  0.00000000000E+00  0.28917152752E+02  0.96276812642E+02  0.91831492034E+02 0.  0.
        -11    1    3    3    0    0 -0.36150379064E+02 -0.17382058814E+02  0.37884554681E+02  0.55174499170E+02  0.51100000000E-03 0.  1.
         11    1    3    3    0    0  0.36150379064E+02  0.17382058814E+02 -0.89674019290E+01  0.41102313471E+02  0.51100000000E-03 0. -1.
<mgrwt>
<rscale>  0 0.91831492E+02</rscale>
<asrwt>0</asrwt>
<pdfrwt beam="2">  1        3 0.51815123E-02 0.91831492E+02</pdfrwt>
<pdfrwt beam="1">  1       -3 0.96303051E-02 0.91831492E+02</pdfrwt>
<totfact> 0.34274985E+04</totfact>
</mgrwt>
</event>
<event>
 5    1  0.7431090E-001  0.9194631E+02  0.7818608E-02  0.1298206E+00
          3   -1    0    0  501    0  0.00000000000E+00  0.00000000000E+00  0.21452652417E+02  0.21452853999E+02  0.93000000000E-01 0. -1.
         -3   -1    0    0    0  501 -0.00000000000E+00 -0.00000000000E+00 -0.98520034328E+02  0.98520078223E+02  0.93000000000E-01 0.  1.
         23    2    1    2    0    0  0.00000000000E+00  0.00000000000E+00 -0.77067381911E+02  0.11997293222E+03  0.91946305588E+02 0.  0.
        -11    1    3    3    0    0 -0.10193182383E+02  0.24925117738E+02 -0.87152166429E+02  0.91217665915E+02  0.51100000000E-03 0.  1.
         11    1    3    3    0    0  0.10193182383E+02 -0.24925117738E+02  0.10084784518E+02  0.28755266307E+02  0.51100000000E-03 0. -1.
<mgrwt>
<rscale>  0 0.91946306E+02</rscale>
<asrwt>0</asrwt>
<pdfrwt beam="1">  1        3 0.33004270E-02 0.91946306E+02</pdfrwt>
<pdfrwt beam="2">  1       -3 0.15156947E-01 0.91946306E+02</pdfrwt>
<totfact> 0.32497959E+04</totfact>
</mgrwt>
</event>
<event>
 5    1  0.7431090E-001  0.9044153E+02  0.7818608E-02  0.1301786E+00
          3   -1    0    0  501    0  0.00000000000E+00  0.00000000000E+00  0.17830869806E+03  0.17830872231E+03  0.93000000000E-01 0. -1.
         -3   -1    0    0    0  501 -0.00000000000E+00 -0.00000000000E+00 -0.11468199182E+02  0.11468576262E+02  0.93000000000E-01 0.  1.
         23    2    1    2    0    0  0.00000000000E+00  0.00000000000E+00  0.16684049888E+03  0.18977729858E+03  0.90441533537E+02 0.  0.
        -11    1    3    3    0    0  0.20474220465E+01 -0.42822139372E+02  0.53231075921E+02  0.68348189453E+02  0.51100000000E-03 0.  1.
         11    1    3    3    0    0 -0.20474220465E+01  0.42822139372E+02  0.11360942296E+03  0.12142910912E+03  0.51100000000E-03 0. -1.
<mgrwt>
<rscale>  0 0.90441534E+02</rscale>
<asrwt>0</asrwt>
<pdfrwt beam="1">  1        3 0.27432138E-01 0.90441534E+02</pdfrwt>
<pdfrwt beam="2">  1       -3 0.17643692E-02 0.90441534E+02</pdfrwt>
<totfact> 0.29676609E+04</totfact>
</mgrwt>
</event>
<event>
 5    1  0.7431090E-001  0.9399403E+02  0.7818608E-02  0.1293458E+00
         -3   -1    0    0    0  501 -0.00000000000E+00  0.00000000000E+00  0.60603434345E+02  0.60603505702E+02  0.93000000000E-01 0.  1.
          3   -1    0    0  501    0  0.00000000000E+00 -0.00000000000E+00 -0.36445296118E+02  0.36445414775E+02  0.93000000000E-01 0. -1.
         23    2    1    2    0    0  0.00000000000E+00  0.00000000000E+00  0.24158138227E+02  0.97048920477E+02  0.93994028126E+02 0.  0.
        -11    1    3    3    0    0 -0.27691620319E+02  0.27288086938E+02  0.39342838143E+02  0.55311160158E+02  0.51100000000E-03 0.  1.
         11    1    3    3    0    0  0.27691620319E+02 -0.27288086938E+02 -0.15184699917E+02  0.41737760319E+02  0.51100000000E-03 0. -1.
<mgrwt>
<rscale>  0 0.93994028E+02</rscale>
<asrwt>0</asrwt>
<pdfrwt beam="2">  1        3 0.56069833E-02 0.93994028E+02</pdfrwt>
<pdfrwt beam="1">  1       -3 0.93236197E-02 0.93994028E+02</pdfrwt>
<totfact> 0.32109529E+04</totfact>
</mgrwt>
</event>
<event>
 5    1  0.7431090E-001  0.8885852E+02  0.7818608E-02  0.1305640E+00
          3   -1    0    0  501    0  0.00000000000E+00  0.00000000000E+00  0.77915860979E+02  0.77915916481E+02  0.93000000000E-01 0. -1.
         -3   -1    0    0    0  501 -0.00000000000E+00 -0.00000000000E+00 -0.25334346351E+02  0.25334517048E+02  0.93000000000E-01 0.  1.
         23    2    1    2    0    0  0.00000000000E+00  0.00000000000E+00  0.52581514628E+02  0.10325043353E+03  0.88858518688E+02 0.  0.
        -11    1    3    3    0    0  0.32157921046E+02  0.19190654152E+02  0.54069872391E+02  0.65772062408E+02  0.51100000000E-03 0. -1.
         11    1    3    3    0    0 -0.32157921046E+02 -0.19190654152E+02 -0.14883577627E+01  0.37478371121E+02  0.51100000000E-03 0.  1.
<mgrwt>
<rscale>  0 0.88858519E+02</rscale>
<asrwt>0</asrwt>
<pdfrwt beam="1">  1        3 0.11987073E-01 0.88858519E+02</pdfrwt>
<pdfrwt beam="2">  1       -3 0.38976092E-02 0.88858519E+02</pdfrwt>
<totfact> 0.36923048E+04</totfact>
</mgrwt>
</event>
<event>
 5    1  0.7431090E-001  0.9652084E+02  0.7818608E-02  0.1287787E+00
          3   -1    0    0  501    0  0.00000000000E+00  0.00000000000E+00  0.31485609342E+02  0.31485746690E+02  0.93000000000E-01 0. -1.
         -3   -1    0    0    0  501 -0.00000000000E+00 -0.00000000000E+00 -0.73972139083E+02  0.73972197544E+02  0.93000000000E-01 0.  1.
         23    2    1    2    0    0  0.00000000000E+00  0.00000000000E+00 -0.42486529741E+02  0.10545794423E+03  0.96520841235E+02 0.  0.
        -11    1    3    3    0    0 -0.27360003626E+02 -0.39191314725E+02 -0.13951550456E+02  0.49791311578E+02  0.51100000000E-03 0. -1.
         11    1    3    3    0    0  0.27360003626E+02  0.39191314725E+02 -0.28534979285E+02  0.55666632657E+02  0.51100000000E-03 0.  1.
<mgrwt>
<rscale>  0 0.96520841E+02</rscale>
<asrwt>0</asrwt>
<pdfrwt beam="1">  1        3 0.48439550E-02 0.96520841E+02</pdfrwt>
<pdfrwt beam="2">  1       -3 0.11380344E-01 0.96520841E+02</pdfrwt>
<totfact> 0.29331365E+04</totfact>
</mgrwt>
</event>
<event>
 5    1  0.7431090E-001  0.8568798E+02  0.7818608E-02  0.1313643E+00
          3   -1    0    0  501    0  0.00000000000E+00  0.00000000000E+00  0.31756205666E+02  0.31756341843E+02  0.93000000000E-01 0. -1.
         -3   -1    0    0    0  501 -0.00000000000E+00 -0.00000000000E+00 -0.57802806782E+02  0.57802881596E+02  0.93000000000E-01 0.  1.
         23    2    1    2    0    0  0.00000000000E+00  0.00000000000E+00 -0.26046601116E+02  0.89559223440E+02  0.85687975081E+02 0.  0.
        -11    1    3    3    0    0  0.16827516499E+02  0.28101811833E+02  0.15841987111E+02  0.36384690403E+02  0.51100000000E-03 0. -1.
         11    1    3    3    0    0 -0.16827516499E+02 -0.28101811833E+02 -0.41888588227E+02  0.53174533037E+02  0.51100000000E-03 0.  1.
<mgrwt>
<rscale>  0 0.85687975E+02</rscale>
<asrwt>0</asrwt>
<pdfrwt beam="1">  1        3 0.48855863E-02 0.85687975E+02</pdfrwt>
<pdfrwt beam="2">  1       -3 0.88927557E-02 0.85687975E+02</pdfrwt>
<totfact> 0.41966588E+04</totfact>
</mgrwt>
</event>
<event>
 5    1  0.7431090E-001  0.9054920E+02  0.7818608E-02  0.1301527E+00
         -3   -1    0    0    0  501 -0.00000000000E+00  0.00000000000E+00  0.80106050129E+02  0.80106104114E+02  0.93000000000E-01 0.  1.
          3   -1    0    0  501    0  0.00000000000E+00 -0.00000000000E+00 -0.25588297543E+02  0.25588466545E+02  0.93000000000E-01 0. -1.
         23    2    1    2    0    0  0.00000000000E+00  0.00000000000E+00  0.54517752586E+02  0.10569457066E+03  0.90549196130E+02 0.  0.
        -11    1    3    3    0    0 -0.14618299902E+02 -0.42566280152E+02  0.33001793689E+02  0.55809508912E+02  0.51100000000E-03 0. -1.
         11    1    3    3    0    0  0.14618299902E+02  0.42566280152E+02  0.21515958897E+02  0.49885061747E+02  0.51100000000E-03 0.  1.
<mgrwt>
<rscale>  0 0.90549196E+02</rscale>
<asrwt>0</asrwt>
<pdfrwt beam="2">  1        3 0.39366784E-02 0.90549196E+02</pdfrwt>
<pdfrwt beam="1">  1       -3 0.12324025E-01 0.90549196E+02</pdfrwt>
<totfact> 0.34904271E+04</totfact>
</mgrwt>
</event>
<event>
 5    1  0.7431090E-001  0.8832690E+02  0.7818608E-02  0.1306955E+00
         -3   -1    0    0    0  501 -0.00000000000E+00  0.00000000000E+00  0.46420534498E+02  0.46420627657E+02  0.93000000000E-01 0.  1.
          3   -1    0    0  501    0  0.00000000000E+00 -0.00000000000E+00 -0.42015926455E+02  0.42016029380E+02  0.93000000000E-01 0. -1.
         23    2    1    2    0    0  0.00000000000E+00  0.00000000000E+00  0.44046080433E+01  0.88436657037E+02  0.88326902673E+02 0.  0.
        -11    1    3    3    0    0 -0.26407023743E+02  0.33911243277E+02  0.12369088647E+02  0.44724687565E+02  0.51100000000E-03 0.  1.
         11    1    3    3    0    0  0.26407023743E+02 -0.33911243277E+02 -0.79644806039E+01  0.43711969472E+02  0.51100000000E-03 0. -1.
<mgrwt>
<rscale>  0 0.88326903E+02</rscale>
<asrwt>0</asrwt>
<pdfrwt beam="2">  1        3 0.64640038E-02 0.88326903E+02</pdfrwt>
<pdfrwt beam="1">  1       -3 0.71416358E-02 0.88326903E+02</pdfrwt>
<totfact> 0.38753989E+04</totfact>
</mgrwt>
</event>
<event>
 5    1  0.7431090E-001  0.9061898E+02  0.7818608E-02  0.1301360E+00
         -3   -1    0    0    0  501 -0.00000000000E+00  0.00000000000E+00  0.24656308223E+02  0.24656483614E+02  0.93000000000E-01 0.  1.
          3   -1    0    0  501    0  0.00000000000E+00 -0.00000000000E+00 -0.83262160314E+02  0.83262212252E+02  0.93000000000E-01 0. -1.
         23    2    1    2    0    0  0.00000000000E+00  0.00000000000E+00 -0.58605852091E+02  0.10791869587E+03  0.90618977141E+02 0.  0.
        -11    1    3    3    0    0 -0.15442311023E+02  0.74208400552E+01 -0.79255950837E+02  0.81086617763E+02  0.51100000000E-03 0. -1.
         11    1    3    3    0    0  0.15442311023E+02 -0.74208400552E+01  0.20650098746E+02  0.26832078103E+02  0.51100000000E-03 0.  1.
<mgrwt>
<rscale>  0 0.90618977E+02</rscale>
<asrwt>0</asrwt>
<pdfrwt beam="2">  1        3 0.12809580E-01 0.90618977E+02</pdfrwt>
<pdfrwt beam="1">  1       -3 0.37932957E-02 0.90618977E+02</pdfrwt>
<totfact> 0.34666690E+04</totfact>
</mgrwt>
</event>
<event>
 5    1  0.7431090E-001  0.9062694E+02  0.7818608E-02  0.1301341E+00
          3   -1    0    0  501    0  0.00000000000E+00  0.00000000000E+00  0.16173252926E+03  0.16173255600E+03  0.93000000000E-01 0. -1.
         -3   -1    0    0    0  501 -0.00000000000E+00 -0.00000000000E+00 -0.12695519220E+02  0.12695859848E+02  0.93000000000E-01 0.  1.
         23    2    1    2    0    0  0.00000000000E+00  0.00000000000E+00  0.14903701004E+03  0.17442841585E+03  0.90626938011E+02 0.  0.
        -11    1    3    3    0    0 -0.10553068557E+02 -0.27066069258E+02  0.75855922452E+01  0.30024666043E+02  0.51100000000E-03 0.  1.
         11    1    3    3    0    0  0.10553068557E+02  0.27066069258E+02  0.14145141780E+03  0.14440374981E+03  0.51100000000E-03 0. -1.
<mgrwt>
<rscale>  0 0.90626938E+02</rscale>
<asrwt>0</asrwt>
<pdfrwt beam="1">  1        3 0.24881956E-01 0.90626938E+02</pdfrwt>
<pdfrwt beam="2">  1       -3 0.19531851E-02 0.90626938E+02</pdfrwt>
<totfact> 0.30367909E+04</totfact>
</mgrwt>
</event>
<event>
 5    1  0.7431090E-001  0.8942873E+02  0.7818608E-02  0.1304241E+00
          3   -1    0    0  501    0  0.00000000000E+00  0.00000000000E+00  0.11005483116E+03  0.11005487046E+03  0.93000000000E-01 0. -1.
         -3   -1    0    0    0  501 -0.00000000000E+00 -0.00000000000E+00 -0.18166914958E+02  0.18167152999E+02  0.93000000000E-01 0.  1.
         23    2    1    2    0    0  0.00000000000E+00  0.00000000000E+00  0.91887916206E+02  0.12822202346E+03  0.89428732266E+02 0.  0.
        -11    1    3    3    0    0 -0.44553654125E+02 -0.10667109420E+01  0.51154866725E+02  0.67845311983E+02  0.51100000000E-03 0.  1.
         11    1    3    3    0    0  0.44553654125E+02  0.10667109420E+01  0.40733049481E+02  0.60376711474E+02  0.51100000000E-03 0. -1.
<mgrwt>
<rscale>  0 0.89428732E+02</rscale>
<asrwt>0</asrwt>
<pdfrwt beam="1">  1        3 0.16931533E-01 0.89428732E+02</pdfrwt>
<pdfrwt beam="2">  1       -3 0.27949314E-02 0.89428732E+02</pdfrwt>
<totfact> 0.34451689E+04</totfact>
</mgrwt>
</event>
<event>
 5    1  0.7431090E-001  0.8315905E+02  0.7818608E-02  0.1320318E+00
         -3   -1    0    0    0  501 -0.00000000000E+00  0.00000000000E+00  0.40911731258E+02  0.40911836961E+02  0.93000000000E-01 0.  1.
          3   -1    0    0  501    0  0.00000000000E+00 -0.00000000000E+00 -0.42258006666E+02  0.42258109002E+02  0.93000000000E-01 0. -1.
         23    2    1    2    0    0  0.00000000000E+00  0.00000000000E+00 -0.13462754084E+01  0.83169945963E+02  0.83159049141E+02 0.  0.
        -11    1    3    3    0    0  0.22734175073E+02  0.29847850182E+02  0.17249031487E+02  0.41294866076E+02  0.51100000000E-03 0. -1.
         11    1    3    3    0    0 -0.22734175073E+02 -0.29847850182E+02 -0.18595306895E+02  0.41875079887E+02  0.51100000000E-03 0.  1.
<mgrwt>
<rscale>  0 0.83159049E+02</rscale>
<asrwt>0</asrwt>
<pdfrwt beam="2">  1        3 0.65012477E-02 0.83159049E+02</pdfrwt>
<pdfrwt beam="1">  1       -3 0.62941286E-02 0.83159049E+02</pdfrwt>
<totfact> 0.46152155E+04</totfact>
</mgrwt>
</event>
<event>
 5    1  0.7431090E-001  0.6828762E+02  0.7818608E-02  0.1366015E+00
         -3   -1    0    0    0  501 -0.00000000000E+00  0.00000000000E+00  0.12268545693E+02  0.12268898175E+02  0.93000000000E-01 0. -1.
          3   -1    0    0  501    0  0.00000000000E+00 -0.00000000000E+00 -0.95021724681E+02  0.95021770192E+02  0.93000000000E-01 0.  1.
         23    2    1    2    0    0  0.00000000000E+00  0.00000000000E+00 -0.82753178988E+02  0.10729066837E+03  0.68287618834E+02 0.  0.
        -11    1    3    3    0    0  0.26128470807E+02 -0.73807376193E+01 -0.73904784887E+02  0.78734296872E+02  0.51100000000E-03 0.  1.
         11    1    3    3    0    0 -0.26128470807E+02  0.73807376193E+01 -0.88483941009E+01  0.28556371495E+02  0.51100000000E-03 0. -1.
<mgrwt>
<rscale>  0 0.68287619E+02</rscale>
<asrwt>0</asrwt>
<pdfrwt beam="2">  1        3 0.14618757E-01 0.68287619E+02</pdfrwt>
<pdfrwt beam="1">  1       -3 0.18874992E-02 0.68287619E+02</pdfrwt>
<totfact> 0.73832048E+04</totfact>
</mgrwt>
</event>
<event>
 5    1  0.7431090E-001  0.9142797E+02  0.7818608E-02  0.1299430E+00
         -3   -1    0    0    0  501 -0.00000000000E+00  0.00000000000E+00  0.44477299640E+02  0.44477396869E+02  0.93000000000E-01 0.  1.
          3   -1    0    0  501    0  0.00000000000E+00 -0.00000000000E+00 -0.46984862370E+02  0.46984954410E+02  0.93000000000E-01 0. -1.
         23    2    1    2    0    0  0.00000000000E+00  0.00000000000E+00 -0.25075627302E+01  0.91462351280E+02  0.91427970724E+02 0.  0.
        -11    1    3    3    0    0  0.31758492591E+02  0.32565166386E+02 -0.58026380707E+01  0.45855888632E+02  0.51100000000E-03 0.  1.
         11    1    3    3    0    0 -0.31758492591E+02 -0.32565166386E+02  0.32950753405E+01  0.45606462647E+02  0.51100000000E-03 0. -1.
<mgrwt>
<rscale>  0 0.91427971E+02</rscale>
<asrwt>0</asrwt>
<pdfrwt beam="2">  1        3 0.72284549E-02 0.91427971E+02</pdfrwt>
<pdfrwt beam="1">  1       -3 0.68426760E-02 0.91427971E+02</pdfrwt>
<totfact> 0.35052385E+04</totfact>
</mgrwt>
</event>
<event>
 5    1  0.7431090E-001  0.9245192E+02  0.7818608E-02  0.1297020E+00
         -3   -1    0    0    0  501 -0.00000000000E+00  0.00000000000E+00  0.16961302408E+02  0.16961557369E+02  0.93000000000E-01 0.  1.
          3   -1    0    0  501    0  0.00000000000E+00 -0.00000000000E+00 -0.12598198540E+03  0.12598201973E+03  0.93000000000E-01 0. -1.
         23    2    1    2    0    0  0.00000000000E+00  0.00000000000E+00 -0.10902068300E+03  0.14294357710E+03  0.92451916761E+02 0.  0.
        -11    1    3    3    0    0  0.46185074970E+02 -0.15601699151E+01 -0.52717920888E+02  0.70104739234E+02  0.51100000000E-03 0.  1.
         11    1    3    3    0    0 -0.46185074970E+02  0.15601699151E+01 -0.56302762107E+02  0.72838837864E+02  0.51100000000E-03 0. -1.
<mgrwt>
<rscale>  0 0.92451917E+02</rscale>
<asrwt>0</asrwt>
<pdfrwt beam="2">  1        3 0.19381866E-01 0.92451917E+02</pdfrwt>
<pdfrwt beam="1">  1       -3 0.26094535E-02 0.92451917E+02</pdfrwt>
<totfact> 0.30569269E+04</totfact>
</mgrwt>
</event>
<event>
 5    1  0.7431090E-001  0.9083084E+02  0.7818608E-02  0.1300852E+00
          3   -1    0    0  501    0  0.00000000000E+00  0.00000000000E+00  0.13466280570E+02  0.13466601702E+02  0.93000000000E-01 0. -1.
         -3   -1    0    0    0  501 -0.00000000000E+00 -0.00000000000E+00 -0.15316266472E+03  0.15316269295E+03  0.93000000000E-01 0.  1.
         23    2    1    2    0    0  0.00000000000E+00  0.00000000000E+00 -0.13969638415E+03  0.16662929466E+03  0.90830843292E+02 0.  0.
        -11    1    3    3    0    0  0.14558077581E+02  0.41697370207E+02 -0.50437797634E+02  0.67041626886E+02  0.51100000000E-03 0.  1.
         11    1    3    3    0    0 -0.14558077581E+02 -0.41697370207E+02 -0.89258586516E+02  0.99587667771E+02  0.51100000000E-03 0. -1.
<mgrwt>
<rscale>  0 0.90830843E+02</rscale>
<asrwt>0</asrwt>
<pdfrwt beam="1">  1        3 0.20717624E-02 0.90830843E+02</pdfrwt>
<pdfrwt beam="2">  1       -3 0.23563513E-01 0.90830843E+02</pdfrwt>
<totfact> 0.30633352E+04</totfact>
</mgrwt>
</event>
<event>
 5    1  0.7431090E-001  0.7307246E+02  0.7818608E-02  0.1349946E+00
          3   -1    0    0  501    0  0.00000000000E+00  0.00000000000E+00  0.17845970018E+03  0.17845972441E+03  0.93000000000E-01 0. -1.
         -3   -1    0    0    0  501 -0.00000000000E+00 -0.00000000000E+00 -0.74797835185E+01  0.74803616546E+01  0.93000000000E-01 0.  1.
         23    2    1    2    0    0  0.00000000000E+00  0.00000000000E+00  0.17097991666E+03  0.18594008606E+03  0.73072455172E+02 0.  0.
        -11    1    3    3    0    0 -0.29738330707E+02  0.20986552873E+02  0.93573701256E+02  0.10040339278E+03  0.51100000000E-03 0. -1.
         11    1    3    3    0    0  0.29738330707E+02 -0.20986552873E+02  0.77406215402E+02  0.85536693283E+02  0.51100000000E-03 0.  1.
<mgrwt>
<rscale>  0 0.73072455E+02</rscale>
<asrwt>0</asrwt>
<pdfrwt beam="1">  1        3 0.27455385E-01 0.73072455E+02</pdfrwt>
<pdfrwt beam="2">  1       -3 0.11507822E-02 0.73072455E+02</pdfrwt>
<totfact> 0.52718015E+04</totfact>
</mgrwt>
</event>
<event>
 5    1  0.7431090E-001  0.9095767E+02  0.7818608E-02  0.1300549E+00
         -3   -1    0    0    0  501 -0.00000000000E+00  0.00000000000E+00  0.21920158316E+03  0.21920160289E+03  0.93000000000E-01 0.  1.
          3   -1    0    0  501    0  0.00000000000E+00 -0.00000000000E+00 -0.94354683225E+01  0.94359266352E+01  0.93000000000E-01 0. -1.
         23    2    1    2    0    0  0.00000000000E+00  0.00000000000E+00  0.20976611484E+03  0.22863752952E+03  0.90957665827E+02 0.  0.
        -11    1    3    3    0    0 -0.40978402283E+02 -0.13615631904E+02  0.69006257299E+02  0.81403184412E+02  0.51100000000E-03 0. -1.
         11    1    3    3    0    0  0.40978402283E+02  0.13615631904E+02  0.14075985754E+03  0.14723434511E+03  0.51100000000E-03 0.  1.
<mgrwt>
<rscale>  0 0.90957666E+02</rscale>
<asrwt>0</asrwt>
<pdfrwt beam="2">  1        3 0.14516474E-02 0.90957666E+02</pdfrwt>
<pdfrwt beam="1">  1       -3 0.33723356E-01 0.90957666E+02</pdfrwt>
<totfact> 0.27255967E+04</totfact>
</mgrwt>
</event>
<event>
 5    1  0.7431090E-001  0.9042168E+02  0.7818608E-02  0.1301834E+00
         -3   -1    0    0    0  501 -0.00000000000E+00  0.00000000000E+00  0.44894112162E+02  0.44894208489E+02  0.93000000000E-01 0.  1.
          3   -1    0    0  501    0  0.00000000000E+00 -0.00000000000E+00 -0.45529604748E+02  0.45529699730E+02  0.93000000000E-01 0. -1.
         23    2    1    2    0    0  0.00000000000E+00  0.00000000000E+00 -0.63549258591E+00  0.90423908218E+02  0.90421675093E+02 0.  0.
        -11    1    3    3    0    0  0.19479860564E+02 -0.40014758693E+02 -0.82787186495E+01  0.45267903238E+02  0.51100000000E-03 0.  1.
         11    1    3    3    0    0 -0.19479860564E+02  0.40014758693E+02  0.76432260636E+01  0.45156004980E+02  0.51100000000E-03 0. -1.
<mgrwt>
<rscale>  0 0.90421675E+02</rscale>
<asrwt>0</asrwt>
<pdfrwt beam="2">  1        3 0.70045693E-02 0.90421675E+02</pdfrwt>
<pdfrwt beam="1">  1       -3 0.69068011E-02 0.90421675E+02</pdfrwt>
<totfact> 0.36206678E+04</totfact>
</mgrwt>
</event>
<event>
 5    1  0.7431090E-001  0.9163484E+02  0.7818608E-02  0.1298940E+00
         -3   -1    0    0    0  501 -0.00000000000E+00  0.00000000000E+00  0.39839963185E+02  0.39840071732E+02  0.93000000000E-01 0.  1.
          3   -1    0    0  501    0  0.00000000000E+00 -0.00000000000E+00 -0.52691488575E+02  0.52691570647E+02  0.93000000000E-01 0. -1.
         23    2    1    2    0    0  0.00000000000E+00  0.00000000000E+00 -0.12851525389E+02  0.92531642378E+02  0.91634835824E+02 0.  0.
        -11    1    3    3    0    0 -0.44465458248E+02 -0.10516832675E+02 -0.98434152875E+01  0.46740491777E+02  0.51100000000E-03 0. -1.
         11    1    3    3    0    0  0.44465458248E+02  0.10516832675E+02 -0.30081101019E+01  0.45791150602E+02  0.51100000000E-03 0.  1.
<mgrwt>
<rscale>  0 0.91634836E+02</rscale>
<asrwt>0</asrwt>
<pdfrwt beam="2">  1        3 0.81063976E-02 0.91634836E+02</pdfrwt>
<pdfrwt beam="1">  1       -3 0.61292397E-02 0.91634836E+02</pdfrwt>
<totfact> 0.34756431E+04</totfact>
</mgrwt>
</event>
<event>
 5    1  0.7431090E-001  0.9351237E+02  0.7818608E-02  0.1294562E+00
         -3   -1    0    0    0  501 -0.00000000000E+00  0.00000000000E+00  0.80194884768E+02  0.80194938693E+02  0.93000000000E-01 0.  1.
          3   -1    0    0  501    0  0.00000000000E+00 -0.00000000000E+00 -0.27260212537E+02  0.27260371175E+02  0.93000000000E-01 0. -1.
         23    2    1    2    0    0  0.00000000000E+00  0.00000000000E+00  0.52934672231E+02  0.10745530987E+03  0.93512374019E+02 0.  0.
        -11    1    3    3    0    0  0.11551356031E+02 -0.43947867995E+02  0.39122711989E+02  0.59961950611E+02  0.51100000000E-03 0. -1.
         11    1    3    3    0    0 -0.11551356031E+02  0.43947867995E+02  0.13811960242E+02  0.47493359257E+02  0.51100000000E-03 0.  1.
<mgrwt>
<rscale>  0 0.93512374E+02</rscale>
<asrwt>0</asrwt>
<pdfrwt beam="2">  1        3 0.41938953E-02 0.93512374E+02</pdfrwt>
<pdfrwt beam="1">  1       -3 0.12337691E-01 0.93512374E+02</pdfrwt>
<totfact> 0.31853432E+04</totfact>
</mgrwt>
</event>
<event>
 5    1  0.7431090E-001  0.9276180E+02  0.7818608E-02  0.1296298E+00
         -3   -1    0    0    0  501 -0.00000000000E+00  0.00000000000E+00  0.87351323171E+02  0.87351372678E+02  0.93000000000E-01 0.  1.
          3   -1    0    0  501    0  0.00000000000E+00 -0.00000000000E+00 -0.24626704909E+02  0.24626880510E+02  0.93000000000E-01 0. -1.
         23    2    1    2    0    0  0.00000000000E+00  0.00000000000E+00  0.62724618262E+02  0.11197825319E+03  0.92761799524E+02 0.  0.
        -11    1    3    3    0    0 -0.25449664250E+01 -0.16231323225E+02 -0.20996332969E+02  0.26660433344E+02  0.51100000000E-03 0. -1.
         11    1    3    3    0    0  0.25449664250E+01  0.16231323225E+02  0.83720951230E+02  0.85317819844E+02  0.51100000000E-03 0.  1.
<mgrwt>
<rscale>  0 0.92761800E+02</rscale>
<asrwt>0</asrwt>
<pdfrwt beam="2">  1        3 0.37887412E-02 0.92761800E+02</pdfrwt>
<pdfrwt beam="1">  1       -3 0.13438682E-01 0.92761800E+02</pdfrwt>
<totfact> 0.32255016E+04</totfact>
</mgrwt>
</event>
<event>
 5    1  0.7431090E-001  0.9560715E+02  0.7818608E-02  0.1289814E+00
         -3   -1    0    0    0  501 -0.00000000000E+00  0.00000000000E+00  0.93281870330E+01  0.93286506163E+01  0.93000000000E-01 0.  1.
          3   -1    0    0  501    0  0.00000000000E+00 -0.00000000000E+00 -0.24496942829E+03  0.24496944594E+03  0.93000000000E-01 0. -1.
         23    2    1    2    0    0  0.00000000000E+00  0.00000000000E+00 -0.23564124126E+03  0.25429809656E+03  0.95607151054E+02 0.  0.
        -11    1    3    3    0    0  0.19708288277E+01 -0.44035944168E+02 -0.68622286481E+02  0.81560203207E+02  0.51100000000E-03 0.  1.
         11    1    3    3    0    0 -0.19708288277E+01  0.44035944168E+02 -0.16701895478E+03  0.17273789335E+03  0.51100000000E-03 0. -1.
<mgrwt>
<rscale>  0 0.95607151E+02</rscale>
<asrwt>0</asrwt>
<pdfrwt beam="2">  1        3 0.37687636E-01 0.95607151E+02</pdfrwt>
<pdfrwt beam="1">  1       -3 0.14351429E-02 0.95607151E+02</pdfrwt>
<totfact> 0.22797937E+04</totfact>
</mgrwt>
</event>
<event>
 5    1  0.7431090E-001  0.9318153E+02  0.7818608E-02  0.1295325E+00
          3   -1    0    0  501    0  0.00000000000E+00  0.00000000000E+00  0.30281380496E+03  0.30281381924E+03  0.93000000000E-01 0. -1.
         -3   -1    0    0    0  501 -0.00000000000E+00 -0.00000000000E+00 -0.71681128440E+01  0.71687161154E+01  0.93000000000E-01 0.  1.
         23    2    1    2    0    0  0.00000000000E+00  0.00000000000E+00  0.29564569212E+03  0.30998253536E+03  0.93181526921E+02 0.  0.
        -11    1    3    3    0    0  0.32782601574E+02 -0.27421300179E+02  0.86116130775E+02  0.96138518032E+02  0.51100000000E-03 0.  1.
         11    1    3    3    0    0 -0.32782601574E+02  0.27421300179E+02  0.20952956134E+03  0.21384401732E+03  0.51100000000E-03 0. -1.
<mgrwt>
<rscale>  0 0.93181527E+02</rscale>
<asrwt>0</asrwt>
<pdfrwt beam="1">  1        3 0.46586783E-01 0.93181527E+02</pdfrwt>
<pdfrwt beam="2">  1       -3 0.11028342E-02 0.93181527E+02</pdfrwt>
<totfact> 0.22306302E+04</totfact>
</mgrwt>
</event>
<event>
 5    1  0.7431090E-001  0.9171112E+02  0.7818608E-02  0.1298760E+00
         -3   -1    0    0    0  501 -0.00000000000E+00  0.00000000000E+00  0.14578509099E+02  0.14578805731E+02  0.93000000000E-01 0.  1.
          3   -1    0    0  501    0  0.00000000000E+00 -0.00000000000E+00 -0.14423331027E+03  0.14423334025E+03  0.93000000000E-01 0. -1.
         23    2    1    2    0    0  0.00000000000E+00  0.00000000000E+00 -0.12965480117E+03  0.15881214598E+03  0.91711123888E+02 0.  0.
        -11    1    3    3    0    0  0.38034739073E+02  0.21385502335E+02 -0.89240160398E+02  0.99336736984E+02  0.51100000000E-03 0. -1.
         11    1    3    3    0    0 -0.38034739073E+02 -0.21385502335E+02 -0.40414640769E+02  0.59475408996E+02  0.51100000000E-03 0.  1.
<mgrwt>
<rscale>  0 0.91711124E+02</rscale>
<asrwt>0</asrwt>
<pdfrwt beam="2">  1        3 0.22189764E-01 0.91711124E+02</pdfrwt>
<pdfrwt beam="1">  1       -3 0.22428728E-02 0.91711124E+02</pdfrwt>
<totfact> 0.30292773E+04</totfact>
</mgrwt>
</event>
<event>
 5    1  0.7431090E-001  0.9121494E+02  0.7818608E-02  0.1299936E+00
          3   -1    0    0  501    0  0.00000000000E+00  0.00000000000E+00  0.35086125007E+02  0.35086248261E+02  0.93000000000E-01 0. -1.
         -3   -1    0    0    0  501 -0.00000000000E+00 -0.00000000000E+00 -0.59283604393E+02  0.59283677339E+02  0.93000000000E-01 0.  1.
         23    2    1    2    0    0  0.00000000000E+00  0.00000000000E+00 -0.24197479386E+02  0.94369925600E+02  0.91214937643E+02 0.  0.
        -11    1    3    3    0    0  0.21420522441E+02  0.40264087415E+02 -0.12020663865E+02  0.47164943305E+02  0.51100000000E-03 0.  1.
         11    1    3    3    0    0 -0.21420522441E+02 -0.40264087415E+02 -0.12176815522E+02  0.47204982295E+02  0.51100000000E-03 0. -1.
<mgrwt>
<rscale>  0 0.91214938E+02</rscale>
<asrwt>0</asrwt>
<pdfrwt beam="1">  1        3 0.53978805E-02 0.91214938E+02</pdfrwt>
<pdfrwt beam="2">  1       -3 0.91205696E-02 0.91214938E+02</pdfrwt>
<totfact> 0.35055332E+04</totfact>
</mgrwt>
</event>
<event>
 5    1  0.7431090E-001  0.9006400E+02  0.7818608E-02  0.1302697E+00
          3   -1    0    0  501    0  0.00000000000E+00  0.00000000000E+00  0.10961046957E+02  0.10961441483E+02  0.93000000000E-01 0. -1.
         -3   -1    0    0    0  501 -0.00000000000E+00 -0.00000000000E+00 -0.18500421516E+03  0.18500423854E+03  0.93000000000E-01 0.  1.
         23    2    1    2    0    0  0.00000000000E+00  0.00000000000E+00 -0.17404316821E+03  0.19596568002E+03  0.90063995843E+02 0.  0.
        -11    1    3    3    0    0  0.41362253966E+02 -0.10107320215E+02 -0.11891740170E+03  0.12631049997E+03  0.51100000000E-03 0.  1.
         11    1    3    3    0    0 -0.41362253966E+02  0.10107320215E+02 -0.55125766506E+02  0.69655180053E+02  0.51100000000E-03 0. -1.
<mgrwt>
<rscale>  0 0.90063996E+02</rscale>
<asrwt>0</asrwt>
<pdfrwt beam="1">  1        3 0.16863472E-02 0.90063996E+02</pdfrwt>
<pdfrwt beam="2">  1       -3 0.28462217E-01 0.90063996E+02</pdfrwt>
<totfact> 0.29672869E+04</totfact>
</mgrwt>
</event>
<event>
 5    1  0.7431090E-001  0.9358843E+02  0.7818608E-02  0.1294387E+00
         -3   -1    0    0    0  501 -0.00000000000E+00  0.00000000000E+00  0.69364090455E+01  0.69370324669E+01  0.93000000000E-01 0.  1.
          3   -1    0    0  501    0  0.00000000000E+00 -0.00000000000E+00 -0.31566707195E+03  0.31566708565E+03  0.93000000000E-01 0. -1.
         23    2    1    2    0    0  0.00000000000E+00  0.00000000000E+00 -0.30873066291E+03  0.32260411812E+03  0.93588433090E+02 0.  0.
        -11    1    3    3    0    0 -0.45855972289E+02  0.64375801162E+01 -0.13111725977E+03  0.13905376098E+03  0.51100000000E-03 0. -1.
         11    1    3    3    0    0  0.45855972289E+02 -0.64375801162E+01 -0.17761340313E+03  0.18355035714E+03  0.51100000000E-03 0.  1.
<mgrwt>
<rscale>  0 0.93588433E+02</rscale>
<asrwt>0</asrwt>
<pdfrwt beam="2">  1        3 0.48564203E-01 0.93588433E+02</pdfrwt>
<pdfrwt beam="1">  1       -3 0.10671891E-02 0.93588433E+02</pdfrwt>
<totfact> 0.21610704E+04</totfact>
</mgrwt>
</event>
<event>
 5    1  0.7431090E-001  0.8975404E+02  0.7818608E-02  0.1303448E+00
         -3   -1    0    0    0  501 -0.00000000000E+00  0.00000000000E+00  0.11277321266E+03  0.11277325101E+03  0.93000000000E-01 0.  1.
          3   -1    0    0  501    0  0.00000000000E+00 -0.00000000000E+00 -0.17858216084E+02  0.17858458240E+02  0.93000000000E-01 0. -1.
         23    2    1    2    0    0  0.00000000000E+00  0.00000000000E+00  0.94914996575E+02  0.13063170925E+03  0.89754035484E+02 0.  0.
        -11    1    3    3    0    0  0.27614317729E+02  0.12102808441E+02  0.95836810491E+02  0.10046752093E+03  0.51100000000E-03 0.  1.
         11    1    3    3    0    0 -0.27614317729E+02 -0.12102808441E+02 -0.92181391573E+00  0.30164188319E+02  0.51100000000E-03 0. -1.
<mgrwt>
<rscale>  0 0.89754035E+02</rscale>
<asrwt>0</asrwt>
<pdfrwt beam="2">  1        3 0.27474394E-02 0.89754035E+02</pdfrwt>
<pdfrwt beam="1">  1       -3 0.17349747E-01 0.89754035E+02</pdfrwt>
<totfact> 0.33950794E+04</totfact>
</mgrwt>
</event>
<event>
 5    1  0.7431090E-001  0.9016991E+02  0.7818608E-02  0.1302441E+00
         -3   -1    0    0    0  501 -0.00000000000E+00  0.00000000000E+00  0.15346542450E+03  0.15346545268E+03  0.93000000000E-01 0.  1.
          3   -1    0    0  501    0  0.00000000000E+00 -0.00000000000E+00 -0.13244830563E+02  0.13245157063E+02  0.93000000000E-01 0. -1.
         23    2    1    2    0    0  0.00000000000E+00  0.00000000000E+00  0.14022059394E+03  0.16671060974E+03  0.90169908709E+02 0.  0.
        -11    1    3    3    0    0 -0.31946311430E+02 -0.19090075681E+02  0.11716180785E+03  0.12293041537E+03  0.51100000000E-03 0.  1.
         11    1    3    3    0    0  0.31946311430E+02  0.19090075681E+02  0.23058786089E+02  0.43780194376E+02  0.51100000000E-03 0. -1.
<mgrwt>
<rscale>  0 0.90169909E+02</rscale>
<asrwt>0</asrwt>
<pdfrwt beam="2">  1        3 0.20376935E-02 0.90169909E+02</pdfrwt>
<pdfrwt beam="1">  1       -3 0.23610093E-01 0.90169909E+02</pdfrwt>
<totfact> 0.31238047E+04</totfact>
</mgrwt>
</event>
<event>
 5    1  0.7431090E-001  0.9054562E+02  0.7818608E-02  0.1301536E+00
         -3   -1    0    0    0  501 -0.00000000000E+00  0.00000000000E+00  0.18450722050E+02  0.18450956429E+02  0.93000000000E-01 0.  1.
          3   -1    0    0  501    0  0.00000000000E+00 -0.00000000000E+00 -0.11108560599E+03  0.11108564492E+03  0.93000000000E-01 0. -1.
         23    2    1    2    0    0  0.00000000000E+00  0.00000000000E+00 -0.92634883939E+02  0.12953660135E+03  0.90545620360E+02 0.  0.
        -11    1    3    3    0    0  0.29934293468E+02 -0.32880695735E+02 -0.34142410487E+02  0.56061629227E+02  0.51100000000E-03 0.  1.
         11    1    3    3    0    0 -0.29934293468E+02  0.32880695735E+02 -0.58492473452E+02  0.73474972121E+02  0.51100000000E-03 0. -1.
<mgrwt>
<rscale>  0 0.90545620E+02</rscale>
<asrwt>0</asrwt>
<pdfrwt beam="2">  1        3 0.17090114E-01 0.90545620E+02</pdfrwt>
<pdfrwt beam="1">  1       -3 0.28385937E-02 0.90545620E+02</pdfrwt>
<totfact> 0.33225839E+04</totfact>
</mgrwt>
</event>
<event>
 5    1  0.7431090E-001  0.8939142E+02  0.7818608E-02  0.1304332E+00
         -3   -1    0    0    0  501 -0.00000000000E+00  0.00000000000E+00  0.91604999493E+01  0.91609720184E+01  0.93000000000E-01 0.  1.
          3   -1    0    0  501    0  0.00000000000E+00 -0.00000000000E+00 -0.21807220130E+03  0.21807222113E+03  0.93000000000E-01 0. -1.
         23    2    1    2    0    0  0.00000000000E+00  0.00000000000E+00 -0.20891170135E+03  0.22723319315E+03  0.89391415177E+02 0.  0.
        -11    1    3    3    0    0  0.36690207880E+02  0.10246308848E+02 -0.16388371785E+03  0.16825287866E+03  0.51100000000E-03 0. -1.
         11    1    3    3    0    0 -0.36690207880E+02 -0.10246308848E+02 -0.45027983500E+02  0.58980314492E+02  0.51100000000E-03 0.  1.
<mgrwt>
<rscale>  0 0.89391415E+02</rscale>
<asrwt>0</asrwt>
<pdfrwt beam="2">  1        3 0.33549603E-01 0.89391415E+02</pdfrwt>
<pdfrwt beam="1">  1       -3 0.14093457E-02 0.89391415E+02</pdfrwt>
<totfact> 0.28631016E+04</totfact>
</mgrwt>
</event>
<event>
 5    1  0.7431090E-001  0.1003657E+03  0.7818608E-02  0.1279529E+00
         -3   -1    0    0    0  501 -0.00000000000E+00  0.00000000000E+00  0.27176562751E+02  0.27176721877E+02  0.93000000000E-01 0.  1.
          3   -1    0    0  501    0  0.00000000000E+00 -0.00000000000E+00 -0.92664566762E+02  0.92664613430E+02  0.93000000000E-01 0. -1.
         23    2    1    2    0    0  0.00000000000E+00  0.00000000000E+00 -0.65488004011E+02  0.11984133531E+03  0.10036566634E+03 0.  0.
        -11    1    3    3    0    0  0.35963124504E+02  0.34393761614E+02 -0.25002046627E+02  0.55690030507E+02  0.51100000000E-03 0.  1.
         11    1    3    3    0    0 -0.35963124504E+02 -0.34393761614E+02 -0.40485957384E+02  0.64151304801E+02  0.51100000000E-03 0. -1.
<mgrwt>
<rscale>  0 0.10036567E+03</rscale>
<asrwt>0</asrwt>
<pdfrwt beam="2">  1        3 0.14256103E-01 0.10036567E+03</pdfrwt>
<pdfrwt beam="1">  1       -3 0.41810255E-02 0.10036567E+03</pdfrwt>
<totfact> 0.25578020E+04</totfact>
</mgrwt>
</event>
<event>
 5    1  0.7431090E-001  0.9191093E+02  0.7818608E-02  0.1298289E+00
          3   -1    0    0  501    0  0.00000000000E+00  0.00000000000E+00  0.15644628453E+02  0.15644904871E+02  0.93000000000E-01 0. -1.
         -3   -1    0    0    0  501 -0.00000000000E+00 -0.00000000000E+00 -0.13499084250E+03  0.13499087454E+03  0.93000000000E-01 0.  1.
         23    2    1    2    0    0  0.00000000000E+00  0.00000000000E+00 -0.11934621405E+03  0.15063577941E+03  0.91910930961E+02 0.  0.
        -11    1    3    3    0    0  0.15622277493E+02 -0.42925614601E+02 -0.51439064889E+02  0.68794195539E+02  0.51100000000E-03 0. -1.
         11    1    3    3    0    0 -0.15622277493E+02  0.42925614601E+02 -0.67907149158E+02  0.81841583868E+02  0.51100000000E-03 0.  1.
<mgrwt>
<rscale>  0 0.91910931E+02</rscale>
<asrwt>0</asrwt>
<pdfrwt beam="1">  1        3 0.24068897E-02 0.91910931E+02</pdfrwt>
<pdfrwt beam="2">  1       -3 0.20767845E-01 0.91910931E+02</pdfrwt>
<totfact> 0.30596168E+04</totfact>
</mgrwt>
</event>
<event>
 5    1  0.7431090E-001  0.9623435E+02  0.7818608E-02  0.1288420E+00
         -3   -1    0    0    0  501 -0.00000000000E+00  0.00000000000E+00  0.15949131905E+03  0.15949134616E+03  0.93000000000E-01 0.  1.
          3   -1    0    0  501    0  0.00000000000E+00 -0.00000000000E+00 -0.14516366343E+02  0.14516664245E+02  0.93000000000E-01 0. -1.
         23    2    1    2    0    0  0.00000000000E+00  0.00000000000E+00  0.14497495270E+03  0.17400801041E+03  0.96234353398E+02 0.  0.
        -11    1    3    3    0    0  0.36932137258E+02  0.17940546228E+02  0.27123799242E+02  0.49209210997E+02  0.51100000000E-03 0. -1.
         11    1    3    3    0    0 -0.36932137258E+02 -0.17940546228E+02  0.11785115346E+03  0.12479879941E+03  0.51100000000E-03 0.  1.
<mgrwt>
<rscale>  0 0.96234353E+02</rscale>
<asrwt>0</asrwt>
<pdfrwt beam="2">  1        3 0.22333123E-02 0.96234353E+02</pdfrwt>
<pdfrwt beam="1">  1       -3 0.24537149E-01 0.96234353E+02</pdfrwt>
<totfact> 0.25823073E+04</totfact>
</mgrwt>
</event>
<event>
 5    1  0.7431090E-001  0.8997247E+02  0.7818608E-02  0.1302918E+00
         -3   -1    0    0    0  501 -0.00000000000E+00  0.00000000000E+00  0.29058897296E+02  0.29059046114E+02  0.93000000000E-01 0.  1.
          3   -1    0    0  501    0  0.00000000000E+00 -0.00000000000E+00 -0.69643077501E+02  0.69643139596E+02  0.93000000000E-01 0. -1.
         23    2    1    2    0    0  0.00000000000E+00  0.00000000000E+00 -0.40584180205E+02  0.98702185710E+02  0.89972472352E+02 0.  0.
        -11    1    3    3    0    0 -0.15399261697E+02  0.40075789153E+02 -0.55512496541E+01  0.43289981636E+02  0.51100000000E-03 0.  1.
         11    1    3    3    0    0  0.15399261697E+02 -0.40075789153E+02 -0.35032930551E+02  0.55412204074E+02  0.51100000000E-03 0. -1.
<mgrwt>
<rscale>  0 0.89972472E+02</rscale>
<asrwt>0</asrwt>
<pdfrwt beam="2">  1        3 0.10714336E-01 0.89972472E+02</pdfrwt>
<pdfrwt beam="1">  1       -3 0.44706158E-02 0.89972472E+02</pdfrwt>
<totfact> 0.36046319E+04</totfact>
</mgrwt>
</event>
<event>
 5    1  0.7431090E-001  0.9283404E+02  0.7818608E-02  0.1296130E+00
          3   -1    0    0  501    0  0.00000000000E+00  0.00000000000E+00  0.15153787872E+02  0.15154073244E+02  0.93000000000E-01 0. -1.
         -3   -1    0    0    0  501 -0.00000000000E+00 -0.00000000000E+00 -0.14217665561E+03  0.14217668602E+03  0.93000000000E-01 0.  1.
         23    2    1    2    0    0  0.00000000000E+00  0.00000000000E+00 -0.12702286773E+03  0.15733075927E+03  0.92834039469E+02 0.  0.
        -11    1    3    3    0    0  0.17889413993E+02  0.20289659179E+02  0.41554294634E+00  0.27053171326E+02  0.51100000000E-03 0. -1.
         11    1    3    3    0    0 -0.17889413993E+02 -0.20289659179E+02 -0.12743841068E+03  0.13027758794E+03  0.51100000000E-03 0.  1.
<mgrwt>
<rscale>  0 0.92834039E+02</rscale>
<asrwt>0</asrwt>
<pdfrwt beam="1">  1        3 0.23313764E-02 0.92834039E+02</pdfrwt>
<pdfrwt beam="2">  1       -3 0.21873355E-01 0.92834039E+02</pdfrwt>
<totfact> 0.29392990E+04</totfact>
</mgrwt>
</event>
<event>
 5    1  0.7431090E-001  0.9949120E+02  0.7818608E-02  0.1281370E+00
          3   -1    0    0  501    0  0.00000000000E+00  0.00000000000E+00  0.30404389582E+02  0.30404531814E+02  0.93000000000E-01 0. -1.
         -3   -1    0    0    0  501 -0.00000000000E+00 -0.00000000000E+00 -0.81390014837E+02  0.81390067970E+02  0.93000000000E-01 0.  1.
         23    2    1    2    0    0  0.00000000000E+00  0.00000000000E+00 -0.50985625254E+02  0.11179459978E+03  0.99491198396E+02 0.  0.
        -11    1    3    3    0    0 -0.59397455737E+01  0.20010666723E+02  0.25245493761E+02  0.32757324611E+02  0.51100000000E-03 0. -1.
         11    1    3    3    0    0  0.59397455737E+01 -0.20010666723E+02 -0.76231119015E+02  0.79037275173E+02  0.51100000000E-03 0.  1.
<mgrwt>
<rscale>  0 0.99491198E+02</rscale>
<asrwt>0</asrwt>
<pdfrwt beam="1">  1        3 0.46776135E-02 0.99491198E+02</pdfrwt>
<pdfrwt beam="2">  1       -3 0.12521556E-01 0.99491198E+02</pdfrwt>
<totfact> 0.26636819E+04</totfact>
</mgrwt>
</event>
<event>
 5    1  0.7431090E-001  0.9008691E+02  0.7818608E-02  0.1302641E+00
         -3   -1    0    0    0  501 -0.00000000000E+00  0.00000000000E+00  0.14336755177E+03  0.14336758194E+03  0.93000000000E-01 0.  1.
          3   -1    0    0  501    0  0.00000000000E+00 -0.00000000000E+00 -0.14151642494E+02  0.14151948074E+02  0.93000000000E-01 0. -1.
         23    2    1    2    0    0  0.00000000000E+00  0.00000000000E+00  0.12921590928E+03  0.15751953001E+03  0.90086908727E+02 0.  0.
        -11    1    3    3    0    0  0.24594691704E+02  0.11743835615E+02  0.19019026886E+01  0.27320940121E+02  0.51100000000E-03 0. -1.
         11    1    3    3    0    0 -0.24594691704E+02 -0.11743835615E+02  0.12731400659E+03  0.13019858989E+03  0.51100000000E-03 0.  1.
<mgrwt>
<rscale>  0 0.90086909E+02</rscale>
<asrwt>0</asrwt>
<pdfrwt beam="2">  1        3 0.21772016E-02 0.90086909E+02</pdfrwt>
<pdfrwt beam="1">  1       -3 0.22056572E-01 0.90086909E+02</pdfrwt>
<totfact> 0.31872850E+04</totfact>
</mgrwt>
</event>
<event>
 5    1  0.7431090E-001  0.9194590E+02  0.7818608E-02  0.1298207E+00
          3   -1    0    0  501    0  0.00000000000E+00  0.00000000000E+00  0.10364434291E+03  0.10364438464E+03  0.93000000000E-01 0. -1.
         -3   -1    0    0    0  501 -0.00000000000E+00 -0.00000000000E+00 -0.20391814535E+02  0.20392026604E+02  0.93000000000E-01 0.  1.
         23    2    1    2    0    0  0.00000000000E+00  0.00000000000E+00  0.83252528376E+02  0.12403641124E+03  0.91945896223E+02 0.  0.
        -11    1    3    3    0    0 -0.30001356240E+02  0.10322293129E+02  0.86507755390E+02  0.92142405301E+02  0.51100000000E-03 0. -1.
         11    1    3    3    0    0  0.30001356240E+02 -0.10322293129E+02 -0.32552270146E+01  0.31894005939E+02  0.51100000000E-03 0.  1.
<mgrwt>
<rscale>  0 0.91945896E+02</rscale>
<asrwt>0</asrwt>
<pdfrwt beam="1">  1        3 0.15945303E-01 0.91945896E+02</pdfrwt>
<pdfrwt beam="2">  1       -3 0.31372218E-02 0.91945896E+02</pdfrwt>
<totfact> 0.32227553E+04</totfact>
</mgrwt>
</event>
<event>
 5    1  0.7431090E-001  0.9370006E+02  0.7818608E-02  0.1294131E+00
          3   -1    0    0  501    0  0.00000000000E+00  0.00000000000E+00  0.97230725439E+01  0.97235173006E+01  0.93000000000E-01 0. -1.
         -3   -1    0    0    0  501 -0.00000000000E+00 -0.00000000000E+00 -0.22573836572E+03  0.22573838488E+03  0.93000000000E-01 0.  1.
         23    2    1    2    0    0  0.00000000000E+00  0.00000000000E+00 -0.21601529318E+03  0.23546190218E+03  0.93700055983E+02 0.  0.
        -11    1    3    3    0    0  0.23631698701E+02 -0.30844902281E+02 -0.17378025790E+03  0.17807145536E+03  0.51100000000E-03 0.  1.
         11    1    3    3    0    0 -0.23631698701E+02  0.30844902281E+02 -0.42235035279E+02  0.57390446814E+02  0.51100000000E-03 0. -1.
<mgrwt>
<rscale>  0 0.93700056E+02</rscale>
<asrwt>0</asrwt>
<pdfrwt beam="1">  1        3 0.14958932E-02 0.93700056E+02</pdfrwt>
<pdfrwt beam="2">  1       -3 0.34729011E-01 0.93700056E+02</pdfrwt>
<totfact> 0.24858299E+04</totfact>
</mgrwt>
</event>
<event>
 5    1  0.7431090E-001  0.7413594E+02  0.7818608E-02  0.1346568E+00
          3   -1    0    0  501    0  0.00000000000E+00  0.00000000000E+00  0.50413488055E+02  0.50413573836E+02  0.93000000000E-01 0. -1.
         -3   -1    0    0    0  501 -0.00000000000E+00 -0.00000000000E+00 -0.27255108002E+02  0.27255266669E+02  0.93000000000E-01 0.  1.
         23    2    1    2    0    0  0.00000000000E+00  0.00000000000E+00  0.23158380053E+02  0.77668840505E+02  0.74135944175E+02 0.  0.
        -11    1    3    3    0    0  0.17794063422E+02 -0.18656584022E+02  0.39481780846E+02  0.47154086137E+02  0.51100000000E-03 0. -1.
         11    1    3    3    0    0 -0.17794063422E+02  0.18656584022E+02 -0.16323400792E+02  0.30514754368E+02  0.51100000000E-03 0.  1.
<mgrwt>
<rscale>  0 0.74135944E+02</rscale>
<asrwt>0</asrwt>
<pdfrwt beam="1">  1        3 0.77559400E-02 0.74135944E+02</pdfrwt>
<pdfrwt beam="2">  1       -3 0.41931123E-02 0.74135944E+02</pdfrwt>
<totfact> 0.63563131E+04</totfact>
</mgrwt>
</event>
<event>
 5    1  0.7431090E-001  0.9173630E+02  0.7818608E-02  0.1298701E+00
         -3   -1    0    0    0  501 -0.00000000000E+00  0.00000000000E+00  0.89139950519E+02  0.89139999032E+02  0.93000000000E-01 0.  1.
          3   -1    0    0  501    0  0.00000000000E+00 -0.00000000000E+00 -0.23601922403E+02  0.23602105629E+02  0.93000000000E-01 0. -1.
         23    2    1    2    0    0  0.00000000000E+00  0.00000000000E+00  0.65538028116E+02  0.11274210466E+03  0.91736301615E+02 0.  0.
        -11    1    3    3    0    0 -0.13377685883E+02  0.43864441945E+02  0.33892379703E+02  0.57024075169E+02  0.51100000000E-03 0.  1.
         11    1    3    3    0    0  0.13377685883E+02 -0.43864441945E+02  0.31645648413E+02  0.55718029492E+02  0.51100000000E-03 0. -1.
<mgrwt>
<rscale>  0 0.91736302E+02</rscale>
<asrwt>0</asrwt>
<pdfrwt beam="2">  1        3 0.36310829E-02 0.91736302E+02</pdfrwt>
<pdfrwt beam="1">  1       -3 0.13713856E-01 0.91736302E+02</pdfrwt>
<totfact> 0.33194361E+04</totfact>
</mgrwt>
</event>
<event>
 5    1  0.7431090E-001  0.9190974E+02  0.7818608E-02  0.1298292E+00
          3   -1    0    0  501    0  0.00000000000E+00  0.00000000000E+00  0.45960922511E+02  0.45961016602E+02  0.93000000000E-01 0. -1.
         -3   -1    0    0    0  501 -0.00000000000E+00 -0.00000000000E+00 -0.45948628514E+02  0.45948722630E+02  0.93000000000E-01 0.  1.
         23    2    1    2    0    0  0.00000000000E+00  0.00000000000E+00  0.12293996658E-01  0.91909739232E+02  0.91909738410E+02 0.  0.
        -11    1    3    3    0    0 -0.19616675943E+02  0.34234937057E+02  0.23564693705E+02  0.45958020846E+02  0.51100000000E-03 0.  1.
         11    1    3    3    0    0  0.19616675943E+02 -0.34234937057E+02 -0.23552399709E+02  0.45951718386E+02  0.51100000000E-03 0. -1.
<mgrwt>
<rscale>  0 0.91909738E+02</rscale>
<asrwt>0</asrwt>
<pdfrwt beam="1">  1        3 0.70709256E-02 0.91909738E+02</pdfrwt>
<pdfrwt beam="2">  1       -3 0.70690343E-02 0.91909738E+02</pdfrwt>
<totfact> 0.34519302E+04</totfact>
</mgrwt>
</event>
<event>
 5    1  0.7431090E-001  0.9437940E+02  0.7818608E-02  0.1292580E+00
          3   -1    0    0  501    0  0.00000000000E+00  0.00000000000E+00  0.20985924877E+03  0.20985926938E+03  0.93000000000E-01 0. -1.
         -3   -1    0    0    0  501 -0.00000000000E+00 -0.00000000000E+00 -0.10611019255E+02  0.10611426795E+02  0.93000000000E-01 0.  1.
         23    2    1    2    0    0  0.00000000000E+00  0.00000000000E+00  0.19924822951E+03  0.22047069617E+03  0.94379398736E+02 0.  0.
        -11    1    3    3    0    0 -0.19543196068E+02 -0.41596510494E+02  0.12463807932E+03  0.13284147325E+03  0.51100000000E-03 0. -1.
         11    1    3    3    0    0  0.19543196068E+02  0.41596510494E+02  0.74610150194E+02  0.87629222923E+02  0.51100000000E-03 0.  1.
<mgrwt>
<rscale>  0 0.94379399E+02</rscale>
<asrwt>0</asrwt>
<pdfrwt beam="1">  1        3 0.32286070E-01 0.94379399E+02</pdfrwt>
<pdfrwt beam="2">  1       -3 0.16324975E-02 0.94379399E+02</pdfrwt>
<totfact> 0.25025545E+04</totfact>
</mgrwt>
</event>
<event>
 5    1  0.7431090E-001  0.9717405E+02  0.7818608E-02  0.1286353E+00
         -3   -1    0    0    0  501 -0.00000000000E+00  0.00000000000E+00  0.10722072427E+03  0.10722076460E+03  0.93000000000E-01 0.  1.
          3   -1    0    0  501    0  0.00000000000E+00 -0.00000000000E+00 -0.22017045153E+02  0.22017241568E+02  0.93000000000E-01 0. -1.
         23    2    1    2    0    0  0.00000000000E+00  0.00000000000E+00  0.85203679114E+02  0.12923800617E+03  0.97174046450E+02 0.  0.
        -11    1    3    3    0    0  0.56353331519E+01  0.24886992024E+02  0.97591952162E+02  0.10087273407E+03  0.51100000000E-03 0.  1.
         11    1    3    3    0    0 -0.56353331519E+01 -0.24886992024E+02 -0.12388273048E+02  0.28365272097E+02  0.51100000000E-03 0. -1.
<mgrwt>
<rscale>  0 0.97174046E+02</rscale>
<asrwt>0</asrwt>
<pdfrwt beam="2">  1        3 0.33872559E-02 0.97174046E+02</pdfrwt>
<pdfrwt beam="1">  1       -3 0.16495514E-01 0.97174046E+02</pdfrwt>
<totfact> 0.27424018E+04</totfact>
</mgrwt>
</event>
<event>
 5    1  0.7431090E-001  0.9281799E+02  0.7818608E-02  0.1296168E+00
          3   -1    0    0  501    0  0.00000000000E+00  0.00000000000E+00  0.28460245953E+02  0.28460397902E+02  0.93000000000E-01 0. -1.
         -3   -1    0    0    0  501 -0.00000000000E+00 -0.00000000000E+00 -0.75676933179E+02  0.75676990323E+02  0.93000000000E-01 0.  1.
         23    2    1    2    0    0  0.00000000000E+00  0.00000000000E+00 -0.47216687225E+02  0.10413738822E+03  0.92817994342E+02 0.  0.
        -11    1    3    3    0    0  0.24357530736E+02  0.19207124480E+02 -0.62337524003E+02  0.69628800316E+02  0.51100000000E-03 0.  1.
         11    1    3    3    0    0 -0.24357530736E+02 -0.19207124480E+02  0.15120836778E+02  0.34508587909E+02  0.51100000000E-03 0. -1.
<mgrwt>
<rscale>  0 0.92817994E+02</rscale>
<asrwt>0</asrwt>
<pdfrwt beam="1">  1        3 0.43785155E-02 0.92817994E+02</pdfrwt>
<pdfrwt beam="2">  1       -3 0.11642621E-01 0.92817994E+02</pdfrwt>
<totfact> 0.32736078E+04</totfact>
</mgrwt>
</event>
<event>
 5    1  0.7431090E-001  0.9401525E+02  0.7818608E-02  0.1293410E+00
          3   -1    0    0  501    0  0.00000000000E+00  0.00000000000E+00  0.50937150478E+02  0.50937235377E+02  0.93000000000E-01 0.  1.
         -3   -1    0    0    0  501 -0.00000000000E+00 -0.00000000000E+00 -0.43381074118E+02  0.43381173804E+02  0.93000000000E-01 0. -1.
         23    2    1    2    0    0  0.00000000000E+00  0.00000000000E+00  0.75560763600E+01  0.94318409181E+02  0.94015254190E+02 0.  0.
        -11    1    3    3    0    0 -0.64102021090E+01 -0.45854491204E+02  0.11927775742E+02  0.47812099819E+02  0.51100000000E-03 0. -1.
         11    1    3    3    0    0  0.64102021090E+01  0.45854491204E+02 -0.43716993819E+01  0.46506309362E+02  0.51100000000E-03 0.  1.
<mgrwt>
<rscale>  0 0.94015254E+02</rscale>
<asrwt>0</asrwt>
<pdfrwt beam="1">  1        3 0.78364989E-02 0.94015254E+02</pdfrwt>
<pdfrwt beam="2">  1       -3 0.66740256E-02 0.94015254E+02</pdfrwt>
<totfact> 0.32277670E+04</totfact>
</mgrwt>
</event>
<event>
 5    1  0.7431090E-001  0.9118474E+02  0.7818608E-02  0.1300008E+00
         -3   -1    0    0    0  501 -0.00000000000E+00  0.00000000000E+00  0.20172325865E+02  0.20172540242E+02  0.93000000000E-01 0.  1.
          3   -1    0    0  501    0  0.00000000000E+00 -0.00000000000E+00 -0.10304454945E+03  0.10304459142E+03  0.93000000000E-01 0. -1.
         23    2    1    2    0    0  0.00000000000E+00  0.00000000000E+00 -0.82872223584E+02  0.12321713166E+03  0.91184736071E+02 0.  0.
        -11    1    3    3    0    0 -0.11479507680E+02  0.21312943758E+02 -0.93642899909E+02  0.96721318084E+02  0.51100000000E-03 0. -1.
         11    1    3    3    0    0  0.11479507680E+02 -0.21312943758E+02  0.10770676326E+02  0.26495813574E+02  0.51100000000E-03 0.  1.
<mgrwt>
<rscale>  0 0.91184736E+02</rscale>
<asrwt>0</asrwt>
<pdfrwt beam="2">  1        3 0.15853027E-01 0.91184736E+02</pdfrwt>
<pdfrwt beam="1">  1       -3 0.31034545E-02 0.91184736E+02</pdfrwt>
<totfact> 0.33019909E+04</totfact>
</mgrwt>
</event>
<event>
 5    1  0.7431090E-001  0.9269643E+02  0.7818608E-02  0.1296450E+00
          3   -1    0    0  501    0  0.00000000000E+00  0.00000000000E+00  0.19395732788E+02  0.19395955748E+02  0.93000000000E-01 0. -1.
         -3   -1    0    0    0  501 -0.00000000000E+00 -0.00000000000E+00 -0.11075322805E+03  0.11075326709E+03  0.93000000000E-01 0.  1.
         23    2    1    2    0    0  0.00000000000E+00  0.00000000000E+00 -0.91357495259E+02  0.13014922284E+03  0.92696430708E+02 0.  0.
        -11    1    3    3    0    0  0.17232157882E+01  0.45139247373E+02 -0.60245314994E+02  0.75299529248E+02  0.51100000000E-03 0.  1.
         11    1    3    3    0    0 -0.17232157882E+01 -0.45139247373E+02 -0.31112180265E+02  0.54849693592E+02  0.51100000000E-03 0. -1.
<mgrwt>
<rscale>  0 0.92696431E+02</rscale>
<asrwt>0</asrwt>
<pdfrwt beam="1">  1        3 0.29839791E-02 0.92696431E+02</pdfrwt>
<pdfrwt beam="2">  1       -3 0.17038978E-01 0.92696431E+02</pdfrwt>
<totfact> 0.31135842E+04</totfact>
</mgrwt>
</event>
<event>
 5    1  0.7431090E-001  0.9004359E+02  0.7818608E-02  0.1302746E+00
         -3   -1    0    0    0  501 -0.00000000000E+00  0.00000000000E+00  0.10495030866E+02  0.10495442910E+02  0.93000000000E-01 0.  1.
          3   -1    0    0  501    0  0.00000000000E+00 -0.00000000000E+00 -0.19313120298E+03  0.19313122537E+03  0.93000000000E-01 0. -1.
         23    2    1    2    0    0  0.00000000000E+00  0.00000000000E+00 -0.18263617212E+03  0.20362666828E+03  0.90043593169E+02 0.  0.
        -11    1    3    3    0    0 -0.62605732035E+00  0.43016279514E+02 -0.12133373329E+03  0.12873487129E+03  0.51100000000E-03 0.  1.
         11    1    3    3    0    0  0.62605732035E+00 -0.43016279514E+02 -0.61302438825E+02  0.74891796995E+02  0.51100000000E-03 0. -1.
<mgrwt>
<rscale>  0 0.90043593E+02</rscale>
<asrwt>0</asrwt>
<pdfrwt beam="2">  1        3 0.29712523E-01 0.90043593E+02</pdfrwt>
<pdfrwt beam="1">  1       -3 0.16146537E-02 0.90043593E+02</pdfrwt>
<totfact> 0.29281613E+04</totfact>
</mgrwt>
</event>
<event>
 5    1  0.7431090E-001  0.8930847E+02  0.7818608E-02  0.1304535E+00
          3   -1    0    0  501    0  0.00000000000E+00  0.00000000000E+00  0.55584313887E+02  0.55584391688E+02  0.93000000000E-01 0. -1.
         -3   -1    0    0    0  501 -0.00000000000E+00 -0.00000000000E+00 -0.35873281706E+02  0.35873402255E+02  0.93000000000E-01 0.  1.
         23    2    1    2    0    0  0.00000000000E+00  0.00000000000E+00  0.19711032182E+02  0.91457793943E+02  0.89308472628E+02 0.  0.
        -11    1    3    3    0    0  0.25581755949E+01 -0.35643303349E+02  0.37277010267E+02  0.51638791917E+02  0.51100000000E-03 0. -1.
         11    1    3    3    0    0 -0.25581755949E+01  0.35643303349E+02 -0.17565978085E+02  0.39819002026E+02  0.51100000000E-03 0.  1.
<mgrwt>
<rscale>  0 0.89308473E+02</rscale>
<asrwt>0</asrwt>
<pdfrwt beam="1">  1        3 0.85514482E-02 0.89308473E+02</pdfrwt>
<pdfrwt beam="2">  1       -3 0.55189817E-02 0.89308473E+02</pdfrwt>
<totfact> 0.37360840E+04</totfact>
</mgrwt>
</event>
<event>
 5    1  0.7431090E-001  0.9383534E+02  0.7818608E-02  0.1293821E+00
         -3   -1    0    0    0  501 -0.00000000000E+00  0.00000000000E+00  0.16603303581E+03  0.16603306186E+03  0.93000000000E-01 0.  1.
          3   -1    0    0  501    0  0.00000000000E+00 -0.00000000000E+00 -0.13257819379E+02  0.13258145560E+02  0.93000000000E-01 0. -1.
         23    2    1    2    0    0  0.00000000000E+00  0.00000000000E+00  0.15277521643E+03  0.17929120742E+03  0.93835336102E+02 0.  0.
        -11    1    3    3    0    0  0.24423864446E+02 -0.35146145112E+02  0.11311536925E+03  0.12094157032E+03  0.51100000000E-03 0.  1.
         11    1    3    3    0    0 -0.24423864446E+02  0.35146145112E+02  0.39659847184E+02  0.58349637100E+02  0.51100000000E-03 0. -1.
<mgrwt>
<rscale>  0 0.93835336E+02</rscale>
<asrwt>0</asrwt>
<pdfrwt beam="2">  1        3 0.20396915E-02 0.93835336E+02</pdfrwt>
<pdfrwt beam="1">  1       -3 0.25543573E-01 0.93835336E+02</pdfrwt>
<totfact> 0.27386596E+04</totfact>
</mgrwt>
</event>
<event>
 5    1  0.7431090E-001  0.9283899E+02  0.7818608E-02  0.1296119E+00
          3   -1    0    0  501    0  0.00000000000E+00  0.00000000000E+00  0.22632539542E+02  0.22632730615E+02  0.93000000000E-01 0. -1.
         -3   -1    0    0    0  501 -0.00000000000E+00 -0.00000000000E+00 -0.95206089009E+02  0.95206134431E+02  0.93000000000E-01 0.  1.
         23    2    1    2    0    0  0.00000000000E+00  0.00000000000E+00 -0.72573549467E+02  0.11783886505E+03  0.92838989833E+02 0.  0.
        -11    1    3    3    0    0 -0.44211067760E+02  0.39956844430E+01 -0.19060718325E+02  0.48310402503E+02  0.51100000000E-03 0. -1.
         11    1    3    3    0    0  0.44211067760E+02 -0.39956844430E+01 -0.53512831142E+02  0.69528462544E+02  0.51100000000E-03 0.  1.
<mgrwt>
<rscale>  0 0.92838990E+02</rscale>
<asrwt>0</asrwt>
<pdfrwt beam="1">  1        3 0.34819474E-02 0.92838990E+02</pdfrwt>
<pdfrwt beam="2">  1       -3 0.14647109E-01 0.92838990E+02</pdfrwt>
<totfact> 0.31792975E+04</totfact>
</mgrwt>
</event>
<event>
 5    1  0.7431090E-001  0.9229601E+02  0.7818608E-02  0.1297385E+00
          3   -1    0    0  501    0  0.00000000000E+00  0.00000000000E+00  0.72623134620E+02  0.72623194167E+02  0.93000000000E-01 0. -1.
         -3   -1    0    0    0  501 -0.00000000000E+00 -0.00000000000E+00 -0.29324372917E+02  0.29324520388E+02  0.93000000000E-01 0.  1.
         23    2    1    2    0    0  0.00000000000E+00  0.00000000000E+00  0.43298761703E+02  0.10194771456E+03  0.92296011496E+02 0.  0.
        -11    1    3    3    0    0 -0.44388085269E+01 -0.45254230892E+02  0.12952663068E+02  0.47280227533E+02  0.51100000000E-03 0.  1.
         11    1    3    3    0    0  0.44388085269E+01  0.45254230892E+02  0.30346098635E+02  0.54667487023E+02  0.51100000000E-03 0. -1.
<mgrwt>
<rscale>  0 0.92296011E+02</rscale>
<asrwt>0</asrwt>
<pdfrwt beam="1">  1        3 0.11172806E-01 0.92296011E+02</pdfrwt>
<pdfrwt beam="2">  1       -3 0.45114579E-02 0.92296011E+02</pdfrwt>
<totfact> 0.33397148E+04</totfact>
</mgrwt>
</event>
<event>
 5    1  0.7431090E-001  0.9983967E+02  0.7818608E-02  0.1280633E+00
          3   -1    0    0  501    0  0.00000000000E+00  0.00000000000E+00  0.38287437865E+02  0.38287550813E+02  0.93000000000E-01 0. -1.
         -3   -1    0    0    0  501 -0.00000000000E+00 -0.00000000000E+00 -0.65086110487E+02  0.65086176930E+02  0.93000000000E-01 0.  1.
         23    2    1    2    0    0  0.00000000000E+00  0.00000000000E+00 -0.26798672622E+02  0.10337372774E+03  0.99839665130E+02 0.  0.
        -11    1    3    3    0    0 -0.23267508100E+02 -0.37292382103E+02 -0.37898925383E+02  0.58038153326E+02  0.51100000000E-03 0.  1.
         11    1    3    3    0    0  0.23267508100E+02  0.37292382103E+02  0.11100252761E+02  0.45335574417E+02  0.51100000000E-03 0. -1.
<mgrwt>
<rscale>  0 0.99839665E+02</rscale>
<asrwt>0</asrwt>
<pdfrwt beam="1">  1        3 0.58903889E-02 0.99839665E+02</pdfrwt>
<pdfrwt beam="2">  1       -3 0.10013262E-01 0.99839665E+02</pdfrwt>
<totfact> 0.26847672E+04</totfact>
</mgrwt>
</event>
<event>
 5    1  0.7431090E-001  0.9099361E+02  0.7818608E-02  0.1300463E+00
         -3   -1    0    0    0  501 -0.00000000000E+00  0.00000000000E+00  0.13604688218E+03  0.13604691397E+03  0.93000000000E-01 0.  1.
          3   -1    0    0  501    0  0.00000000000E+00 -0.00000000000E+00 -0.15214869053E+02  0.15215153278E+02  0.93000000000E-01 0. -1.
         23    2    1    2    0    0  0.00000000000E+00  0.00000000000E+00  0.12083201313E+03  0.15126206725E+03  0.90993612914E+02 0.  0.
        -11    1    3    3    0    0 -0.52035713846E+01 -0.42736268868E+02  0.84875171125E+02  0.95169640672E+02  0.51100000000E-03 0.  1.
         11    1    3    3    0    0  0.52035713846E+01  0.42736268868E+02  0.35956842005E+02  0.56092426576E+02  0.51100000000E-03 0. -1.
<mgrwt>
<rscale>  0 0.90993613E+02</rscale>
<asrwt>0</asrwt>
<pdfrwt beam="2">  1        3 0.23407734E-02 0.90993613E+02</pdfrwt>
<pdfrwt beam="1">  1       -3 0.20930313E-01 0.90993613E+02</pdfrwt>
<totfact> 0.31401759E+04</totfact>
</mgrwt>
</event>
<event>
 5    1  0.7431090E-001  0.9223733E+02  0.7818608E-02  0.1297522E+00
          3   -1    0    0  501    0  0.00000000000E+00  0.00000000000E+00  0.19029898615E+02  0.19030125862E+02  0.93000000000E-01 0. -1.
         -3   -1    0    0    0  501 -0.00000000000E+00 -0.00000000000E+00 -0.11176696775E+03  0.11176700645E+03  0.93000000000E-01 0.  1.
         23    2    1    2    0    0  0.00000000000E+00  0.00000000000E+00 -0.92737069139E+02  0.13079713231E+03  0.92237334239E+02 0.  0.
        -11    1    3    3    0    0  0.16553828456E+02 -0.10684363713E+02 -0.10549877234E+03  0.10732276473E+03  0.51100000000E-03 0.  1.
         11    1    3    3    0    0 -0.16553828456E+02  0.10684363713E+02  0.12761703197E+02  0.23474367579E+02  0.51100000000E-03 0. -1.
<mgrwt>
<rscale>  0 0.92237334E+02</rscale>
<asrwt>0</asrwt>
<pdfrwt beam="1">  1        3 0.29276972E-02 0.92237334E+02</pdfrwt>
<pdfrwt beam="2">  1       -3 0.17194938E-01 0.92237334E+02</pdfrwt>
<totfact> 0.31518364E+04</totfact>
</mgrwt>
</event>
<event>
 5    1  0.7431090E-001  0.9207403E+02  0.7818608E-02  0.1297905E+00
         -3   -1    0    0    0  501 -0.00000000000E+00  0.00000000000E+00  0.38133131129E+02  0.38133244534E+02  0.93000000000E-01 0.  1.
          3   -1    0    0  501    0  0.00000000000E+00 -0.00000000000E+00 -0.55578904726E+02  0.55578982535E+02  0.93000000000E-01 0. -1.
         23    2    1    2    0    0  0.00000000000E+00  0.00000000000E+00 -0.17445773598E+02  0.93712227068E+02  0.92074027205E+02 0.  0.
        -11    1    3    3    0    0 -0.39418516309E+02 -0.38765371750E+01  0.15158597209E+02  0.42410258642E+02  0.51100000000E-03 0.  1.
         11    1    3    3    0    0  0.39418516309E+02  0.38765371750E+01 -0.32604370807E+02  0.51301968426E+02  0.51100000000E-03 0. -1.
<mgrwt>
<rscale>  0 0.92074027E+02</rscale>
<asrwt>0</asrwt>
<pdfrwt beam="2">  1        3 0.85506155E-02 0.92074027E+02</pdfrwt>
<pdfrwt beam="1">  1       -3 0.58666503E-02 0.92074027E+02</pdfrwt>
<totfact> 0.34217811E+04</totfact>
</mgrwt>
</event>
<event>
 5    1  0.7431090E-001  0.9292842E+02  0.7818608E-02  0.1295911E+00
         -3   -1    0    0    0  501 -0.00000000000E+00  0.00000000000E+00  0.40073901431E+03  0.40073902510E+03  0.93000000000E-01 0.  1.
          3   -1    0    0  501    0  0.00000000000E+00 -0.00000000000E+00 -0.53869416055E+01  0.53877443203E+01  0.93000000000E-01 0. -1.
         23    2    1    2    0    0  0.00000000000E+00  0.00000000000E+00  0.39535207270E+03  0.40612676942E+03  0.92928421105E+02 0.  0.
        -11    1    3    3    0    0 -0.37047781734E+02 -0.25687912445E+02  0.24683306082E+03  0.25091625474E+03  0.51100000000E-03 0.  1.
         11    1    3    3    0    0  0.37047781734E+02  0.25687912445E+02  0.14851901188E+03  0.15521051468E+03  0.51100000000E-03 0. -1.
<mgrwt>
<rscale>  0 0.92928421E+02</rscale>
<asrwt>0</asrwt>
<pdfrwt beam="2">  1        3 0.82882300E-03 0.92928421E+02</pdfrwt>
<pdfrwt beam="1">  1       -3 0.61652205E-01 0.92928421E+02</pdfrwt>
<totfact> 0.19400974E+04</totfact>
</mgrwt>
</event>
<event>
 5    1  0.7431090E-001  0.9252814E+02  0.7818608E-02  0.1296842E+00
         -3   -1    0    0    0  501 -0.00000000000E+00  0.00000000000E+00  0.13724679088E+03  0.13724682239E+03  0.93000000000E-01 0.  1.
          3   -1    0    0  501    0  0.00000000000E+00 -0.00000000000E+00 -0.15594833122E+02  0.15595110423E+02  0.93000000000E-01 0. -1.
         23    2    1    2    0    0  0.00000000000E+00  0.00000000000E+00  0.12165195776E+03  0.15284193282E+03  0.92528144906E+02 0.  0.
        -11    1    3    3    0    0 -0.33108981430E+02  0.28479353747E+02  0.86044923511E+02  0.96493559907E+02  0.51100000000E-03 0.  1.
         11    1    3    3    0    0  0.33108981430E+02 -0.28479353747E+02  0.35607034251E+02  0.56348372910E+02  0.51100000000E-03 0. -1.
<mgrwt>
<rscale>  0 0.92528145E+02</rscale>
<asrwt>0</asrwt>
<pdfrwt beam="2">  1        3 0.23992288E-02 0.92528145E+02</pdfrwt>
<pdfrwt beam="1">  1       -3 0.21114915E-01 0.92528145E+02</pdfrwt>
<totfact> 0.29916374E+04</totfact>
</mgrwt>
</event>
<event>
 5    1  0.7431090E-001  0.9978636E+02  0.7818608E-02  0.1280746E+00
         -3   -1    0    0    0  501 -0.00000000000E+00  0.00000000000E+00  0.12820136901E+03  0.12820140274E+03  0.93000000000E-01 0.  1.
          3   -1    0    0  501    0  0.00000000000E+00 -0.00000000000E+00 -0.19417192373E+02  0.19417415086E+02  0.93000000000E-01 0. -1.
         23    2    1    2    0    0  0.00000000000E+00  0.00000000000E+00  0.10878417664E+03  0.14761881783E+03  0.99786363249E+02 0.  0.
        -11    1    3    3    0    0  0.34260062995E+02 -0.10040012532E+02  0.10595276338E+03  0.11180582201E+03  0.51100000000E-03 0.  1.
         11    1    3    3    0    0 -0.34260062995E+02  0.10040012532E+02  0.28314132598E+01  0.35812995817E+02  0.51100000000E-03 0. -1.
<mgrwt>
<rscale>  0 0.99786363E+02</rscale>
<asrwt>0</asrwt>
<pdfrwt beam="2">  1        3 0.29872801E-02 0.99786363E+02</pdfrwt>
<pdfrwt beam="1">  1       -3 0.19723307E-01 0.99786363E+02</pdfrwt>
<totfact> 0.24595495E+04</totfact>
</mgrwt>
</event>
<event>
 5    1  0.7431090E-001  0.8894272E+02  0.7818608E-02  0.1305432E+00
         -3   -1    0    0    0  501 -0.00000000000E+00  0.00000000000E+00  0.34451258119E+03  0.34451259374E+03  0.93000000000E-01 0.  1.
          3   -1    0    0  501    0  0.00000000000E+00 -0.00000000000E+00 -0.57401899295E+01  0.57409432523E+01  0.93000000000E-01 0. -1.
         23    2    1    2    0    0  0.00000000000E+00  0.00000000000E+00  0.33877239126E+03  0.35025353699E+03  0.88942718066E+02 0.  0.
        -11    1    3    3    0    0  0.41213780780E+02  0.13364101452E+02  0.12990292249E+03  0.13693773842E+03  0.51100000000E-03 0. -1.
         11    1    3    3    0    0 -0.41213780780E+02 -0.13364101452E+02  0.20886946877E+03  0.21331579857E+03  0.51100000000E-03 0.  1.
<mgrwt>
<rscale>  0 0.88942718E+02</rscale>
<asrwt>0</asrwt>
<pdfrwt beam="2">  1        3 0.88316483E-03 0.88942718E+02</pdfrwt>
<pdfrwt beam="1">  1       -3 0.53002008E-01 0.88942718E+02</pdfrwt>
<totfact> 0.23718579E+04</totfact>
</mgrwt>
</event>
<event>
 5    1  0.7431090E-001  0.9125944E+02  0.7818608E-02  0.1299830E+00
         -3   -1    0    0    0  501 -0.00000000000E+00  0.00000000000E+00  0.11559410813E+02  0.11559784918E+02  0.93000000000E-01 0.  1.
          3   -1    0    0  501    0  0.00000000000E+00 -0.00000000000E+00 -0.18011585819E+03  0.18011588220E+03  0.93000000000E-01 0. -1.
         23    2    1    2    0    0  0.00000000000E+00  0.00000000000E+00 -0.16855644738E+03  0.19167566712E+03  0.91259440128E+02 0.  0.
        -11    1    3    3    0    0 -0.20708253946E+02 -0.40053247915E+02 -0.98977123933E+02  0.10876380608E+03  0.51100000000E-03 0. -1.
         11    1    3    3    0    0  0.20708253946E+02  0.40053247915E+02 -0.69579323444E+02  0.82911861040E+02  0.51100000000E-03 0.  1.
<mgrwt>
<rscale>  0 0.91259440E+02</rscale>
<asrwt>0</asrwt>
<pdfrwt beam="2">  1        3 0.27710161E-01 0.91259440E+02</pdfrwt>
<pdfrwt beam="1">  1       -3 0.17784017E-02 0.91259440E+02</pdfrwt>
<totfact> 0.28863990E+04</totfact>
</mgrwt>
</event>
<event>
 5    1  0.7431090E-001  0.9126526E+02  0.7818608E-02  0.1299816E+00
          3   -1    0    0  501    0  0.00000000000E+00  0.00000000000E+00  0.14301115578E+03  0.14301118602E+03  0.93000000000E-01 0. -1.
         -3   -1    0    0    0  501 -0.00000000000E+00 -0.00000000000E+00 -0.14560479069E+02  0.14560776068E+02  0.93000000000E-01 0.  1.
         23    2    1    2    0    0  0.00000000000E+00  0.00000000000E+00  0.12845067671E+03  0.15757196209E+03  0.91265255648E+02 0.  0.
        -11    1    3    3    0    0  0.21654971622E+02  0.10780578244E+02  0.13103052707E+03  0.13324472856E+03  0.51100000000E-03 0. -1.
         11    1    3    3    0    0 -0.21654971622E+02 -0.10780578244E+02 -0.25798503578E+01  0.24327233533E+02  0.51100000000E-03 0.  1.
<mgrwt>
<rscale>  0 0.91265256E+02</rscale>
<asrwt>0</asrwt>
<pdfrwt beam="1">  1        3 0.22001741E-01 0.91265256E+02</pdfrwt>
<pdfrwt beam="2">  1       -3 0.22400989E-02 0.91265256E+02</pdfrwt>
<totfact> 0.30769181E+04</totfact>
</mgrwt>
</event>
<event>
 5    1  0.7431090E-001  0.8945160E+02  0.7818608E-02  0.1304185E+00
          3   -1    0    0  501    0  0.00000000000E+00  0.00000000000E+00  0.81161220537E+01  0.81166548646E+01  0.93000000000E-01 0. -1.
         -3   -1    0    0    0  501 -0.00000000000E+00 -0.00000000000E+00 -0.24646342216E+03  0.24646343971E+03  0.93000000000E-01 0.  1.
         23    2    1    2    0    0  0.00000000000E+00  0.00000000000E+00 -0.23834730011E+03  0.25458009457E+03  0.89451601908E+02 0.  0.
        -11    1    3    3    0    0  0.22589284718E+02  0.35351623633E+02 -0.16329911295E+03  0.16860193762E+03  0.51100000000E-03 0.  1.
         11    1    3    3    0    0 -0.22589284718E+02 -0.35351623633E+02 -0.75048187157E+02  0.85978156955E+02  0.51100000000E-03 0. -1.
<mgrwt>
<rscale>  0 0.89451602E+02</rscale>
<asrwt>0</asrwt>
<pdfrwt beam="1">  1        3 0.12486767E-02 0.89451602E+02</pdfrwt>
<pdfrwt beam="2">  1       -3 0.37917486E-01 0.89451602E+02</pdfrwt>
<totfact> 0.27259049E+04</totfact>
</mgrwt>
</event>
<event>
 5    1  0.7431090E-001  0.8990832E+02  0.7818608E-02  0.1303074E+00
          3   -1    0    0  501    0  0.00000000000E+00  0.00000000000E+00  0.11498561944E+03  0.11498565705E+03  0.93000000000E-01 0. -1.
         -3   -1    0    0    0  501 -0.00000000000E+00 -0.00000000000E+00 -0.17574871827E+02  0.17575117887E+02  0.93000000000E-01 0.  1.
         23    2    1    2    0    0  0.00000000000E+00  0.00000000000E+00  0.97410747613E+02  0.13256077494E+03  0.89908316085E+02 0.  0.
        -11    1    3    3    0    0  0.28593893827E+02 -0.26029958638E+02  0.82510843445E+02  0.91121944652E+02  0.51100000000E-03 0.  1.
         11    1    3    3    0    0 -0.28593893827E+02  0.26029958638E+02  0.14899904168E+02  0.41438830285E+02  0.51100000000E-03 0. -1.
<mgrwt>
<rscale>  0 0.89908316E+02</rscale>
<asrwt>0</asrwt>
<pdfrwt beam="1">  1        3 0.17690117E-01 0.89908316E+02</pdfrwt>
<pdfrwt beam="2">  1       -3 0.27038483E-02 0.89908316E+02</pdfrwt>
<totfact> 0.33660556E+04</totfact>
</mgrwt>
</event>
<event>
 5    1  0.7431090E-001  0.8949263E+02  0.7818608E-02  0.1304085E+00
          3   -1    0    0  501    0  0.00000000000E+00  0.00000000000E+00  0.84017990640E+01  0.84023137594E+01  0.93000000000E-01 0. -1.
         -3   -1    0    0    0  501 -0.00000000000E+00 -0.00000000000E+00 -0.23830215002E+03  0.23830216817E+03  0.93000000000E-01 0.  1.
         23    2    1    2    0    0  0.00000000000E+00  0.00000000000E+00 -0.22990035096E+03  0.24670448193E+03  0.89492625579E+02 0.  0.
        -11    1    3    3    0    0 -0.19346009463E+02  0.33113441357E+02 -0.51398516770E+02  0.64129366183E+02  0.51100000000E-03 0. -1.
         11    1    3    3    0    0  0.19346009463E+02 -0.33113441357E+02 -0.17850183419E+03  0.18257511574E+03  0.51100000000E-03 0.  1.
<mgrwt>
<rscale>  0 0.89492626E+02</rscale>
<asrwt>0</asrwt>
<pdfrwt beam="1">  1        3 0.12926256E-02 0.89492626E+02</pdfrwt>
<pdfrwt beam="2">  1       -3 0.36661905E-01 0.89492626E+02</pdfrwt>
<totfact> 0.27593702E+04</totfact>
</mgrwt>
</event>
<event>
 5    1  0.7431090E-001  0.9126959E+02  0.7818608E-02  0.1299806E+00
          3   -1    0    0  501    0  0.00000000000E+00  0.00000000000E+00  0.92189796666E+02  0.92189843575E+02  0.93000000000E-01 0. -1.
         -3   -1    0    0    0  501 -0.00000000000E+00 -0.00000000000E+00 -0.22589493369E+02  0.22589684807E+02  0.93000000000E-01 0.  1.
         23    2    1    2    0    0  0.00000000000E+00  0.00000000000E+00  0.69600303297E+02  0.11477952838E+03  0.91269589221E+02 0.  0.
        -11    1    3    3    0    0  0.60035189393E+01  0.42395321415E+02  0.54649691740E+02  0.69426178961E+02  0.51100000000E-03 0. -1.
         11    1    3    3    0    0 -0.60035189393E+01 -0.42395321415E+02  0.14950611557E+02  0.45353349421E+02  0.51100000000E-03 0.  1.
<mgrwt>
<rscale>  0 0.91269589E+02</rscale>
<asrwt>0</asrwt>
<pdfrwt beam="1">  1        3 0.14183064E-01 0.91269589E+02</pdfrwt>
<pdfrwt beam="2">  1       -3 0.34753251E-02 0.91269589E+02</pdfrwt>
<totfact> 0.33514335E+04</totfact>
</mgrwt>
</event>
<event>
 5    1  0.7431090E-001  0.9007974E+02  0.7818608E-02  0.1302659E+00
         -3   -1    0    0    0  501 -0.00000000000E+00  0.00000000000E+00  0.10167026303E+03  0.10167030556E+03  0.93000000000E-01 0.  1.
          3   -1    0    0  501    0  0.00000000000E+00 -0.00000000000E+00 -0.19952483736E+02  0.19952700475E+02  0.93000000000E-01 0. -1.
         23    2    1    2    0    0  0.00000000000E+00  0.00000000000E+00  0.81717779293E+02  0.12162300604E+03  0.90079743257E+02 0.  0.
        -11    1    3    3    0    0  0.57425419740E+01 -0.25441652180E+02  0.90436728477E+02  0.94122560058E+02  0.51100000000E-03 0.  1.
         11    1    3    3    0    0 -0.57425419740E+01  0.25441652180E+02 -0.87189491839E+01  0.27500445980E+02  0.51100000000E-03 0. -1.
<mgrwt>
<rscale>  0 0.90079743E+02</rscale>
<asrwt>0</asrwt>
<pdfrwt beam="2">  1        3 0.30696328E-02 0.90079743E+02</pdfrwt>
<pdfrwt beam="1">  1       -3 0.15641599E-01 0.90079743E+02</pdfrwt>
<totfact> 0.34242558E+04</totfact>
</mgrwt>
</event>
<event>
 5    1  0.7431090E-001  0.9699030E+02  0.7818608E-02  0.1286755E+00
         -3   -1    0    0    0  501 -0.00000000000E+00  0.00000000000E+00  0.23486095115E+02  0.23486279245E+02  0.93000000000E-01 0.  1.
          3   -1    0    0  501    0  0.00000000000E+00 -0.00000000000E+00 -0.10013436936E+03  0.10013441254E+03  0.93000000000E-01 0. -1.
         23    2    1    2    0    0  0.00000000000E+00  0.00000000000E+00 -0.76648274243E+02  0.12362069179E+03  0.96990295876E+02 0.  0.
        -11    1    3    3    0    0  0.40659264007E+02 -0.16069462903E+02 -0.11577160410E+02  0.45226474890E+02  0.51100000000E-03 0.  1.
         11    1    3    3    0    0 -0.40659264007E+02  0.16069462903E+02 -0.65071113833E+02  0.78394216899E+02  0.51100000000E-03 0. -1.
<mgrwt>
<rscale>  0 0.96990296E+02</rscale>
<asrwt>0</asrwt>
<pdfrwt beam="2">  1        3 0.15405305E-01 0.96990296E+02</pdfrwt>
<pdfrwt beam="1">  1       -3 0.36132630E-02 0.96990296E+02</pdfrwt>
<totfact> 0.27879136E+04</totfact>
</mgrwt>
</event>
<event>
 5    1  0.7431090E-001  0.9062701E+02  0.7818608E-02  0.1301340E+00
          3   -1    0    0  501    0  0.00000000000E+00  0.00000000000E+00  0.11309216869E+02  0.11309599250E+02  0.93000000000E-01 0. -1.
         -3   -1    0    0    0  501 -0.00000000000E+00 -0.00000000000E+00 -0.18155761437E+03  0.18155763819E+03  0.93000000000E-01 0.  1.
         23    2    1    2    0    0  0.00000000000E+00  0.00000000000E+00 -0.17024839751E+03  0.19286723744E+03  0.90627007156E+02 0.  0.
        -11    1    3    3    0    0  0.38125143815E+02  0.11817416911E+02 -0.39473884270E+02  0.56137024083E+02  0.51100000000E-03 0. -1.
         11    1    3    3    0    0 -0.38125143815E+02 -0.11817416911E+02 -0.13077451324E+03  0.13673021336E+03  0.51100000000E-03 0.  1.
<mgrwt>
<rscale>  0 0.90627007E+02</rscale>
<asrwt>0</asrwt>
<pdfrwt beam="1">  1        3 0.17399109E-02 0.90627007E+02</pdfrwt>
<pdfrwt beam="2">  1       -3 0.27931970E-01 0.90627007E+02</pdfrwt>
<totfact> 0.29345391E+04</totfact>
</mgrwt>
</event>
<event>
 5    1  0.7431090E-001  0.8320640E+02  0.7818608E-02  0.1320191E+00
          3   -1    0    0  501    0  0.00000000000E+00  0.00000000000E+00  0.77130005347E+02  0.77130061415E+02  0.93000000000E-01 0. -1.
         -3   -1    0    0    0  501 -0.00000000000E+00 -0.00000000000E+00 -0.22440213998E+02  0.22440406709E+02  0.93000000000E-01 0.  1.
         23    2    1    2    0    0  0.00000000000E+00  0.00000000000E+00  0.54689791349E+02  0.99570468124E+02  0.83206399060E+02 0.  0.
        -11    1    3    3    0    0 -0.36063286217E+02 -0.62763937512E+01  0.36861689155E+01  0.36790509276E+02  0.51100000000E-03 0.  1.
         11    1    3    3    0    0  0.36063286217E+02  0.62763937512E+01  0.51003622434E+02  0.62779958848E+02  0.51100000000E-03 0. -1.
<mgrwt>
<rscale>  0 0.83206399E+02</rscale>
<asrwt>0</asrwt>
<pdfrwt beam="1">  1        3 0.11866174E-01 0.83206399E+02</pdfrwt>
<pdfrwt beam="2">  1       -3 0.34523597E-02 0.83206399E+02</pdfrwt>
<totfact> 0.44439296E+04</totfact>
</mgrwt>
</event>
<event>
 5    1  0.7431090E-001  0.9085854E+02  0.7818608E-02  0.1300786E+00
         -3   -1    0    0    0  501 -0.00000000000E+00  0.00000000000E+00  0.52510546966E+02  0.52510629321E+02  0.93000000000E-01 0.  1.
          3   -1    0    0  501    0  0.00000000000E+00 -0.00000000000E+00 -0.39302768822E+02  0.39302878853E+02  0.93000000000E-01 0. -1.
         23    2    1    2    0    0  0.00000000000E+00  0.00000000000E+00  0.13207778144E+02  0.91813508174E+02  0.90858543240E+02 0.  0.
        -11    1    3    3    0    0 -0.26762131541E+02  0.20676261897E+02 -0.24048063580E+02  0.41497335491E+02  0.51100000000E-03 0. -1.
         11    1    3    3    0    0  0.26762131541E+02 -0.20676261897E+02  0.37255841724E+02  0.50316172683E+02  0.51100000000E-03 0.  1.
<mgrwt>
<rscale>  0 0.90858543E+02</rscale>
<asrwt>0</asrwt>
<pdfrwt beam="2">  1        3 0.60465947E-02 0.90858543E+02</pdfrwt>
<pdfrwt beam="1">  1       -3 0.80785604E-02 0.90858543E+02</pdfrwt>
<totfact> 0.35628200E+04</totfact>
</mgrwt>
</event>
<event>
 5    1  0.7431090E-001  0.9032329E+02  0.7818608E-02  0.1302071E+00
         -3   -1    0    0    0  501 -0.00000000000E+00  0.00000000000E+00  0.72700772573E+01  0.72706720685E+01  0.93000000000E-01 0.  1.
          3   -1    0    0  501    0  0.00000000000E+00 -0.00000000000E+00 -0.28053157908E+03  0.28053159450E+03  0.93000000000E-01 0. -1.
         23    2    1    2    0    0  0.00000000000E+00  0.00000000000E+00 -0.27326150182E+03  0.28780226656E+03  0.90323287478E+02 0.  0.
        -11    1    3    3    0    0 -0.34167938961E+02  0.24969765721E+02 -0.86387562930E+02  0.96196404726E+02  0.51100000000E-03 0.  1.
         11    1    3    3    0    0  0.34167938961E+02 -0.24969765721E+02 -0.18687393889E+03  0.19160586184E+03  0.51100000000E-03 0. -1.
<mgrwt>
<rscale>  0 0.90323287E+02</rscale>
<asrwt>0</asrwt>
<pdfrwt beam="2">  1        3 0.43158743E-01 0.90323287E+02</pdfrwt>
<pdfrwt beam="1">  1       -3 0.11185206E-02 0.90323287E+02</pdfrwt>
<totfact> 0.25136901E+04</totfact>
</mgrwt>
</event>
<event>
 5    1  0.7431090E-001  0.9061863E+02  0.7818608E-02  0.1301360E+00
          3   -1    0    0  501    0  0.00000000000E+00  0.00000000000E+00  0.51508829073E+02  0.51508913029E+02  0.93000000000E-01 0. -1.
         -3   -1    0    0    0  501 -0.00000000000E+00 -0.00000000000E+00 -0.39855793003E+02  0.39855901507E+02  0.93000000000E-01 0.  1.
         23    2    1    2    0    0  0.00000000000E+00  0.00000000000E+00  0.11653036069E+02  0.91364814536E+02  0.90618629904E+02 0.  0.
        -11    1    3    3    0    0 -0.74711116071E+01 -0.43255161655E+02  0.17148747387E+02  0.47126489957E+02  0.51100000000E-03 0. -1.
         11    1    3    3    0    0  0.74711116071E+01  0.43255161655E+02 -0.54957113179E+01  0.44238324579E+02  0.51100000000E-03 0.  1.
<mgrwt>
<rscale>  0 0.90618630E+02</rscale>
<asrwt>0</asrwt>
<pdfrwt beam="1">  1        3 0.79244500E-02 0.90618630E+02</pdfrwt>
<pdfrwt beam="2">  1       -3 0.61316753E-02 0.90618630E+02</pdfrwt>
<totfact> 0.35919811E+04</totfact>
</mgrwt>
</event>
<event>
 5    1  0.7431090E-001  0.9182052E+02  0.7818608E-02  0.1298502E+00
         -3   -1    0    0    0  501 -0.00000000000E+00  0.00000000000E+00  0.14256937863E+03  0.14256940897E+03  0.93000000000E-01 0.  1.
          3   -1    0    0  501    0  0.00000000000E+00 -0.00000000000E+00 -0.14783867254E+02  0.14784159766E+02  0.93000000000E-01 0. -1.
         23    2    1    2    0    0  0.00000000000E+00  0.00000000000E+00  0.12778551138E+03  0.15735356873E+03  0.91820524255E+02 0.  0.
        -11    1    3    3    0    0 -0.42203915486E+02 -0.10682494427E+02  0.88872129582E+02  0.98962324074E+02  0.51100000000E-03 0.  1.
         11    1    3    3    0    0  0.42203915486E+02  0.10682494427E+02  0.38913381798E+02  0.58391244658E+02  0.51100000000E-03 0. -1.
<mgrwt>
<rscale>  0 0.91820524E+02</rscale>
<asrwt>0</asrwt>
<pdfrwt beam="2">  1        3 0.22744659E-02 0.91820524E+02</pdfrwt>
<pdfrwt beam="1">  1       -3 0.21933776E-01 0.91820524E+02</pdfrwt>
<totfact> 0.30280719E+04</totfact>
</mgrwt>
</event>
<event>
 5    1  0.7431090E-001  0.9241070E+02  0.7818608E-02  0.1297117E+00
          3   -1    0    0  501    0  0.00000000000E+00  0.00000000000E+00  0.10478532198E+03  0.10478536325E+03  0.93000000000E-01 0. -1.
         -3   -1    0    0    0  501 -0.00000000000E+00 -0.00000000000E+00 -0.20374214309E+02  0.20374426562E+02  0.93000000000E-01 0.  1.
         23    2    1    2    0    0  0.00000000000E+00  0.00000000000E+00  0.84411107666E+02  0.12515978981E+03  0.92410702233E+02 0.  0.
        -11    1    3    3    0    0 -0.58340654169E+01 -0.18976925304E+02  0.98714057517E+02  0.10069074021E+03  0.51100000000E-03 0. -1.
         11    1    3    3    0    0  0.58340654169E+01  0.18976925304E+02 -0.14302949851E+02  0.24469049593E+02  0.51100000000E-03 0.  1.
<mgrwt>
<rscale>  0 0.92410702E+02</rscale>
<asrwt>0</asrwt>
<pdfrwt beam="1">  1        3 0.16120838E-01 0.92410702E+02</pdfrwt>
<pdfrwt beam="2">  1       -3 0.31345140E-02 0.92410702E+02</pdfrwt>
<totfact> 0.31715565E+04</totfact>
</mgrwt>
</event>
<event>
 5    1  0.7431090E-001  0.8457353E+02  0.7818608E-02  0.1316552E+00
         -3   -1    0    0    0  501 -0.00000000000E+00  0.00000000000E+00  0.36408214353E+02  0.36408333131E+02  0.93000000000E-01 0.  1.
          3   -1    0    0  501    0  0.00000000000E+00 -0.00000000000E+00 -0.49114237800E+02  0.49114325850E+02  0.93000000000E-01 0. -1.
         23    2    1    2    0    0  0.00000000000E+00  0.00000000000E+00 -0.12706023447E+02  0.85522658981E+02  0.84573531127E+02 0.  0.
        -11    1    3    3    0    0 -0.51523543415E+01  0.14203984494E+02  0.33585421095E+02  0.36827712951E+02  0.51100000000E-03 0.  1.
         11    1    3    3    0    0  0.51523543415E+01 -0.14203984494E+02 -0.46291444543E+02  0.48694946030E+02  0.51100000000E-03 0. -1.
<mgrwt>
<rscale>  0 0.84573531E+02</rscale>
<asrwt>0</asrwt>
<pdfrwt beam="2">  1        3 0.75560525E-02 0.84573531E+02</pdfrwt>
<pdfrwt beam="1">  1       -3 0.56012797E-02 0.84573531E+02</pdfrwt>
<totfact> 0.43866406E+04</totfact>
</mgrwt>
</event>
<event>
 5    1  0.7431090E-001  0.8994503E+02  0.7818608E-02  0.1302985E+00
          3   -1    0    0  501    0  0.00000000000E+00  0.00000000000E+00  0.46333425218E+03  0.46333426151E+03  0.93000000000E-01 0. -1.
         -3   -1    0    0    0  501 -0.00000000000E+00 -0.00000000000E+00 -0.43646529248E+01  0.43656436128E+01  0.93000000000E-01 0.  1.
         23    2    1    2    0    0  0.00000000000E+00  0.00000000000E+00  0.45896959925E+03  0.46769990512E+03  0.89945028848E+02 0.  0.
        -11    1    3    3    0    0  0.44315321310E+02 -0.46345770963E+01  0.19777000868E+03  0.20272716479E+03  0.51100000000E-03 0.  1.
         11    1    3    3    0    0 -0.44315321310E+02  0.46345770963E+01  0.26119959057E+03  0.26497274034E+03  0.51100000000E-03 0. -1.
<mgrwt>
<rscale>  0 0.89945029E+02</rscale>
<asrwt>0</asrwt>
<pdfrwt beam="1">  1        3 0.71282240E-01 0.89945029E+02</pdfrwt>
<pdfrwt beam="2">  1       -3 0.67156227E-03 0.89945029E+02</pdfrwt>
<totfact> 0.19412185E+04</totfact>
</mgrwt>
</event>
<event>
 5    1  0.7431090E-001  0.9020382E+02  0.7818608E-02  0.1302359E+00
          3   -1    0    0  501    0  0.00000000000E+00  0.00000000000E+00  0.30310624289E+02  0.30310766962E+02  0.93000000000E-01 0. -1.
         -3   -1    0    0    0  501 -0.00000000000E+00 -0.00000000000E+00 -0.67110862878E+02  0.67110927316E+02  0.93000000000E-01 0.  1.
         23    2    1    2    0    0  0.00000000000E+00  0.00000000000E+00 -0.36800238589E+02  0.97421694278E+02  0.90203818965E+02 0.  0.
        -11    1    3    3    0    0 -0.96290197861E+01  0.43818405150E+02 -0.23397646651E+02  0.50598621730E+02  0.51100000000E-03 0.  1.
         11    1    3    3    0    0  0.96290197861E+01 -0.43818405150E+02 -0.13402591937E+02  0.46823072548E+02  0.51100000000E-03 0. -1.
<mgrwt>
<rscale>  0 0.90203819E+02</rscale>
<asrwt>0</asrwt>
<pdfrwt beam="1">  1        3 0.46631889E-02 0.90203819E+02</pdfrwt>
<pdfrwt beam="2">  1       -3 0.10324764E-01 0.90203819E+02</pdfrwt>
<totfact> 0.35896014E+04</totfact>
</mgrwt>
</event>
<event>
 5    1  0.7431090E-001  0.8906190E+02  0.7818608E-02  0.1305139E+00
          3   -1    0    0  501    0  0.00000000000E+00  0.00000000000E+00  0.95747372024E+01  0.95751888491E+01  0.93000000000E-01 0. -1.
         -3   -1    0    0    0  501 -0.00000000000E+00 -0.00000000000E+00 -0.20710272738E+03  0.20710274826E+03  0.93000000000E-01 0.  1.
         23    2    1    2    0    0  0.00000000000E+00  0.00000000000E+00 -0.19752799018E+03  0.21667793711E+03  0.89061897165E+02 0.  0.
        -11    1    3    3    0    0  0.18631193254E+02 -0.35809337786E+02 -0.14451111295E+03  0.15004296651E+03  0.51100000000E-03 0.  1.
         11    1    3    3    0    0 -0.18631193254E+02  0.35809337786E+02 -0.53016877228E+02  0.66634970593E+02  0.51100000000E-03 0. -1.
<mgrwt>
<rscale>  0 0.89061897E+02</rscale>
<asrwt>0</asrwt>
<pdfrwt beam="1">  1        3 0.14730730E-02 0.89061897E+02</pdfrwt>
<pdfrwt beam="2">  1       -3 0.31861991E-01 0.89061897E+02</pdfrwt>
<totfact> 0.29457436E+04</totfact>
</mgrwt>
</event>
<event>
 5    1  0.7431090E-001  0.9074454E+02  0.7818608E-02  0.1301059E+00
          3   -1    0    0  501    0  0.00000000000E+00  0.00000000000E+00  0.15907535634E+02  0.15907807484E+02  0.93000000000E-01 0. -1.
         -3   -1    0    0    0  501 -0.00000000000E+00 -0.00000000000E+00 -0.12941165362E+03  0.12941168703E+03  0.93000000000E-01 0.  1.
         23    2    1    2    0    0  0.00000000000E+00  0.00000000000E+00 -0.11350411798E+03  0.14531949452E+03  0.90744535306E+02 0.  0.
        -11    1    3    3    0    0 -0.39037395740E+02 -0.18401631301E+02 -0.34326305991E+02  0.55143753807E+02  0.51100000000E-03 0. -1.
         11    1    3    3    0    0  0.39037395740E+02  0.18401631301E+02 -0.79177811993E+02  0.90175740712E+02  0.51100000000E-03 0.  1.
<mgrwt>
<rscale>  0 0.90744535E+02</rscale>
<asrwt>0</asrwt>
<pdfrwt beam="1">  1        3 0.24473367E-02 0.90744535E+02</pdfrwt>
<pdfrwt beam="2">  1       -3 0.19909508E-01 0.90744535E+02</pdfrwt>
<totfact> 0.32006153E+04</totfact>
</mgrwt>
</event>
<event>
 5    1  0.7431090E-001  0.9058995E+02  0.7818608E-02  0.1301429E+00
         -3   -1    0    0    0  501 -0.00000000000E+00  0.00000000000E+00  0.23131903976E+03  0.23131905845E+03  0.93000000000E-01 0.  1.
          3   -1    0    0  501    0  0.00000000000E+00 -0.00000000000E+00 -0.88690236914E+01  0.88695112739E+01  0.93000000000E-01 0. -1.
         23    2    1    2    0    0  0.00000000000E+00  0.00000000000E+00  0.22245001607E+03  0.24018856973E+03  0.90589951867E+02 0.  0.
        -11    1    3    3    0    0  0.74100318004E+01 -0.44683716451E+02  0.11202815105E+03  0.12083811367E+03  0.51100000000E-03 0. -1.
         11    1    3    3    0    0 -0.74100318004E+01  0.44683716451E+02  0.11042186502E+03  0.11935045606E+03  0.51100000000E-03 0.  1.
<mgrwt>
<rscale>  0 0.90589952E+02</rscale>
<asrwt>0</asrwt>
<pdfrwt beam="2">  1        3 0.13645042E-02 0.90589952E+02</pdfrwt>
<pdfrwt beam="1">  1       -3 0.35587582E-01 0.90589952E+02</pdfrwt>
<totfact> 0.27006951E+04</totfact>
</mgrwt>
</event>
<event>
 5    1  0.7431090E-001  0.9148614E+02  0.7818608E-02  0.1299292E+00
         -3   -1    0    0    0  501 -0.00000000000E+00  0.00000000000E+00  0.63183709328E+02  0.63183777771E+02  0.93000000000E-01 0.  1.
          3   -1    0    0  501    0  0.00000000000E+00 -0.00000000000E+00 -0.33116429229E+02  0.33116559814E+02  0.93000000000E-01 0. -1.
         23    2    1    2    0    0  0.00000000000E+00  0.00000000000E+00  0.30067280099E+02  0.96300337585E+02  0.91486139313E+02 0.  0.
        -11    1    3    3    0    0 -0.26906740136E+02 -0.33536647285E+02 -0.14003859805E+01  0.43019070852E+02  0.51100000000E-03 0. -1.
         11    1    3    3    0    0  0.26906740136E+02  0.33536647285E+02  0.31467666079E+02  0.53281266732E+02  0.51100000000E-03 0.  1.
<mgrwt>
<rscale>  0 0.91486139E+02</rscale>
<asrwt>0</asrwt>
<pdfrwt beam="2">  1        3 0.50948505E-02 0.91486139E+02</pdfrwt>
<pdfrwt beam="1">  1       -3 0.97205861E-02 0.91486139E+02</pdfrwt>
<totfact> 0.34627457E+04</totfact>
</mgrwt>
</event>
<event>
 5    1  0.7431090E-001  0.9156194E+02  0.7818608E-02  0.1299113E+00
          3   -1    0    0  501    0  0.00000000000E+00  0.00000000000E+00  0.11644547700E+03  0.11644551414E+03  0.93000000000E-01 0. -1.
         -3   -1    0    0    0  501 -0.00000000000E+00 -0.00000000000E+00 -0.17998795602E+02  0.17999035867E+02  0.93000000000E-01 0.  1.
         23    2    1    2    0    0  0.00000000000E+00  0.00000000000E+00  0.98446681396E+02  0.13444455000E+03  0.91561935035E+02 0.  0.
        -11    1    3    3    0    0 -0.10574434778E+02  0.16218809474E+02 -0.11691382501E+02  0.22617623143E+02  0.51100000000E-03 0.  1.
         11    1    3    3    0    0  0.10574434778E+02 -0.16218809474E+02  0.11013806390E+03  0.11182692686E+03  0.51100000000E-03 0. -1.
<mgrwt>
<rscale>  0 0.91561935E+02</rscale>
<asrwt>0</asrwt>
<pdfrwt beam="1">  1        3 0.17914710E-01 0.91561935E+02</pdfrwt>
<pdfrwt beam="2">  1       -3 0.27690668E-02 0.91561935E+02</pdfrwt>
<totfact> 0.31918321E+04</totfact>
</mgrwt>
</event>
<event>
 5    1  0.7431090E-001  0.9414397E+02  0.7818608E-02  0.1293116E+00
          3   -1    0    0  501    0  0.00000000000E+00  0.00000000000E+00  0.21863710475E+03  0.21863712453E+03  0.93000000000E-01 0.  1.
         -3   -1    0    0    0  501 -0.00000000000E+00 -0.00000000000E+00 -0.10134239412E+02  0.10134666125E+02  0.93000000000E-01 0. -1.
         23    2    1    2    0    0  0.00000000000E+00  0.00000000000E+00  0.20850286534E+03  0.22877179066E+03  0.94143971370E+02 0.  0.
        -11    1    3    3    0    0  0.36203468221E+02  0.28042680530E+02  0.77777722222E+02  0.90257726078E+02  0.51100000000E-03 0. -1.
         11    1    3    3    0    0 -0.36203468221E+02 -0.28042680530E+02  0.13072514312E+03  0.13851406458E+03  0.51100000000E-03 0.  1.
<mgrwt>
<rscale>  0 0.94143971E+02</rscale>
<asrwt>0</asrwt>
<pdfrwt beam="1">  1        3 0.33636508E-01 0.94143971E+02</pdfrwt>
<pdfrwt beam="2">  1       -3 0.15591483E-02 0.94143971E+02</pdfrwt>
<totfact> 0.24831994E+04</totfact>
</mgrwt>
</event>
<event>
 5    1  0.7431090E-001  0.8935462E+02  0.7818608E-02  0.1304422E+00
         -3   -1    0    0    0  501 -0.00000000000E+00  0.00000000000E+00  0.10648322745E+02  0.10648728858E+02  0.93000000000E-01 0.  1.
          3   -1    0    0  501    0  0.00000000000E+00 -0.00000000000E+00 -0.18744917367E+03  0.18744919674E+03  0.93000000000E-01 0. -1.
         23    2    1    2    0    0  0.00000000000E+00  0.00000000000E+00 -0.17680085092E+03  0.19809792560E+03  0.89354615094E+02 0.  0.
        -11    1    3    3    0    0  0.33397909466E+02  0.11595674645E+02 -0.14896034093E+03  0.15309821422E+03  0.51100000000E-03 0. -1.
         11    1    3    3    0    0 -0.33397909466E+02 -0.11595674645E+02 -0.27840509997E+02  0.44999711380E+02  0.51100000000E-03 0.  1.
<mgrwt>
<rscale>  0 0.89354615E+02</rscale>
<asrwt>0</asrwt>
<pdfrwt beam="2">  1        3 0.28838365E-01 0.89354615E+02</pdfrwt>
<pdfrwt beam="1">  1       -3 0.16382366E-02 0.89354615E+02</pdfrwt>
<totfact> 0.30193978E+04</totfact>
</mgrwt>
</event>
<event>
 5    1  0.7431090E-001  0.9346520E+02  0.7818608E-02  0.1294671E+00
         -3   -1    0    0    0  501 -0.00000000000E+00  0.00000000000E+00  0.26445877112E+02  0.26446040634E+02  0.93000000000E-01 0.  1.
          3   -1    0    0  501    0  0.00000000000E+00 -0.00000000000E+00 -0.82580887746E+02  0.82580940113E+02  0.93000000000E-01 0. -1.
         23    2    1    2    0    0  0.00000000000E+00  0.00000000000E+00 -0.56135010634E+02  0.10902698075E+03  0.93465197329E+02 0.  0.
        -11    1    3    3    0    0  0.16524620653E+02 -0.42964049771E+02 -0.37469445556E+02  0.59354292271E+02  0.51100000000E-03 0.  1.
         11    1    3    3    0    0 -0.16524620653E+02  0.42964049771E+02 -0.18665565078E+02  0.49672688476E+02  0.51100000000E-03 0. -1.
<mgrwt>
<rscale>  0 0.93465197E+02</rscale>
<asrwt>0</asrwt>
<pdfrwt beam="2">  1        3 0.12704768E-01 0.93465197E+02</pdfrwt>
<pdfrwt beam="1">  1       -3 0.40686131E-02 0.93465197E+02</pdfrwt>
<totfact> 0.31791097E+04</totfact>
</mgrwt>
</event>
<event>
 5    1  0.7431090E-001  0.9244262E+02  0.7818608E-02  0.1297042E+00
          3   -1    0    0  501    0  0.00000000000E+00  0.00000000000E+00  0.33891767092E+02  0.33891894690E+02  0.93000000000E-01 0. -1.
         -3   -1    0    0    0  501 -0.00000000000E+00 -0.00000000000E+00 -0.63035953029E+02  0.63036021632E+02  0.93000000000E-01 0.  1.
         23    2    1    2    0    0  0.00000000000E+00  0.00000000000E+00 -0.29144185936E+02  0.96927916322E+02  0.92442616734E+02 0.  0.
        -11    1    3    3    0    0  0.34396617519E+02  0.23279070927E+02  0.66941769592E+01  0.42069638047E+02  0.51100000000E-03 0. -1.
         11    1    3    3    0    0 -0.34396617519E+02 -0.23279070927E+02 -0.35838362895E+02  0.54858278275E+02  0.51100000000E-03 0.  1.
<mgrwt>
<rscale>  0 0.92442617E+02</rscale>
<asrwt>0</asrwt>
<pdfrwt beam="1">  1        3 0.52141331E-02 0.92442617E+02</pdfrwt>
<pdfrwt beam="2">  1       -3 0.96978540E-02 0.92442617E+02</pdfrwt>
<totfact> 0.33612661E+04</totfact>
</mgrwt>
</event>
<event>
 5    1  0.7431090E-001  0.9355874E+02  0.7818608E-02  0.1294456E+00
          3   -1    0    0  501    0  0.00000000000E+00  0.00000000000E+00  0.29502611298E+02  0.29502757878E+02  0.93000000000E-01 0. -1.
         -3   -1    0    0    0  501 -0.00000000000E+00 -0.00000000000E+00 -0.74173060741E+02  0.74173119043E+02  0.93000000000E-01 0.  1.
         23    2    1    2    0    0  0.00000000000E+00  0.00000000000E+00 -0.44670449442E+02  0.10367587692E+03  0.93558743055E+02 0.  0.
        -11    1    3    3    0    0 -0.36025440806E+02  0.29530455092E+02 -0.27092402416E+02  0.53887646377E+02  0.51100000000E-03 0.  1.
         11    1    3    3    0    0  0.36025440806E+02 -0.29530455092E+02 -0.17578047027E+02  0.49788230544E+02  0.51100000000E-03 0. -1.
<mgrwt>
<rscale>  0 0.93558743E+02</rscale>
<asrwt>0</asrwt>
<pdfrwt beam="1">  1        3 0.45388791E-02 0.93558743E+02</pdfrwt>
<pdfrwt beam="2">  1       -3 0.11411256E-01 0.93558743E+02</pdfrwt>
<totfact> 0.32063983E+04</totfact>
</mgrwt>
</event>
<event>
 5    1  0.7431090E-001  0.9367495E+02  0.7818608E-02  0.1294189E+00
          3   -1    0    0  501    0  0.00000000000E+00  0.00000000000E+00  0.18547034138E+03  0.18547036470E+03  0.93000000000E-01 0. -1.
         -3   -1    0    0    0  501 -0.00000000000E+00 -0.00000000000E+00 -0.11827823900E+02  0.11828189515E+02  0.93000000000E-01 0.  1.
         23    2    1    2    0    0  0.00000000000E+00  0.00000000000E+00  0.17364251748E+03  0.19729855421E+03  0.93674946582E+02 0.  0.
        -11    1    3    3    0    0 -0.66730878801E+01 -0.29591843290E+02  0.16198476286E+03  0.16480069991E+03  0.51100000000E-03 0. -1.
         11    1    3    3    0    0  0.66730878801E+01  0.29591843290E+02  0.11657754618E+02  0.32497854301E+02  0.51100000000E-03 0.  1.
<mgrwt>
<rscale>  0 0.93674947E+02</rscale>
<asrwt>0</asrwt>
<pdfrwt beam="1">  1        3 0.28533928E-01 0.93674947E+02</pdfrwt>
<pdfrwt beam="2">  1       -3 0.18196952E-02 0.93674947E+02</pdfrwt>
<totfact> 0.26618608E+04</totfact>
</mgrwt>
</event>
<event>
 5    1  0.7431090E-001  0.9196178E+02  0.7818608E-02  0.1298169E+00
          3   -1    0    0  501    0  0.00000000000E+00  0.00000000000E+00  0.16576809719E+02  0.16577070593E+02  0.93000000000E-01 0. -1.
         -3   -1    0    0    0  501 -0.00000000000E+00 -0.00000000000E+00 -0.12754088341E+03  0.12754091732E+03  0.93000000000E-01 0.  1.
         23    2    1    2    0    0  0.00000000000E+00  0.00000000000E+00 -0.11096407369E+03  0.14411798791E+03  0.91961778959E+02 0.  0.
        -11    1    3    3    0    0 -0.16065895881E+02  0.20845549209E+02 -0.11456990920E+03  0.11755387712E+03  0.51100000000E-03 0.  1.
         11    1    3    3    0    0  0.16065895881E+02 -0.20845549209E+02  0.36058355026E+01  0.26564110793E+02  0.51100000000E-03 0. -1.
<mgrwt>
<rscale>  0 0.91961779E+02</rscale>
<asrwt>0</asrwt>
<pdfrwt beam="1">  1        3 0.25503012E-02 0.91961779E+02</pdfrwt>
<pdfrwt beam="2">  1       -3 0.19621696E-01 0.91961779E+02</pdfrwt>
<totfact> 0.30943426E+04</totfact>
</mgrwt>
</event>
<event>
 5    1  0.7431090E-001  0.9213500E+02  0.7818608E-02  0.1297762E+00
          3   -1    0    0  501    0  0.00000000000E+00  0.00000000000E+00  0.53140162276E+02  0.53140243655E+02  0.93000000000E-01 0. -1.
         -3   -1    0    0    0  501 -0.00000000000E+00 -0.00000000000E+00 -0.39936002297E+02  0.39936110583E+02  0.93000000000E-01 0.  1.
         23    2    1    2    0    0  0.00000000000E+00  0.00000000000E+00  0.13204159978E+02  0.93076354238E+02  0.92134998114E+02 0.  0.
        -11    1    3    3    0    0 -0.16693741510E+02 -0.37925910260E+02  0.26936292951E+02  0.49422864677E+02  0.51100000000E-03 0. -1.
         11    1    3    3    0    0  0.16693741510E+02  0.37925910260E+02 -0.13732132972E+02  0.43653489561E+02  0.51100000000E-03 0.  1.
<mgrwt>
<rscale>  0 0.92134998E+02</rscale>
<asrwt>0</asrwt>
<pdfrwt beam="1">  1        3 0.81754242E-02 0.92134998E+02</pdfrwt>
<pdfrwt beam="2">  1       -3 0.61440150E-02 0.92134998E+02</pdfrwt>
<totfact> 0.34203157E+04</totfact>
</mgrwt>
</event>
<event>
 5    1  0.7431090E-001  0.9316081E+02  0.7818608E-02  0.1295373E+00
          3   -1    0    0  501    0  0.00000000000E+00  0.00000000000E+00  0.10668613175E+02  0.10669018515E+02  0.93000000000E-01 0. -1.
         -3   -1    0    0    0  501 -0.00000000000E+00 -0.00000000000E+00 -0.20337120182E+03  0.20337122308E+03  0.93000000000E-01 0.  1.
         23    2    1    2    0    0  0.00000000000E+00  0.00000000000E+00 -0.19270258864E+03  0.21404024160E+03  0.93160814474E+02 0.  0.
        -11    1    3    3    0    0 -0.30584331892E+02 -0.85841076513E+01 -0.17462430875E+03  0.17749010527E+03  0.51100000000E-03 0.  1.
         11    1    3    3    0    0  0.30584331892E+02  0.85841076513E+01 -0.18078279890E+02  0.36550136326E+02  0.51100000000E-03 0. -1.
<mgrwt>
<rscale>  0 0.93160814E+02</rscale>
<asrwt>0</asrwt>
<pdfrwt beam="1">  1        3 0.16413581E-02 0.93160814E+02</pdfrwt>
<pdfrwt beam="2">  1       -3 0.31287907E-01 0.93160814E+02</pdfrwt>
<totfact> 0.26216011E+04</totfact>
</mgrwt>
</event>
<event>
 5    1  0.7431090E-001  0.9157209E+02  0.7818608E-02  0.1299089E+00
         -3   -1    0    0    0  501 -0.00000000000E+00  0.00000000000E+00  0.14451610616E+02  0.14451909853E+02  0.93000000000E-01 0.  1.
          3   -1    0    0  501    0  0.00000000000E+00 -0.00000000000E+00 -0.14505897923E+03  0.14505900904E+03  0.93000000000E-01 0. -1.
         23    2    1    2    0    0  0.00000000000E+00  0.00000000000E+00 -0.13060736862E+03  0.15951091890E+03  0.91572094607E+02 0.  0.
        -11    1    3    3    0    0 -0.24972680193E+02 -0.11691453092E+02 -0.16334336652E+01  0.27622326789E+02  0.51100000000E-03 0.  1.
         11    1    3    3    0    0  0.24972680193E+02  0.11691453092E+02 -0.12897393495E+03  0.13188859211E+03  0.51100000000E-03 0. -1.
<mgrwt>
<rscale>  0 0.91572095E+02</rscale>
<asrwt>0</asrwt>
<pdfrwt beam="2">  1        3 0.22316790E-01 0.91572095E+02</pdfrwt>
<pdfrwt beam="1">  1       -3 0.22233501E-02 0.91572095E+02</pdfrwt>
<totfact> 0.30376816E+04</totfact>
</mgrwt>
</event>
<event>
 5    1  0.7431090E-001  0.8674796E+02  0.7818608E-02  0.1310924E+00
         -3   -1    0    0    0  501 -0.00000000000E+00  0.00000000000E+00  0.30740409846E+02  0.30740550523E+02  0.93000000000E-01 0.  1.
          3   -1    0    0  501    0  0.00000000000E+00 -0.00000000000E+00 -0.61199323525E+02  0.61199394188E+02  0.93000000000E-01 0. -1.
         23    2    1    2    0    0  0.00000000000E+00  0.00000000000E+00 -0.30458913680E+02  0.91939944711E+02  0.86747956811E+02 0.  0.
        -11    1    3    3    0    0  0.86094890558E+01 -0.22734004556E+02  0.22841841949E+02  0.33357278198E+02  0.51100000000E-03 0.  1.
         11    1    3    3    0    0 -0.86094890558E+01  0.22734004556E+02 -0.53300755628E+02  0.58582666513E+02  0.51100000000E-03 0. -1.
<mgrwt>
<rscale>  0 0.86747957E+02</rscale>
<asrwt>0</asrwt>
<pdfrwt beam="2">  1        3 0.94152968E-02 0.86747957E+02</pdfrwt>
<pdfrwt beam="1">  1       -3 0.47293101E-02 0.86747957E+02</pdfrwt>
<totfact> 0.40381052E+04</totfact>
</mgrwt>
</event>
<event>
 5    1  0.7431090E-001  0.8850960E+02  0.7818608E-02  0.1306502E+00
          3   -1    0    0  501    0  0.00000000000E+00  0.00000000000E+00  0.62285030048E+01  0.62291972742E+01  0.93000000000E-01 0. -1.
         -3   -1    0    0    0  501 -0.00000000000E+00 -0.00000000000E+00 -0.31442127417E+03  0.31442128792E+03  0.93000000000E-01 0.  1.
         23    2    1    2    0    0  0.00000000000E+00  0.00000000000E+00 -0.30819277116E+03  0.32065048520E+03  0.88509600944E+02 0.  0.
        -11    1    3    3    0    0  0.38629000717E+02  0.15695416308E+02 -0.20782370636E+03  0.21196518279E+03  0.51100000000E-03 0. -1.
         11    1    3    3    0    0 -0.38629000717E+02 -0.15695416308E+02 -0.10036906480E+03  0.10868530240E+03  0.51100000000E-03 0.  1.
<mgrwt>
<rscale>  0 0.88509601E+02</rscale>
<asrwt>0</asrwt>
<pdfrwt beam="1">  1        3 0.95828594E-03 0.88509601E+02</pdfrwt>
<pdfrwt beam="2">  1       -3 0.48372546E-01 0.88509601E+02</pdfrwt>
<totfact> 0.25165202E+04</totfact>
</mgrwt>
</event>
<event>
 5    1  0.7431090E-001  0.9075368E+02  0.7818608E-02  0.1301037E+00
          3   -1    0    0  501    0  0.00000000000E+00  0.00000000000E+00  0.30233000466E+02  0.30233143505E+02  0.93000000000E-01 0. -1.
         -3   -1    0    0    0  501 -0.00000000000E+00 -0.00000000000E+00 -0.68105955198E+02  0.68106018695E+02  0.93000000000E-01 0.  1.
         23    2    1    2    0    0  0.00000000000E+00  0.00000000000E+00 -0.37872954732E+02  0.98339162200E+02  0.90753678284E+02 0.  0.
        -11    1    3    3    0    0  0.16618206207E+02  0.82131437219E+01 -0.63816147608E+02  0.66453902844E+02  0.51100000000E-03 0.  1.
         11    1    3    3    0    0 -0.16618206207E+02 -0.82131437219E+01  0.25943192876E+02  0.31885259356E+02  0.51100000000E-03 0. -1.
<mgrwt>
<rscale>  0 0.90753678E+02</rscale>
<asrwt>0</asrwt>
<pdfrwt beam="1">  1        3 0.46512467E-02 0.90753678E+02</pdfrwt>
<pdfrwt beam="2">  1       -3 0.10477855E-01 0.90753678E+02</pdfrwt>
<totfact> 0.35238947E+04</totfact>
</mgrwt>
</event>
<event>
 5    1  0.7431090E-001  0.8987326E+02  0.7818608E-02  0.1303159E+00
          3   -1    0    0  501    0  0.00000000000E+00  0.00000000000E+00  0.11271002684E+02  0.11271386361E+02  0.93000000000E-01 0. -1.
         -3   -1    0    0    0  501 -0.00000000000E+00 -0.00000000000E+00 -0.17915547523E+03  0.17915549937E+03  0.93000000000E-01 0.  1.
         23    2    1    2    0    0  0.00000000000E+00  0.00000000000E+00 -0.16788447254E+03  0.19042688573E+03  0.89873259016E+02 0.  0.
        -11    1    3    3    0    0  0.26343514575E+02  0.35204143126E+02 -0.10359018647E+03  0.11253550189E+03  0.51100000000E-03 0. -1.
         11    1    3    3    0    0 -0.26343514575E+02 -0.35204143126E+02 -0.64294286077E+02  0.77891383836E+02  0.51100000000E-03 0.  1.
<mgrwt>
<rscale>  0 0.89873259E+02</rscale>
<asrwt>0</asrwt>
<pdfrwt beam="1">  1        3 0.17340319E-02 0.89873259E+02</pdfrwt>
<pdfrwt beam="2">  1       -3 0.27562410E-01 0.89873259E+02</pdfrwt>
<totfact> 0.30147607E+04</totfact>
</mgrwt>
</event>
<event>
 5    1  0.7431090E-001  0.9026910E+02  0.7818608E-02  0.1302201E+00
          3   -1    0    0  501    0  0.00000000000E+00  0.00000000000E+00  0.31884800608E+02  0.31884936237E+02  0.93000000000E-01 0. -1.
         -3   -1    0    0    0  501 -0.00000000000E+00 -0.00000000000E+00 -0.63889936529E+02  0.63890004215E+02  0.93000000000E-01 0.  1.
         23    2    1    2    0    0  0.00000000000E+00  0.00000000000E+00 -0.32005135921E+02  0.95774940452E+02  0.90269100435E+02 0.  0.
        -11    1    3    3    0    0  0.31455823174E+02  0.72894361638E+01 -0.49462124206E+02  0.59068658546E+02  0.51100000000E-03 0.  1.
         11    1    3    3    0    0 -0.31455823174E+02 -0.72894361638E+01  0.17456988286E+02  0.36706281907E+02  0.51100000000E-03 0. -1.
<mgrwt>
<rscale>  0 0.90269100E+02</rscale>
<asrwt>0</asrwt>
<pdfrwt beam="1">  1        3 0.49053696E-02 0.90269100E+02</pdfrwt>
<pdfrwt beam="2">  1       -3 0.98292366E-02 0.90269100E+02</pdfrwt>
<totfact> 0.35953122E+04</totfact>
</mgrwt>
</event>
<event>
 5    1  0.7431090E-001  0.9010326E+02  0.7818608E-02  0.1302602E+00
          3   -1    0    0  501    0  0.00000000000E+00  0.00000000000E+00  0.37536598116E+02  0.37536713323E+02  0.93000000000E-01 0. -1.
         -3   -1    0    0    0  501 -0.00000000000E+00 -0.00000000000E+00 -0.54070973749E+02  0.54071053727E+02  0.93000000000E-01 0.  1.
         23    2    1    2    0    0  0.00000000000E+00  0.00000000000E+00 -0.16534375633E+02  0.91607767051E+02  0.90103259688E+02 0.  0.
        -11    1    3    3    0    0 -0.31770399742E+02 -0.24335757662E+02  0.12767937686E+02  0.42007233113E+02  0.51100000000E-03 0. -1.
         11    1    3    3    0    0  0.31770399742E+02  0.24335757662E+02 -0.29302313320E+02  0.49600533938E+02  0.51100000000E-03 0.  1.
<mgrwt>
<rscale>  0 0.90103260E+02</rscale>
<asrwt>0</asrwt>
<pdfrwt beam="1">  1        3 0.57748763E-02 0.90103260E+02</pdfrwt>
<pdfrwt beam="2">  1       -3 0.83186264E-02 0.90103260E+02</pdfrwt>
<totfact> 0.36461779E+04</totfact>
</mgrwt>
</event>
<event>
 5    1  0.7431090E-001  0.8922943E+02  0.7818608E-02  0.1304729E+00
         -3   -1    0    0    0  501 -0.00000000000E+00  0.00000000000E+00  0.28594331626E+02  0.28594482862E+02  0.93000000000E-01 0.  1.
          3   -1    0    0  501    0  0.00000000000E+00 -0.00000000000E+00 -0.69610379303E+02  0.69610441427E+02  0.93000000000E-01 0. -1.
         23    2    1    2    0    0  0.00000000000E+00  0.00000000000E+00 -0.41016047677E+02  0.98204924289E+02  0.89229428932E+02 0.  0.
        -11    1    3    3    0    0 -0.29589619211E+02 -0.33390332853E+02 -0.20632801458E+02  0.49154576484E+02  0.51100000000E-03 0.  1.
         11    1    3    3    0    0  0.29589619211E+02  0.33390332853E+02 -0.20383246219E+02  0.49050347805E+02  0.51100000000E-03 0. -1.
<mgrwt>
<rscale>  0 0.89229429E+02</rscale>
<asrwt>0</asrwt>
<pdfrwt beam="2">  1        3 0.10709306E-01 0.89229429E+02</pdfrwt>
<pdfrwt beam="1">  1       -3 0.43991444E-02 0.89229429E+02</pdfrwt>
<totfact> 0.36905726E+04</totfact>
</mgrwt>
</event>
<event>
 5    1  0.7431090E-001  0.1027386E+03  0.7818608E-02  0.1274640E+00
          3   -1    0    0  501    0  0.00000000000E+00  0.00000000000E+00  0.14458120574E+03  0.14458123565E+03  0.93000000000E-01 0. -1.
         -3   -1    0    0    0  501 -0.00000000000E+00 -0.00000000000E+00 -0.18251223674E+02  0.18251460616E+02  0.93000000000E-01 0.  1.
         23    2    1    2    0    0  0.00000000000E+00  0.00000000000E+00  0.12632998207E+03  0.16283269627E+03  0.10273861302E+03 0.  0.
        -11    1    3    3    0    0  0.38686970794E+02 -0.31952854633E+02  0.80609146484E+02  0.94949992762E+02  0.51100000000E-03 0. -1.
         11    1    3    3    0    0 -0.38686970794E+02  0.31952854633E+02  0.45720835581E+02  0.67882703504E+02  0.51100000000E-03 0.  1.
<mgrwt>
<rscale>  0 0.10273861E+03</rscale>
<asrwt>0</asrwt>
<pdfrwt beam="1">  1        3 0.22243284E-01 0.10273861E+03</pdfrwt>
<pdfrwt beam="2">  1       -3 0.28079010E-02 0.10273861E+03</pdfrwt>
<totfact> 0.22053679E+04</totfact>
</mgrwt>
</event>
<event>
 5    1  0.7431090E-001  0.8943084E+02  0.7818608E-02  0.1304236E+00
         -3   -1    0    0    0  501 -0.00000000000E+00  0.00000000000E+00  0.89933985855E+01  0.89938794253E+01  0.93000000000E-01 0.  1.
          3   -1    0    0  501    0  0.00000000000E+00 -0.00000000000E+00 -0.22231986022E+03  0.22231987967E+03  0.93000000000E-01 0. -1.
         23    2    1    2    0    0  0.00000000000E+00  0.00000000000E+00 -0.21332646163E+03  0.23131375909E+03  0.89430844310E+02 0.  0.
        -11    1    3    3    0    0 -0.42236123694E+01  0.43160232890E+02 -0.13485789345E+03  0.14165908383E+03  0.51100000000E-03 0.  1.
         11    1    3    3    0    0  0.42236123694E+01 -0.43160232890E+02 -0.78468568183E+02  0.89654675269E+02  0.51100000000E-03 0. -1.
<mgrwt>
<rscale>  0 0.89430844E+02</rscale>
<asrwt>0</asrwt>
<pdfrwt beam="2">  1        3 0.34203090E-01 0.89430844E+02</pdfrwt>
<pdfrwt beam="1">  1       -3 0.13836384E-02 0.89430844E+02</pdfrwt>
<totfact> 0.28393965E+04</totfact>
</mgrwt>
</event>
<event>
 5    1  0.7431090E-001  0.9169111E+02  0.7818608E-02  0.1298807E+00
          3   -1    0    0  501    0  0.00000000000E+00  0.00000000000E+00  0.82818325003E+02  0.82818377220E+02  0.93000000000E-01 0. -1.
         -3   -1    0    0    0  501 -0.00000000000E+00 -0.00000000000E+00 -0.25378473295E+02  0.25378643694E+02  0.93000000000E-01 0.  1.
         23    2    1    2    0    0  0.00000000000E+00  0.00000000000E+00  0.57439851708E+02  0.10819702091E+03  0.91691105187E+02 0.  0.
        -11    1    3    3    0    0  0.31471930886E+01  0.39906422663E+02  0.23501255080E+01  0.40099257902E+02  0.51100000000E-03 0.  1.
         11    1    3    3    0    0 -0.31471930886E+01 -0.39906422663E+02  0.55089726200E+02  0.68097763012E+02  0.51100000000E-03 0. -1.
<mgrwt>
<rscale>  0 0.91691105E+02</rscale>
<asrwt>0</asrwt>
<pdfrwt beam="1">  1        3 0.12741298E-01 0.91691105E+02</pdfrwt>
<pdfrwt beam="2">  1       -3 0.39043976E-02 0.91691105E+02</pdfrwt>
<totfact> 0.33555578E+04</totfact>
</mgrwt>
</event>
<event>
 5    1  0.7431090E-001  0.8999307E+02  0.7818608E-02  0.1302868E+00
         -3   -1    0    0    0  501 -0.00000000000E+00  0.00000000000E+00  0.30071211060E+02  0.30071354868E+02  0.93000000000E-01 0.  1.
          3   -1    0    0  501    0  0.00000000000E+00 -0.00000000000E+00 -0.67329444295E+02  0.67329508524E+02  0.93000000000E-01 0. -1.
         23    2    1    2    0    0  0.00000000000E+00  0.00000000000E+00 -0.37258233235E+02  0.97400863393E+02  0.89993067765E+02 0.  0.
        -11    1    3    3    0    0  0.49874596393E+01  0.39473974255E+02  0.41154391958E+01  0.40000077964E+02  0.51100000000E-03 0.  1.
         11    1    3    3    0    0 -0.49874596393E+01 -0.39473974255E+02 -0.41373672431E+02  0.57400785428E+02  0.51100000000E-03 0. -1.
<mgrwt>
<rscale>  0 0.89993068E+02</rscale>
<asrwt>0</asrwt>
<pdfrwt beam="2">  1        3 0.10358392E-01 0.89993068E+02</pdfrwt>
<pdfrwt beam="1">  1       -3 0.46263562E-02 0.89993068E+02</pdfrwt>
<totfact> 0.36124938E+04</totfact>
</mgrwt>
</event>
<event>
 5    1  0.7431090E-001  0.9168773E+02  0.7818608E-02  0.1298815E+00
          3   -1    0    0  501    0  0.00000000000E+00  0.00000000000E+00  0.50234607612E+02  0.50234693698E+02  0.93000000000E-01 0. -1.
         -3   -1    0    0    0  501 -0.00000000000E+00 -0.00000000000E+00 -0.41836723770E+02  0.41836827136E+02  0.93000000000E-01 0.  1.
         23    2    1    2    0    0  0.00000000000E+00  0.00000000000E+00  0.83978838423E+01  0.92071520833E+02  0.91687733616E+02 0.  0.
        -11    1    3    3    0    0  0.41735002791E+02 -0.16897640856E+02 -0.44580133587E+01  0.45246155725E+02  0.51100000000E-03 0. -1.
         11    1    3    3    0    0 -0.41735002791E+02  0.16897640856E+02  0.12855897201E+02  0.46825365109E+02  0.51100000000E-03 0.  1.
<mgrwt>
<rscale>  0 0.91687734E+02</rscale>
<asrwt>0</asrwt>
<pdfrwt beam="1">  1        3 0.77284157E-02 0.91687734E+02</pdfrwt>
<pdfrwt beam="2">  1       -3 0.64364336E-02 0.91687734E+02</pdfrwt>
<totfact> 0.34736050E+04</totfact>
</mgrwt>
</event>
<event>
 5    1  0.7431090E-001  0.9455824E+02  0.7818608E-02  0.1292174E+00
          3   -1    0    0  501    0  0.00000000000E+00  0.00000000000E+00  0.32857441101E+02  0.32857572715E+02  0.93000000000E-01 0. -1.
         -3   -1    0    0    0  501 -0.00000000000E+00 -0.00000000000E+00 -0.68030421280E+02  0.68030484847E+02  0.93000000000E-01 0.  1.
         23    2    1    2    0    0  0.00000000000E+00  0.00000000000E+00 -0.35172980178E+02  0.10088805756E+03  0.94558244612E+02 0.  0.
        -11    1    3    3    0    0  0.26923422525E+01 -0.30185673069E+02  0.21131732524E+02  0.36945550275E+02  0.51100000000E-03 0. -1.
         11    1    3    3    0    0 -0.26923422525E+01  0.30185673069E+02 -0.56304712702E+02  0.63942507287E+02  0.51100000000E-03 0.  1.
<mgrwt>
<rscale>  0 0.94558245E+02</rscale>
<asrwt>0</asrwt>
<pdfrwt beam="1">  1        3 0.50550060E-02 0.94558245E+02</pdfrwt>
<pdfrwt beam="2">  1       -3 0.10466234E-01 0.94558245E+02</pdfrwt>
<totfact> 0.31329778E+04</totfact>
</mgrwt>
</event>
<event>
 5    1  0.7431090E-001  0.9153492E+02  0.7818608E-02  0.1299177E+00
          3   -1    0    0  501    0  0.00000000000E+00  0.00000000000E+00  0.50642970806E+01  0.50651509278E+01  0.93000000000E-01 0.  1.
         -3   -1    0    0    0  501 -0.00000000000E+00 -0.00000000000E+00 -0.41357755415E+03  0.41357756460E+03  0.93000000000E-01 0. -1.
         23    2    1    2    0    0  0.00000000000E+00  0.00000000000E+00 -0.40851325706E+03  0.41864271553E+03  0.91534922670E+02 0.  0.
        -11    1    3    3    0    0 -0.21788958963E+02 -0.38271885815E+02 -0.26122751266E+03  0.26491377720E+03  0.51100000000E-03 0. -1.
         11    1    3    3    0    0  0.21788958963E+02  0.38271885815E+02 -0.14728574440E+03  0.15372893833E+03  0.51100000000E-03 0.  1.
<mgrwt>
<rscale>  0 0.91534923E+02</rscale>
<asrwt>0</asrwt>
<pdfrwt beam="1">  1        3 0.77918944E-03 0.91534923E+02</pdfrwt>
<pdfrwt beam="2">  1       -3 0.63627356E-01 0.91534923E+02</pdfrwt>
<totfact> 0.19838901E+04</totfact>
</mgrwt>
</event>
<event>
 5    1  0.7431090E-001  0.9600826E+02  0.7818608E-02  0.1288921E+00
          3   -1    0    0  501    0  0.00000000000E+00  0.00000000000E+00  0.22310158135E+03  0.22310160074E+03  0.93000000000E-01 0. -1.
         -3   -1    0    0    0  501 -0.00000000000E+00 -0.00000000000E+00 -0.10328682988E+02  0.10329101668E+02  0.93000000000E-01 0.  1.
         23    2    1    2    0    0  0.00000000000E+00  0.00000000000E+00  0.21277289836E+03  0.23343070240E+03  0.96008262907E+02 0.  0.
        -11    1    3    3    0    0 -0.42965934440E+02  0.41306390091E+01  0.55312658800E+02  0.70161413360E+02  0.51100000000E-03 0.  1.
         11    1    3    3    0    0  0.42965934440E+02 -0.41306390091E+01  0.15746023956E+03  0.16326928904E+03  0.51100000000E-03 0. -1.
<mgrwt>
<rscale>  0 0.96008263E+02</rscale>
<asrwt>0</asrwt>
<pdfrwt beam="1">  1        3 0.34323356E-01 0.96008263E+02</pdfrwt>
<pdfrwt beam="2">  1       -3 0.15890618E-02 0.96008263E+02</pdfrwt>
<totfact> 0.23357808E+04</totfact>
</mgrwt>
</event>
<event>
 5    1  0.7431090E-001  0.8624935E+02  0.7818608E-02  0.1312197E+00
          3   -1    0    0  501    0  0.00000000000E+00  0.00000000000E+00  0.98958672627E+02  0.98958716327E+02  0.93000000000E-01 0. -1.
         -3   -1    0    0    0  501 -0.00000000000E+00 -0.00000000000E+00 -0.18792909761E+02  0.18793139873E+02  0.93000000000E-01 0.  1.
         23    2    1    2    0    0  0.00000000000E+00  0.00000000000E+00  0.80165762866E+02  0.11775185620E+03  0.86249348419E+02 0.  0.
        -11    1    3    3    0    0 -0.19377667148E+02  0.26198883440E+02  0.78646328105E+02  0.85130020570E+02  0.51100000000E-03 0. -1.
         11    1    3    3    0    0  0.19377667148E+02 -0.26198883440E+02  0.15194347602E+01  0.32621835629E+02  0.51100000000E-03 0.  1.
<mgrwt>
<rscale>  0 0.86249348E+02</rscale>
<asrwt>0</asrwt>
<pdfrwt beam="1">  1        3 0.15224432E-01 0.86249348E+02</pdfrwt>
<pdfrwt beam="2">  1       -3 0.28912379E-02 0.86249348E+02</pdfrwt>
<totfact> 0.38814299E+04</totfact>
</mgrwt>
</event>
<event>
 5    1  0.7431090E-001  0.8534313E+02  0.7818608E-02  0.1314538E+00
         -3   -1    0    0    0  501 -0.00000000000E+00  0.00000000000E+00  0.34142764829E+02  0.34142891488E+02  0.93000000000E-01 0.  1.
          3   -1    0    0  501    0  0.00000000000E+00 -0.00000000000E+00 -0.53330578970E+02  0.53330660059E+02  0.93000000000E-01 0. -1.
         23    2    1    2    0    0  0.00000000000E+00  0.00000000000E+00 -0.19187814141E+02  0.87473551547E+02  0.85343130999E+02 0.  0.
        -11    1    3    3    0    0 -0.44930854501E+01 -0.24323200762E+02 -0.45233398837E+02  0.51554498182E+02  0.51100000000E-03 0. -1.
         11    1    3    3    0    0  0.44930854501E+01  0.24323200762E+02  0.26045584696E+02  0.35919053365E+02  0.51100000000E-03 0.  1.
<mgrwt>
<rscale>  0 0.85343131E+02</rscale>
<asrwt>0</asrwt>
<pdfrwt beam="2">  1        3 0.82047205E-02 0.85343131E+02</pdfrwt>
<pdfrwt beam="1">  1       -3 0.52527490E-02 0.85343131E+02</pdfrwt>
<totfact> 0.42620827E+04</totfact>
</mgrwt>
</event>
<event>
 5    1  0.7431090E-001  0.6728924E+02  0.7818608E-02  0.1369561E+00
          3   -1    0    0  501    0  0.00000000000E+00  0.00000000000E+00  0.14744323399E+02  0.14744616695E+02  0.93000000000E-01 0. -1.
         -3   -1    0    0    0  501 -0.00000000000E+00 -0.00000000000E+00 -0.76771546810E+02  0.76771603140E+02  0.93000000000E-01 0.  1.
         23    2    1    2    0    0  0.00000000000E+00  0.00000000000E+00 -0.62027223411E+02  0.91516219835E+02  0.67289241702E+02 0.  0.
        -11    1    3    3    0    0  0.31426065759E+02 -0.10879520370E+02 -0.24078870570E+02  0.41057929573E+02  0.51100000000E-03 0. -1.
         11    1    3    3    0    0 -0.31426065759E+02  0.10879520370E+02 -0.37948352841E+02  0.50458290263E+02  0.51100000000E-03 0.  1.
<mgrwt>
<rscale>  0 0.67289242E+02</rscale>
<asrwt>0</asrwt>
<pdfrwt beam="1">  1        3 0.22683844E-02 0.67289242E+02</pdfrwt>
<pdfrwt beam="2">  1       -3 0.11811034E-01 0.67289242E+02</pdfrwt>
<totfact> 0.79494228E+04</totfact>
</mgrwt>
</event>
<event>
 5    1  0.7431090E-001  0.9393045E+02  0.7818608E-02  0.1293603E+00
          3   -1    0    0  501    0  0.00000000000E+00  0.00000000000E+00  0.18704572337E+03  0.18704574649E+03  0.93000000000E-01 0. -1.
         -3   -1    0    0    0  501 -0.00000000000E+00 -0.00000000000E+00 -0.11792268587E+02  0.11792635304E+02  0.93000000000E-01 0.  1.
         23    2    1    2    0    0  0.00000000000E+00  0.00000000000E+00  0.17525345478E+03  0.19883838179E+03  0.93930445869E+02 0.  0.
        -11    1    3    3    0    0  0.98485003173E+01  0.41218821238E+02  0.13047686767E+03  0.13718672378E+03  0.51100000000E-03 0. -1.
         11    1    3    3    0    0 -0.98485003173E+01 -0.41218821238E+02  0.44776587111E+02  0.61651658018E+02  0.51100000000E-03 0.  1.
<mgrwt>
<rscale>  0 0.93930446E+02</rscale>
<asrwt>0</asrwt>
<pdfrwt beam="1">  1        3 0.28776292E-01 0.93930446E+02</pdfrwt>
<pdfrwt beam="2">  1       -3 0.18142253E-02 0.93930446E+02</pdfrwt>
<totfact> 0.26349104E+04</totfact>
</mgrwt>
</event>
<event>
 5    1  0.7431090E-001  0.9104607E+02  0.7818608E-02  0.1300338E+00
          3   -1    0    0  501    0  0.00000000000E+00  0.00000000000E+00  0.18529361086E+03  0.18529363420E+03  0.93000000000E-01 0. -1.
         -3   -1    0    0    0  501 -0.00000000000E+00 -0.00000000000E+00 -0.11183906378E+02  0.11184293043E+02  0.93000000000E-01 0.  1.
         23    2    1    2    0    0  0.00000000000E+00  0.00000000000E+00  0.17410970448E+03  0.19647792724E+03  0.91046069098E+02 0.  0.
        -11    1    3    3    0    0  0.40456915256E+02 -0.26529223178E+01  0.42381181587E+02  0.58651210916E+02  0.51100000000E-03 0.  1.
         11    1    3    3    0    0 -0.40456915256E+02  0.26529223178E+01  0.13172852289E+03  0.13782671632E+03  0.51100000000E-03 0. -1.
<mgrwt>
<rscale>  0 0.91046069E+02</rscale>
<asrwt>0</asrwt>
<pdfrwt beam="1">  1        3 0.28506739E-01 0.91046069E+02</pdfrwt>
<pdfrwt beam="2">  1       -3 0.17206326E-02 0.91046069E+02</pdfrwt>
<totfact> 0.28793132E+04</totfact>
</mgrwt>
</event>
<event>
 5    1  0.7431090E-001  0.9181272E+02  0.7818608E-02  0.1298520E+00
          3   -1    0    0  501    0  0.00000000000E+00  0.00000000000E+00  0.79913304158E+02  0.79913358273E+02  0.93000000000E-01 0. -1.
         -3   -1    0    0    0  501 -0.00000000000E+00 -0.00000000000E+00 -0.26370855565E+02  0.26371019552E+02  0.93000000000E-01 0.  1.
         23    2    1    2    0    0  0.00000000000E+00  0.00000000000E+00  0.53542448594E+02  0.10628437783E+03  0.91812717901E+02 0.  0.
        -11    1    3    3    0    0  0.38159230629E+02  0.20894132601E+02  0.43733525459E+02  0.61687218357E+02  0.51100000000E-03 0. -1.
         11    1    3    3    0    0 -0.38159230629E+02 -0.20894132601E+02  0.98089231351E+01  0.44597159468E+02  0.51100000000E-03 0.  1.
<mgrwt>
<rscale>  0 0.91812718E+02</rscale>
<asrwt>0</asrwt>
<pdfrwt beam="1">  1        3 0.12294371E-01 0.91812718E+02</pdfrwt>
<pdfrwt beam="2">  1       -3 0.40570714E-02 0.91812718E+02</pdfrwt>
<totfact> 0.33569447E+04</totfact>
</mgrwt>
</event>
<event>
 5    1  0.7431090E-001  0.9338295E+02  0.7818608E-02  0.1294860E+00
         -3   -1    0    0    0  501 -0.00000000000E+00  0.00000000000E+00  0.14368067378E+03  0.14368070388E+03  0.93000000000E-01 0.  1.
          3   -1    0    0  501    0  0.00000000000E+00 -0.00000000000E+00 -0.15173013020E+02  0.15173298030E+02  0.93000000000E-01 0. -1.
         23    2    1    2    0    0  0.00000000000E+00  0.00000000000E+00  0.12850766076E+03  0.15885400191E+03  0.93382948382E+02 0.  0.
        -11    1    3    3    0    0 -0.25864013746E+02  0.36319216410E+02  0.40678908890E+02  0.60355665156E+02  0.51100000000E-03 0. -1.
         11    1    3    3    0    0  0.25864013746E+02 -0.36319216410E+02  0.87828751871E+02  0.98498336754E+02  0.51100000000E-03 0.  1.
<mgrwt>
<rscale>  0 0.93382948E+02</rscale>
<asrwt>0</asrwt>
<pdfrwt beam="2">  1        3 0.23343339E-02 0.93382948E+02</pdfrwt>
<pdfrwt beam="1">  1       -3 0.22104743E-01 0.93382948E+02</pdfrwt>
<totfact> 0.28841299E+04</totfact>
</mgrwt>
</event>
<event>
 5    1  0.7431090E-001  0.9284521E+02  0.7818608E-02  0.1296104E+00
         -3   -1    0    0    0  501 -0.00000000000E+00  0.00000000000E+00  0.19014222921E+03  0.19014225195E+03  0.93000000000E-01 0.  1.
          3   -1    0    0  501    0  0.00000000000E+00 -0.00000000000E+00 -0.11333713106E+02  0.11334094660E+02  0.93000000000E-01 0. -1.
         23    2    1    2    0    0  0.00000000000E+00  0.00000000000E+00  0.17880851610E+03  0.20147634661E+03  0.92845208888E+02 0.  0.
        -11    1    3    3    0    0  0.13902637643E+02 -0.33339888189E+02  0.15267922770E+03  0.15689416194E+03  0.51100000000E-03 0.  1.
         11    1    3    3    0    0 -0.13902637643E+02  0.33339888189E+02  0.26129288400E+02  0.44582184676E+02  0.51100000000E-03 0. -1.
<mgrwt>
<rscale>  0 0.92845209E+02</rscale>
<asrwt>0</asrwt>
<pdfrwt beam="2">  1        3 0.17436795E-02 0.92845209E+02</pdfrwt>
<pdfrwt beam="1">  1       -3 0.29252678E-01 0.92845209E+02</pdfrwt>
<totfact> 0.27060955E+04</totfact>
</mgrwt>
</event>
<event>
 5    1  0.7431090E-001  0.9129424E+02  0.7818608E-02  0.1299747E+00
          3   -1    0    0  501    0  0.00000000000E+00  0.00000000000E+00  0.16726852820E+02  0.16727111355E+02  0.93000000000E-01 0. -1.
         -3   -1    0    0    0  501 -0.00000000000E+00 -0.00000000000E+00 -0.12456848546E+03  0.12456852018E+03  0.93000000000E-01 0.  1.
         23    2    1    2    0    0  0.00000000000E+00  0.00000000000E+00 -0.10784163264E+03  0.14129563153E+03  0.91294237272E+02 0.  0.
        -11    1    3    3    0    0  0.36893580296E+02  0.22469848845E+02 -0.31088823525E+02  0.53221662155E+02  0.51100000000E-03 0. -1.
         11    1    3    3    0    0 -0.36893580296E+02 -0.22469848845E+02 -0.76752809114E+02  0.88073969374E+02  0.51100000000E-03 0.  1.
<mgrwt>
<rscale>  0 0.91294237E+02</rscale>
<asrwt>0</asrwt>
<pdfrwt beam="1">  1        3 0.25733846E-02 0.91294237E+02</pdfrwt>
<pdfrwt beam="2">  1       -3 0.19164404E-01 0.91294237E+02</pdfrwt>
<totfact> 0.31738444E+04</totfact>
</mgrwt>
</event>
<event>
 5    1  0.7431090E-001  0.9347525E+02  0.7818608E-02  0.1294648E+00
          3   -1    0    0  501    0  0.00000000000E+00  0.00000000000E+00  0.32054085269E+03  0.32054086618E+03  0.93000000000E-01 0. -1.
         -3   -1    0    0    0  501 -0.00000000000E+00 -0.00000000000E+00 -0.68144189381E+01  0.68150535188E+01  0.93000000000E-01 0.  1.
         23    2    1    2    0    0  0.00000000000E+00  0.00000000000E+00  0.31372643375E+03  0.32735591970E+03  0.93475253024E+02 0.  0.
        -11    1    3    3    0    0 -0.39358025532E+02 -0.11419680335E+02  0.78168696141E+02  0.88259890830E+02  0.51100000000E-03 0.  1.
         11    1    3    3    0    0  0.39358025532E+02  0.11419680335E+02  0.23555773761E+03  0.23909602887E+03  0.51100000000E-03 0. -1.
<mgrwt>
<rscale>  0 0.93475253E+02</rscale>
<asrwt>0</asrwt>
<pdfrwt beam="1">  1        3 0.49314033E-01 0.93475253E+02</pdfrwt>
<pdfrwt beam="2">  1       -3 0.10484219E-02 0.93475253E+02</pdfrwt>
<totfact> 0.21520433E+04</totfact>
</mgrwt>
</event>
<event>
 5    1  0.7431090E-001  0.9279997E+02  0.7818608E-02  0.1296209E+00
          3   -1    0    0  501    0  0.00000000000E+00  0.00000000000E+00  0.11869595813E+03  0.11869599457E+03  0.93000000000E-01 0. -1.
         -3   -1    0    0    0  501 -0.00000000000E+00 -0.00000000000E+00 -0.18138272284E+02  0.18138510701E+02  0.93000000000E-01 0.  1.
         23    2    1    2    0    0  0.00000000000E+00  0.00000000000E+00  0.10055768585E+03  0.13683450527E+03  0.92799965779E+02 0.  0.
        -11    1    3    3    0    0  0.22799924663E+02  0.27967694625E+02  0.93291344696E+02  0.10002651400E+03  0.51100000000E-03 0. -1.
         11    1    3    3    0    0 -0.22799924663E+02 -0.27967694625E+02  0.72663411527E+01  0.36807991269E+02  0.51100000000E-03 0.  1.
<mgrwt>
<rscale>  0 0.92799966E+02</rscale>
<asrwt>0</asrwt>
<pdfrwt beam="1">  1        3 0.18260937E-01 0.92799966E+02</pdfrwt>
<pdfrwt beam="2">  1       -3 0.27905246E-02 0.92799966E+02</pdfrwt>
<totfact> 0.30627287E+04</totfact>
</mgrwt>
</event>
<event>
 5    1  0.7431090E-001  0.8956665E+02  0.7818608E-02  0.1303905E+00
          3   -1    0    0  501    0  0.00000000000E+00  0.00000000000E+00  0.36672138916E+02  0.36672256839E+02  0.93000000000E-01 0.  1.
         -3   -1    0    0    0  501 -0.00000000000E+00 -0.00000000000E+00 -0.54688307797E+02  0.54688386872E+02  0.93000000000E-01 0. -1.
         23    2    1    2    0    0  0.00000000000E+00  0.00000000000E+00 -0.18016168881E+02  0.91360643711E+02  0.89566650479E+02 0.  0.
        -11    1    3    3    0    0  0.23637332054E+02  0.33374350086E+02  0.96050263912E+01  0.42009846971E+02  0.51100000000E-03 0.  1.
         11    1    3    3    0    0 -0.23637332054E+02 -0.33374350086E+02 -0.27621195272E+02  0.49350796739E+02  0.51100000000E-03 0. -1.
<mgrwt>
<rscale>  0 0.89566650E+02</rscale>
<asrwt>0</asrwt>
<pdfrwt beam="1">  1        3 0.56418827E-02 0.89566650E+02</pdfrwt>
<pdfrwt beam="2">  1       -3 0.84136010E-02 0.89566650E+02</pdfrwt>
<totfact> 0.37077909E+04</totfact>
</mgrwt>
</event>
<event>
 5    1  0.7431090E-001  0.9093223E+02  0.7818608E-02  0.1300610E+00
         -3   -1    0    0    0  501 -0.00000000000E+00  0.00000000000E+00  0.55745946872E+02  0.55746024447E+02  0.93000000000E-01 0.  1.
          3   -1    0    0  501    0  0.00000000000E+00 -0.00000000000E+00 -0.37081777955E+02  0.37081894575E+02  0.93000000000E-01 0. -1.
         23    2    1    2    0    0  0.00000000000E+00  0.00000000000E+00  0.18664168918E+02  0.92827919022E+02  0.90932234926E+02 0.  0.
        -11    1    3    3    0    0 -0.20157153687E+02  0.39882527807E+02  0.77637568941E+00  0.44693731423E+02  0.51100000000E-03 0. -1.
         11    1    3    3    0    0  0.20157153687E+02 -0.39882527807E+02  0.17887793228E+02  0.48134187599E+02  0.51100000000E-03 0.  1.
<mgrwt>
<rscale>  0 0.90932235E+02</rscale>
<asrwt>0</asrwt>
<pdfrwt beam="2">  1        3 0.57049039E-02 0.90932235E+02</pdfrwt>
<pdfrwt beam="1">  1       -3 0.85763144E-02 0.90932235E+02</pdfrwt>
<totfact> 0.35471514E+04</totfact>
</mgrwt>
</event>
<event>
 5    1  0.7431090E-001  0.9044369E+02  0.7818608E-02  0.1301781E+00
         -3   -1    0    0    0  501 -0.00000000000E+00  0.00000000000E+00  0.15598451514E+03  0.15598454287E+03  0.93000000000E-01 0.  1.
          3   -1    0    0  501    0  0.00000000000E+00 -0.00000000000E+00 -0.13110179221E+02  0.13110509075E+02  0.93000000000E-01 0. -1.
         23    2    1    2    0    0  0.00000000000E+00  0.00000000000E+00  0.14287433592E+03  0.16909505194E+03  0.90443688148E+02 0.  0.
        -11    1    3    3    0    0  0.70737830766E+01  0.35408372868E+02  0.20536047285E+02  0.41539385101E+02  0.51100000000E-03 0. -1.
         11    1    3    3    0    0 -0.70737830766E+01 -0.35408372868E+02  0.12233828864E+03  0.12755566684E+03  0.51100000000E-03 0.  1.
<mgrwt>
<rscale>  0 0.90443688E+02</rscale>
<asrwt>0</asrwt>
<pdfrwt beam="2">  1        3 0.20169781E-02 0.90443688E+02</pdfrwt>
<pdfrwt beam="1">  1       -3 0.23997646E-01 0.90443688E+02</pdfrwt>
<totfact> 0.30843589E+04</totfact>
</mgrwt>
</event>
<event>
 5    1  0.7431090E-001  0.9158409E+02  0.7818608E-02  0.1299060E+00
         -3   -1    0    0    0  501 -0.00000000000E+00  0.00000000000E+00  0.67011662782E+01  0.67018115825E+01  0.93000000000E-01 0.  1.
          3   -1    0    0  501    0  0.00000000000E+00 -0.00000000000E+00 -0.31290165764E+03  0.31290167146E+03  0.93000000000E-01 0. -1.
         23    2    1    2    0    0  0.00000000000E+00  0.00000000000E+00 -0.30620049136E+03  0.31960348304E+03  0.91584089574E+02 0.  0.
        -11    1    3    3    0    0  0.11224214513E+02  0.43045555398E+02 -0.19100975644E+03  0.19612146718E+03  0.51100000000E-03 0. -1.
         11    1    3    3    0    0 -0.11224214513E+02 -0.43045555398E+02 -0.11519073492E+03  0.12348201587E+03  0.51100000000E-03 0.  1.
<mgrwt>
<rscale>  0 0.91584090E+02</rscale>
<asrwt>0</asrwt>
<pdfrwt beam="2">  1        3 0.48138756E-01 0.91584090E+02</pdfrwt>
<pdfrwt beam="1">  1       -3 0.10309996E-02 0.91584090E+02</pdfrwt>
<totfact> 0.23014933E+04</totfact>
</mgrwt>
</event>
<event>
 5    1  0.7431090E-001  0.9481804E+02  0.7818608E-02  0.1291586E+00
          3   -1    0    0  501    0  0.00000000000E+00  0.00000000000E+00  0.28342122229E+02  0.28342274810E+02  0.93000000000E-01 0. -1.
         -3   -1    0    0    0  501 -0.00000000000E+00 -0.00000000000E+00 -0.79302604395E+02  0.79302658926E+02  0.93000000000E-01 0.  1.
         23    2    1    2    0    0  0.00000000000E+00  0.00000000000E+00 -0.50960482166E+02  0.10764493374E+03  0.94818041620E+02 0.  0.
        -11    1    3    3    0    0  0.46071927764E+02 -0.95344748518E+01 -0.18852066849E+02  0.50684604796E+02  0.51100000000E-03 0.  1.
         11    1    3    3    0    0 -0.46071927764E+02  0.95344748518E+01 -0.32108415317E+02  0.56960328941E+02  0.51100000000E-03 0. -1.
<mgrwt>
<rscale>  0 0.94818042E+02</rscale>
<asrwt>0</asrwt>
<pdfrwt beam="1">  1        3 0.43603425E-02 0.94818042E+02</pdfrwt>
<pdfrwt beam="2">  1       -3 0.12200417E-01 0.94818042E+02</pdfrwt>
<totfact> 0.30656322E+04</totfact>
</mgrwt>
</event>
<event>
 5    1  0.7431090E-001  0.8589192E+02  0.7818608E-02  0.1313116E+00
         -3   -1    0    0    0  501 -0.00000000000E+00  0.00000000000E+00  0.22360967212E+02  0.22361160606E+02  0.93000000000E-01 0.  1.
          3   -1    0    0  501    0  0.00000000000E+00 -0.00000000000E+00 -0.82480447798E+02  0.82480500229E+02  0.93000000000E-01 0. -1.
         23    2    1    2    0    0  0.00000000000E+00  0.00000000000E+00 -0.60119480586E+02  0.10484166083E+03  0.85891919880E+02 0.  0.
        -11    1    3    3    0    0  0.37337862040E+02 -0.16268686727E+02 -0.13431942938E+02  0.42885932436E+02  0.51100000000E-03 0.  1.
         11    1    3    3    0    0 -0.37337862040E+02  0.16268686727E+02 -0.46687537648E+02  0.61955728399E+02  0.51100000000E-03 0. -1.
<mgrwt>
<rscale>  0 0.85891920E+02</rscale>
<asrwt>0</asrwt>
<pdfrwt beam="2">  1        3 0.12689318E-01 0.85891920E+02</pdfrwt>
<pdfrwt beam="1">  1       -3 0.34401677E-02 0.85891920E+02</pdfrwt>
<totfact> 0.40334997E+04</totfact>
</mgrwt>
</event>
<event>
 5    1  0.7431090E-001  0.9318616E+02  0.7818608E-02  0.1295314E+00
          3   -1    0    0  501    0  0.00000000000E+00  0.00000000000E+00  0.22508401600E+03  0.22508403521E+03  0.93000000000E-01 0. -1.
         -3   -1    0    0    0  501 -0.00000000000E+00 -0.00000000000E+00 -0.96446672950E+01  0.96451156670E+01  0.93000000000E-01 0.  1.
         23    2    1    2    0    0  0.00000000000E+00  0.00000000000E+00  0.21543934870E+03  0.23472915088E+03  0.93186164757E+02 0.  0.
        -11    1    3    3    0    0  0.10134997323E+02 -0.35336314347E+02  0.35608725725E+02  0.51179631011E+02  0.51100000000E-03 0.  1.
         11    1    3    3    0    0 -0.10134997323E+02  0.35336314347E+02  0.17983062298E+03  0.18354951986E+03  0.51100000000E-03 0. -1.
<mgrwt>
<rscale>  0 0.93186165E+02</rscale>
<asrwt>0</asrwt>
<pdfrwt beam="1">  1        3 0.34628345E-01 0.93186165E+02</pdfrwt>
<pdfrwt beam="2">  1       -3 0.14838310E-02 0.93186165E+02</pdfrwt>
<totfact> 0.25265863E+04</totfact>
</mgrwt>
</event>
<event>
 5    1  0.7431090E-001  0.8751546E+02  0.7818608E-02  0.1308982E+00
          3   -1    0    0  501    0  0.00000000000E+00  0.00000000000E+00  0.44469886128E+02  0.44469983373E+02  0.93000000000E-01 0. -1.
         -3   -1    0    0    0  501 -0.00000000000E+00 -0.00000000000E+00 -0.43056788689E+02  0.43056889126E+02  0.93000000000E-01 0.  1.
         23    2    1    2    0    0  0.00000000000E+00  0.00000000000E+00  0.14130974386E+01  0.87526872500E+02  0.87515464720E+02 0.  0.
        -11    1    3    3    0    0  0.10726629103E+02 -0.31771112517E+02 -0.27408945571E+02  0.43309519277E+02  0.51100000000E-03 0.  1.
         11    1    3    3    0    0 -0.10726629103E+02  0.31771112517E+02  0.28822043010E+02  0.44217353222E+02  0.51100000000E-03 0. -1.
<mgrwt>
<rscale>  0 0.87515465E+02</rscale>
<asrwt>0</asrwt>
<pdfrwt beam="1">  1        3 0.68415361E-02 0.87515465E+02</pdfrwt>
<pdfrwt beam="2">  1       -3 0.66241366E-02 0.87515465E+02</pdfrwt>
<totfact> 0.39815183E+04</totfact>
</mgrwt>
</event>
<event>
 5    1  0.7431090E-001  0.8608485E+02  0.7818608E-02  0.1312620E+00
          3   -1    0    0  501    0  0.00000000000E+00  0.00000000000E+00  0.91553853882E+01  0.91558577210E+01  0.93000000000E-01 0. -1.
         -3   -1    0    0    0  501 -0.00000000000E+00 -0.00000000000E+00 -0.20235063756E+03  0.20235065893E+03  0.93000000000E-01 0.  1.
         23    2    1    2    0    0  0.00000000000E+00  0.00000000000E+00 -0.19319525217E+03  0.21150651665E+03  0.86084848403E+02 0.  0.
        -11    1    3    3    0    0 -0.28555033712E+02 -0.27993191091E+02 -0.57467859124E+02  0.70011167183E+02  0.51100000000E-03 0. -1.
         11    1    3    3    0    0  0.28555033712E+02  0.27993191091E+02 -0.13572739305E+03  0.14149534947E+03  0.51100000000E-03 0.  1.
<mgrwt>
<rscale>  0 0.86084848E+02</rscale>
<asrwt>0</asrwt>
<pdfrwt beam="1">  1        3 0.14085590E-02 0.86084848E+02</pdfrwt>
<pdfrwt beam="2">  1       -3 0.31130902E-01 0.86084848E+02</pdfrwt>
<totfact> 0.32566852E+04</totfact>
</mgrwt>
</event>
<event>
 5    1  0.7431090E-001  0.8995628E+02  0.7818608E-02  0.1302958E+00
          3   -1    0    0  501    0  0.00000000000E+00  0.00000000000E+00  0.98208961020E+01  0.98213364287E+01  0.93000000000E-01 0. -1.
         -3   -1    0    0    0  501 -0.00000000000E+00 -0.00000000000E+00 -0.20598764452E+03  0.20598766551E+03  0.93000000000E-01 0.  1.
         23    2    1    2    0    0  0.00000000000E+00  0.00000000000E+00 -0.19616674841E+03  0.21580900194E+03  0.89956279016E+02 0.  0.
        -11    1    3    3    0    0 -0.22631803252E+02  0.20592269222E+02 -0.17717153614E+03  0.17979430827E+03  0.51100000000E-03 0.  1.
         11    1    3    3    0    0  0.22631803252E+02 -0.20592269222E+02 -0.18995212278E+02  0.36014693666E+02  0.51100000000E-03 0. -1.
<mgrwt>
<rscale>  0 0.89956279E+02</rscale>
<asrwt>0</asrwt>
<pdfrwt beam="1">  1        3 0.15109427E-02 0.89956279E+02</pdfrwt>
<pdfrwt beam="2">  1       -3 0.31690439E-01 0.89956279E+02</pdfrwt>
<totfact> 0.28721848E+04</totfact>
</mgrwt>
</event>
<event>
 5    1  0.7431090E-001  0.8269383E+02  0.7818608E-02  0.1321576E+00
         -3   -1    0    0    0  501 -0.00000000000E+00  0.00000000000E+00  0.21847330020E+02  0.21847527961E+02  0.93000000000E-01 0.  1.
          3   -1    0    0  501    0  0.00000000000E+00 -0.00000000000E+00 -0.78250043465E+02  0.78250098731E+02  0.93000000000E-01 0. -1.
         23    2    1    2    0    0  0.00000000000E+00  0.00000000000E+00 -0.56402713446E+02  0.10009762669E+03  0.82693825557E+02 0.  0.
        -11    1    3    3    0    0  0.67336345078E+01  0.38926981958E+02 -0.13429994145E+02  0.41725489824E+02  0.51100000000E-03 0.  1.
         11    1    3    3    0    0 -0.67336345078E+01 -0.38926981958E+02 -0.42972719300E+02  0.58372136867E+02  0.51100000000E-03 0. -1.
<mgrwt>
<rscale>  0 0.82693826E+02</rscale>
<asrwt>0</asrwt>
<pdfrwt beam="2">  1        3 0.12038488E-01 0.82693826E+02</pdfrwt>
<pdfrwt beam="1">  1       -3 0.33611472E-02 0.82693826E+02</pdfrwt>
<totfact> 0.45132307E+04</totfact>
</mgrwt>
</event>
<event>
 5    1  0.7431090E-001  0.9187150E+02  0.7818608E-02  0.1298382E+00
         -3   -1    0    0    0  501 -0.00000000000E+00  0.00000000000E+00  0.12604540841E+02  0.12604883927E+02  0.93000000000E-01 0.  1.
          3   -1    0    0  501    0  0.00000000000E+00 -0.00000000000E+00 -0.16740475547E+03  0.16740478131E+03  0.93000000000E-01 0. -1.
         23    2    1    2    0    0  0.00000000000E+00  0.00000000000E+00 -0.15480021463E+03  0.18000966523E+03  0.91871503346E+02 0.  0.
        -11    1    3    3    0    0 -0.26037888869E+02 -0.14445156890E+02 -0.88655324424E+01  0.31068181151E+02  0.51100000000E-03 0.  1.
         11    1    3    3    0    0  0.26037888869E+02  0.14445156890E+02 -0.14593468219E+03  0.14894148408E+03  0.51100000000E-03 0. -1.
<mgrwt>
<rscale>  0 0.91871503E+02</rscale>
<asrwt>0</asrwt>
<pdfrwt beam="2">  1        3 0.25754604E-01 0.91871503E+02</pdfrwt>
<pdfrwt beam="1">  1       -3 0.19391886E-02 0.91871503E+02</pdfrwt>
<totfact> 0.28964362E+04</totfact>
</mgrwt>
</event>
<event>
 5    1  0.7431090E-001  0.8933129E+02  0.7818608E-02  0.1304479E+00
          3   -1    0    0  501    0  0.00000000000E+00  0.00000000000E+00  0.86776898590E+02  0.86776948424E+02  0.93000000000E-01 0. -1.
         -3   -1    0    0    0  501 -0.00000000000E+00 -0.00000000000E+00 -0.22990069580E+02  0.22990257682E+02  0.93000000000E-01 0.  1.
         23    2    1    2    0    0  0.00000000000E+00  0.00000000000E+00  0.63786829009E+02  0.10976720611E+03  0.89331293405E+02 0.  0.
        -11    1    3    3    0    0 -0.41533856259E+01  0.34986219578E+02 -0.18413738795E+01  0.35279977757E+02  0.51100000000E-03 0.  1.
         11    1    3    3    0    0  0.41533856259E+01 -0.34986219578E+02  0.65628202889E+02  0.74487228350E+02  0.51100000000E-03 0. -1.
<mgrwt>
<rscale>  0 0.89331293E+02</rscale>
<asrwt>0</asrwt>
<pdfrwt beam="1">  1        3 0.13350310E-01 0.89331293E+02</pdfrwt>
<pdfrwt beam="2">  1       -3 0.35369521E-02 0.89331293E+02</pdfrwt>
<totfact> 0.35897328E+04</totfact>
</mgrwt>
</event>
<event>
 5    1  0.7431090E-001  0.9199361E+02  0.7818608E-02  0.1298094E+00
          3   -1    0    0  501    0  0.00000000000E+00  0.00000000000E+00  0.69876837874E+02  0.69876899762E+02  0.93000000000E-01 0. -1.
         -3   -1    0    0    0  501 -0.00000000000E+00 -0.00000000000E+00 -0.30277496889E+02  0.30277639717E+02  0.93000000000E-01 0.  1.
         23    2    1    2    0    0  0.00000000000E+00  0.00000000000E+00  0.39599340986E+02  0.10015453948E+03  0.91993608320E+02 0.  0.
        -11    1    3    3    0    0  0.29271102416E+02 -0.32817073897E+02  0.51142330886E+01  0.44270906430E+02  0.51100000000E-03 0.  1.
         11    1    3    3    0    0 -0.29271102416E+02  0.32817073897E+02  0.34485107897E+02  0.55883633049E+02  0.51100000000E-03 0. -1.
<mgrwt>
<rscale>  0 0.91993608E+02</rscale>
<asrwt>0</asrwt>
<pdfrwt beam="1">  1        3 0.10750298E-01 0.91993608E+02</pdfrwt>
<pdfrwt beam="2">  1       -3 0.46580923E-02 0.91993608E+02</pdfrwt>
<totfact> 0.33826553E+04</totfact>
</mgrwt>
</event>
<event>
 5    1  0.7431090E-001  0.9297499E+02  0.7818608E-02  0.1295803E+00
         -3   -1    0    0    0  501 -0.00000000000E+00  0.00000000000E+00  0.18543669253E+02  0.18543902458E+02  0.93000000000E-01 0.  1.
          3   -1    0    0  501    0  0.00000000000E+00 -0.00000000000E+00 -0.11653944648E+03  0.11653948359E+03  0.93000000000E-01 0. -1.
         23    2    1    2    0    0  0.00000000000E+00  0.00000000000E+00 -0.97995777227E+02  0.13508338605E+03  0.92974990355E+02 0.  0.
        -11    1    3    3    0    0  0.22343105430E+02  0.30053882018E+02 -0.89801251422E+01  0.38510944320E+02  0.51100000000E-03 0.  1.
         11    1    3    3    0    0 -0.22343105430E+02 -0.30053882018E+02 -0.89015652085E+02  0.96572441726E+02  0.51100000000E-03 0. -1.
<mgrwt>
<rscale>  0 0.92974990E+02</rscale>
<asrwt>0</asrwt>
<pdfrwt beam="2">  1        3 0.17929166E-01 0.92974990E+02</pdfrwt>
<pdfrwt beam="1">  1       -3 0.28528931E-02 0.92974990E+02</pdfrwt>
<totfact> 0.30577193E+04</totfact>
</mgrwt>
</event>
<event>
 5    1  0.7431090E-001  0.9107216E+02  0.7818608E-02  0.1300276E+00
          3   -1    0    0  501    0  0.00000000000E+00  0.00000000000E+00  0.18416921573E+02  0.18417156383E+02  0.93000000000E-01 0. -1.
         -3   -1    0    0    0  501 -0.00000000000E+00 -0.00000000000E+00 -0.11258759157E+03  0.11258762998E+03  0.93000000000E-01 0.  1.
         23    2    1    2    0    0  0.00000000000E+00  0.00000000000E+00 -0.94170669992E+02  0.13100478636E+03  0.91072163487E+02 0.  0.
        -11    1    3    3    0    0 -0.31048550307E+02  0.39843967111E+01 -0.94656091960E+02  0.99697861756E+02  0.51100000000E-03 0.  1.
         11    1    3    3    0    0  0.31048550307E+02 -0.39843967111E+01  0.48542196826E+00  0.31306924603E+02  0.51100000000E-03 0. -1.
<mgrwt>
<rscale>  0 0.91072163E+02</rscale>
<asrwt>0</asrwt>
<pdfrwt beam="1">  1        3 0.28333936E-02 0.91072163E+02</pdfrwt>
<pdfrwt beam="2">  1       -3 0.17321189E-01 0.91072163E+02</pdfrwt>
<totfact> 0.32613089E+04</totfact>
</mgrwt>
</event>
<event>
 5    1  0.7431090E-001  0.8950007E+02  0.7818608E-02  0.1304067E+00
          3   -1    0    0  501    0  0.00000000000E+00  0.00000000000E+00  0.17915950732E+03  0.17915953146E+03  0.93000000000E-01 0. -1.
         -3   -1    0    0    0  501 -0.00000000000E+00 -0.00000000000E+00 -0.11177337703E+02  0.11177724595E+02  0.93000000000E-01 0.  1.
         23    2    1    2    0    0  0.00000000000E+00  0.00000000000E+00  0.16798216962E+03  0.19033725606E+03  0.89500065545E+02 0.  0.
        -11    1    3    3    0    0  0.11448779065E+02 -0.36960611631E+02  0.36180966107E+02  0.52973801665E+02  0.51100000000E-03 0.  1.
         11    1    3    3    0    0 -0.11448779065E+02  0.36960611631E+02  0.13180120351E+03  0.13736345439E+03  0.51100000000E-03 0. -1.
<mgrwt>
<rscale>  0 0.89500066E+02</rscale>
<asrwt>0</asrwt>
<pdfrwt beam="1">  1        3 0.27563031E-01 0.89500066E+02</pdfrwt>
<pdfrwt beam="2">  1       -3 0.17196221E-02 0.89500066E+02</pdfrwt>
<totfact> 0.30492730E+04</totfact>
</mgrwt>
</event>
<event>
 5    1  0.7431090E-001  0.8992679E+02  0.7818608E-02  0.1303029E+00
         -3   -1    0    0    0  501 -0.00000000000E+00  0.00000000000E+00  0.15505182079E+03  0.15505184868E+03  0.93000000000E-01 0.  1.
          3   -1    0    0  501    0  0.00000000000E+00 -0.00000000000E+00 -0.13038714900E+02  0.13039046561E+02  0.93000000000E-01 0. -1.
         23    2    1    2    0    0  0.00000000000E+00  0.00000000000E+00  0.14201310589E+03  0.16809089524E+03  0.89926785880E+02 0.  0.
        -11    1    3    3    0    0 -0.32211971653E+02  0.27630049096E+02  0.98773788504E+02  0.10750484653E+03  0.51100000000E-03 0. -1.
         11    1    3    3    0    0  0.32211971653E+02 -0.27630049096E+02  0.43239317387E+02  0.60586048718E+02  0.51100000000E-03 0.  1.
<mgrwt>
<rscale>  0 0.89926786E+02</rscale>
<asrwt>0</asrwt>
<pdfrwt beam="2">  1        3 0.20059838E-02 0.89926786E+02</pdfrwt>
<pdfrwt beam="1">  1       -3 0.23854154E-01 0.89926786E+02</pdfrwt>
<totfact> 0.31383734E+04</totfact>
</mgrwt>
</event>
<event>
 5    1  0.7431090E-001  0.9405286E+02  0.7818608E-02  0.1293324E+00
         -3   -1    0    0    0  501 -0.00000000000E+00  0.00000000000E+00  0.12886351172E+02  0.12886686755E+02  0.93000000000E-01 0.  1.
          3   -1    0    0  501    0  0.00000000000E+00 -0.00000000000E+00 -0.17161195835E+03  0.17161198354E+03  0.93000000000E-01 0. -1.
         23    2    1    2    0    0  0.00000000000E+00  0.00000000000E+00 -0.15872560717E+03  0.18449867030E+03  0.94052862634E+02 0.  0.
        -11    1    3    3    0    0 -0.43001258421E+02 -0.11591293585E+02 -0.10898427809E+03  0.11773291462E+03  0.51100000000E-03 0.  1.
         11    1    3    3    0    0  0.43001258421E+02  0.11591293585E+02 -0.49741329081E+02  0.66765755681E+02  0.51100000000E-03 0. -1.
<mgrwt>
<rscale>  0 0.94052863E+02</rscale>
<asrwt>0</asrwt>
<pdfrwt beam="2">  1        3 0.26401866E-01 0.94052863E+02</pdfrwt>
<pdfrwt beam="1">  1       -3 0.19825434E-02 0.94052863E+02</pdfrwt>
<totfact> 0.26953990E+04</totfact>
</mgrwt>
</event>
<event>
 5    1  0.7431090E-001  0.8974437E+02  0.7818608E-02  0.1303472E+00
          3   -1    0    0  501    0  0.00000000000E+00  0.00000000000E+00  0.25461357659E+02  0.25461527504E+02  0.93000000000E-01 0. -1.
         -3   -1    0    0    0  501 -0.00000000000E+00 -0.00000000000E+00 -0.79080677877E+02  0.79080732561E+02  0.93000000000E-01 0.  1.
         23    2    1    2    0    0  0.00000000000E+00  0.00000000000E+00 -0.53619320218E+02  0.10454226007E+03  0.89744373857E+02 0.  0.
        -11    1    3    3    0    0  0.48123424944E+01 -0.26084183619E+02 -0.68971087786E+02  0.73895562966E+02  0.51100000000E-03 0.  1.
         11    1    3    3    0    0 -0.48123424944E+01  0.26084183619E+02  0.15351767569E+02  0.30646697099E+02  0.51100000000E-03 0. -1.
<mgrwt>
<rscale>  0 0.89744374E+02</rscale>
<asrwt>0</asrwt>
<pdfrwt beam="1">  1        3 0.39171492E-02 0.89744374E+02</pdfrwt>
<pdfrwt beam="2">  1       -3 0.12166275E-01 0.89744374E+02</pdfrwt>
<totfact> 0.35847018E+04</totfact>
</mgrwt>
</event>
<event>
 5    1  0.7431090E-001  0.8877863E+02  0.7818608E-02  0.1305837E+00
          3   -1    0    0  501    0  0.00000000000E+00  0.00000000000E+00  0.43510446151E+03  0.43510447145E+03  0.93000000000E-01 0. -1.
         -3   -1    0    0    0  501 -0.00000000000E+00 -0.00000000000E+00 -0.45281064468E+01  0.45290613810E+01  0.93000000000E-01 0.  1.
         23    2    1    2    0    0  0.00000000000E+00  0.00000000000E+00  0.43057635506E+03  0.43963353283E+03  0.88778632841E+02 0.  0.
        -11    1    3    3    0    0  0.26252185850E+02 -0.34795165519E+02  0.17369987760E+03  0.17908525424E+03  0.51100000000E-03 0. -1.
         11    1    3    3    0    0 -0.26252185850E+02  0.34795165519E+02  0.25687647746E+03  0.26054827859E+03  0.51100000000E-03 0.  1.
<mgrwt>
<rscale>  0 0.88778633E+02</rscale>
<asrwt>0</asrwt>
<pdfrwt beam="1">  1        3 0.66939216E-01 0.88778633E+02</pdfrwt>
<pdfrwt beam="2">  1       -3 0.69670604E-03 0.88778633E+02</pdfrwt>
<totfact> 0.20904716E+04</totfact>
</mgrwt>
</event>
<event>
 5    1  0.7431090E-001  0.8972942E+02  0.7818608E-02  0.1303508E+00
          3   -1    0    0  501    0  0.00000000000E+00  0.00000000000E+00  0.58491195250E+01  0.58498588203E+01  0.93000000000E-01 0. -1.
         -3   -1    0    0    0  501 -0.00000000000E+00 -0.00000000000E+00 -0.34410489289E+03  0.34410490546E+03  0.93000000000E-01 0.  1.
         23    2    1    2    0    0  0.00000000000E+00  0.00000000000E+00 -0.33825577337E+03  0.34995476428E+03  0.89729420069E+02 0.  0.
        -11    1    3    3    0    0  0.43701749769E+02  0.99795863752E+01 -0.16192890039E+03  0.16801905802E+03  0.51100000000E-03 0.  1.
         11    1    3    3    0    0 -0.43701749769E+02 -0.99795863752E+01 -0.17632687298E+03  0.18193570626E+03  0.51100000000E-03 0. -1.
<mgrwt>
<rscale>  0 0.89729420E+02</rscale>
<asrwt>0</asrwt>
<pdfrwt beam="1">  1        3 0.89992265E-03 0.89729420E+02</pdfrwt>
<pdfrwt beam="2">  1       -3 0.52939256E-01 0.89729420E+02</pdfrwt>
<totfact> 0.23178256E+04</totfact>
</mgrwt>
</event>
<event>
 5    1  0.7431090E-001  0.9003549E+02  0.7818608E-02  0.1302766E+00
          3   -1    0    0  501    0  0.00000000000E+00  0.00000000000E+00  0.13273576145E+03  0.13273579403E+03  0.93000000000E-01 0. -1.
         -3   -1    0    0    0  501 -0.00000000000E+00 -0.00000000000E+00 -0.15267732015E+02  0.15268015257E+02  0.93000000000E-01 0.  1.
         23    2    1    2    0    0  0.00000000000E+00  0.00000000000E+00  0.11746802944E+03  0.14800380929E+03  0.90035490913E+02 0.  0.
        -11    1    3    3    0    0 -0.44782086944E+02  0.45999659513E+01  0.58653350079E+02  0.73937882533E+02  0.51100000000E-03 0. -1.
         11    1    3    3    0    0  0.44782086944E+02 -0.45999659513E+01  0.58814679356E+02  0.74065926753E+02  0.51100000000E-03 0.  1.
<mgrwt>
<rscale>  0 0.90035491E+02</rscale>
<asrwt>0</asrwt>
<pdfrwt beam="1">  1        3 0.20420911E-01 0.90035491E+02</pdfrwt>
<pdfrwt beam="2">  1       -3 0.23489061E-02 0.90035491E+02</pdfrwt>
<totfact> 0.32518159E+04</totfact>
</mgrwt>
</event>
<event>
 5    1  0.7431090E-001  0.9034078E+02  0.7818608E-02  0.1302029E+00
         -3   -1    0    0    0  501 -0.00000000000E+00  0.00000000000E+00  0.15660410092E+02  0.15660686232E+02  0.93000000000E-01 0.  1.
          3   -1    0    0  501    0  0.00000000000E+00 -0.00000000000E+00 -0.13028658724E+03  0.13028662043E+03  0.93000000000E-01 0. -1.
         23    2    1    2    0    0  0.00000000000E+00  0.00000000000E+00 -0.11462617714E+03  0.14594730666E+03  0.90340776147E+02 0.  0.
        -11    1    3    3    0    0  0.17816012845E+02 -0.17262938474E+02  0.36702585599E+01  0.25077682441E+02  0.51100000000E-03 0.  1.
         11    1    3    3    0    0 -0.17816012845E+02  0.17262938474E+02 -0.11829643570E+03  0.12086962422E+03  0.51100000000E-03 0. -1.
<mgrwt>
<rscale>  0 0.90340776E+02</rscale>
<asrwt>0</asrwt>
<pdfrwt beam="2">  1        3 0.20044113E-01 0.90340776E+02</pdfrwt>
<pdfrwt beam="1">  1       -3 0.24093177E-02 0.90340776E+02</pdfrwt>
<totfact> 0.32352808E+04</totfact>
</mgrwt>
</event>
<event>
 5    1  0.7431090E-001  0.8762763E+02  0.7818608E-02  0.1308701E+00
         -3   -1    0    0    0  501 -0.00000000000E+00  0.00000000000E+00  0.13733968538E+03  0.13733971687E+03  0.93000000000E-01 0.  1.
          3   -1    0    0  501    0  0.00000000000E+00 -0.00000000000E+00 -0.13977202367E+02  0.13977511760E+02  0.93000000000E-01 0. -1.
         23    2    1    2    0    0  0.00000000000E+00  0.00000000000E+00  0.12336248302E+03  0.15131722863E+03  0.87627629573E+02 0.  0.
        -11    1    3    3    0    0  0.33689723802E+02  0.20751549059E+02  0.94172381383E+02  0.10214725495E+03  0.51100000000E-03 0.  1.
         11    1    3    3    0    0 -0.33689723802E+02 -0.20751549059E+02  0.29190101634E+02  0.49169973682E+02  0.51100000000E-03 0. -1.
<mgrwt>
<rscale>  0 0.87627630E+02</rscale>
<asrwt>0</asrwt>
<pdfrwt beam="2">  1        3 0.21503652E-02 0.87627630E+02</pdfrwt>
<pdfrwt beam="1">  1       -3 0.21129207E-01 0.87627630E+02</pdfrwt>
<totfact> 0.34758213E+04</totfact>
</mgrwt>
</event>
<event>
 5    1  0.7431090E-001  0.9376815E+02  0.7818608E-02  0.1293975E+00
         -3   -1    0    0    0  501 -0.00000000000E+00  0.00000000000E+00  0.78679466242E+01  0.78684962402E+01  0.93000000000E-01 0.  1.
          3   -1    0    0  501    0  0.00000000000E+00 -0.00000000000E+00 -0.27936583001E+03  0.27936584549E+03  0.93000000000E-01 0. -1.
         23    2    1    2    0    0  0.00000000000E+00  0.00000000000E+00 -0.27149788339E+03  0.28723434173E+03  0.93768152301E+02 0.  0.
        -11    1    3    3    0    0  0.15244204321E+02 -0.43339391582E+02 -0.16439113011E+03  0.17069016459E+03  0.51100000000E-03 0.  1.
         11    1    3    3    0    0 -0.15244204321E+02  0.43339391582E+02 -0.10710675327E+03  0.11654417714E+03  0.51100000000E-03 0. -1.
<mgrwt>
<rscale>  0 0.93768152E+02</rscale>
<asrwt>0</asrwt>
<pdfrwt beam="2">  1        3 0.42979394E-01 0.93768152E+02</pdfrwt>
<pdfrwt beam="1">  1       -3 0.12104970E-02 0.93768152E+02</pdfrwt>
<totfact> 0.22750149E+04</totfact>
</mgrwt>
</event>
<event>
 5    1  0.7431090E-001  0.8792141E+02  0.7818608E-02  0.1307965E+00
         -3   -1    0    0    0  501 -0.00000000000E+00  0.00000000000E+00  0.13647502959E+02  0.13647819826E+02  0.93000000000E-01 0.  1.
          3   -1    0    0  501    0  0.00000000000E+00 -0.00000000000E+00 -0.14160221165E+03  0.14160224219E+03  0.93000000000E-01 0. -1.
         23    2    1    2    0    0  0.00000000000E+00  0.00000000000E+00 -0.12795470869E+03  0.15525006202E+03  0.87921409678E+02 0.  0.
        -11    1    3    3    0    0 -0.24839101445E+02  0.55868454841E+01 -0.69555851360E+00  0.25469150063E+02  0.51100000000E-03 0.  1.
         11    1    3    3    0    0  0.24839101445E+02 -0.55868454841E+01 -0.12725915018E+03  0.12978091195E+03  0.51100000000E-03 0. -1.
<mgrwt>
<rscale>  0 0.87921410E+02</rscale>
<asrwt>0</asrwt>
<pdfrwt beam="2">  1        3 0.21784981E-01 0.87921410E+02</pdfrwt>
<pdfrwt beam="1">  1       -3 0.20996427E-02 0.87921410E+02</pdfrwt>
<totfact> 0.34181931E+04</totfact>
</mgrwt>
</event>
<event>
 5    1  0.7431090E-001  0.9283711E+02  0.7818608E-02  0.1296123E+00
          3   -1    0    0  501    0  0.00000000000E+00  0.00000000000E+00  0.75264929871E+02  0.75264987328E+02  0.93000000000E-01 0. -1.
         -3   -1    0    0    0  501 -0.00000000000E+00 -0.00000000000E+00 -0.28627826710E+02  0.28627977769E+02  0.93000000000E-01 0.  1.
         23    2    1    2    0    0  0.00000000000E+00  0.00000000000E+00  0.46637103161E+02  0.10389296510E+03  0.92837108988E+02 0.  0.
        -11    1    3    3    0    0  0.34839633549E+02  0.99785748236E+01 -0.91410066862E+01  0.37375527084E+02  0.51100000000E-03 0.  1.
         11    1    3    3    0    0 -0.34839633549E+02 -0.99785748236E+01  0.55778109847E+02  0.66517438012E+02  0.51100000000E-03 0. -1.
<mgrwt>
<rscale>  0 0.92837109E+02</rscale>
<asrwt>0</asrwt>
<pdfrwt beam="1">  1        3 0.11579236E-01 0.92837109E+02</pdfrwt>
<pdfrwt beam="2">  1       -3 0.44042971E-02 0.92837109E+02</pdfrwt>
<totfact> 0.32733221E+04</totfact>
</mgrwt>
</event>
<event>
 5    1  0.7431090E-001  0.9218876E+02  0.7818608E-02  0.1297636E+00
          3   -1    0    0  501    0  0.00000000000E+00  0.00000000000E+00  0.58232094489E+02  0.58232168752E+02  0.93000000000E-01 0. -1.
         -3   -1    0    0    0  501 -0.00000000000E+00 -0.00000000000E+00 -0.36486459329E+02  0.36486577853E+02  0.93000000000E-01 0.  1.
         23    2    1    2    0    0  0.00000000000E+00  0.00000000000E+00  0.21745635159E+02  0.94718746604E+02  0.92188764553E+02 0.  0.
        -11    1    3    3    0    0 -0.14879334642E+02  0.33941262244E+02  0.39034670760E+02  0.53824802867E+02  0.51100000000E-03 0. -1.
         11    1    3    3    0    0  0.14879334642E+02 -0.33941262244E+02 -0.17289035601E+02  0.40893943737E+02  0.51100000000E-03 0.  1.
<mgrwt>
<rscale>  0 0.92188765E+02</rscale>
<asrwt>0</asrwt>
<pdfrwt beam="1">  1        3 0.89587986E-02 0.92188765E+02</pdfrwt>
<pdfrwt beam="2">  1       -3 0.56133163E-02 0.92188765E+02</pdfrwt>
<totfact> 0.34027463E+04</totfact>
</mgrwt>
</event>
<event>
 5    1  0.7431090E-001  0.9156342E+02  0.7818608E-02  0.1299109E+00
         -3   -1    0    0    0  501 -0.00000000000E+00  0.00000000000E+00  0.25941083312E+02  0.25941250016E+02  0.93000000000E-01 0.  1.
          3   -1    0    0  501    0  0.00000000000E+00 -0.00000000000E+00 -0.80796668612E+02  0.80796722135E+02  0.93000000000E-01 0. -1.
         23    2    1    2    0    0  0.00000000000E+00  0.00000000000E+00 -0.54855585300E+02  0.10673797215E+03  0.91563417697E+02 0.  0.
        -11    1    3    3    0    0 -0.20915549908E+02 -0.14130543304E+02  0.17096768790E+02  0.30486586975E+02  0.51100000000E-03 0.  1.
         11    1    3    3    0    0  0.20915549908E+02  0.14130543304E+02 -0.71952354090E+02  0.76251385176E+02  0.51100000000E-03 0. -1.
<mgrwt>
<rscale>  0 0.91563418E+02</rscale>
<asrwt>0</asrwt>
<pdfrwt beam="2">  1        3 0.12430274E-01 0.91563418E+02</pdfrwt>
<pdfrwt beam="1">  1       -3 0.39909529E-02 0.91563418E+02</pdfrwt>
<totfact> 0.33786826E+04</totfact>
</mgrwt>
</event>
<event>
 5    1  0.7431090E-001  0.9268457E+02  0.7818608E-02  0.1296478E+00
         -3   -1    0    0    0  501 -0.00000000000E+00  0.00000000000E+00  0.26532027762E+02  0.26532190753E+02  0.93000000000E-01 0.  1.
          3   -1    0    0  501    0  0.00000000000E+00 -0.00000000000E+00 -0.80943519922E+02  0.80943573348E+02  0.93000000000E-01 0. -1.
         23    2    1    2    0    0  0.00000000000E+00  0.00000000000E+00 -0.54411492160E+02  0.10747576410E+03  0.92684569320E+02 0.  0.
        -11    1    3    3    0    0 -0.39994647521E+02 -0.20182670312E+02 -0.40960187426E+02  0.60701309422E+02  0.51100000000E-03 0.  1.
         11    1    3    3    0    0  0.39994647521E+02  0.20182670312E+02 -0.13451304734E+02  0.46774454680E+02  0.51100000000E-03 0. -1.
<mgrwt>
<rscale>  0 0.92684569E+02</rscale>
<asrwt>0</asrwt>
<pdfrwt beam="2">  1        3 0.12452866E-01 0.92684569E+02</pdfrwt>
<pdfrwt beam="1">  1       -3 0.40818671E-02 0.92684569E+02</pdfrwt>
<totfact> 0.32633246E+04</totfact>
</mgrwt>
</event>
<event>
 5    1  0.7431090E-001  0.9358452E+02  0.7818608E-02  0.1294396E+00
          3   -1    0    0  501    0  0.00000000000E+00  0.00000000000E+00  0.80649046096E+02  0.80649099718E+02  0.93000000000E-01 0. -1.
         -3   -1    0    0    0  501 -0.00000000000E+00 -0.00000000000E+00 -0.27148543634E+02  0.27148702924E+02  0.93000000000E-01 0.  1.
         23    2    1    2    0    0  0.00000000000E+00  0.00000000000E+00  0.53500502462E+02  0.10779780264E+03  0.93584520571E+02 0.  0.
        -11    1    3    3    0    0 -0.54493394718E+00 -0.29066550965E+02 -0.15483801344E+02  0.32937963542E+02  0.51100000000E-03 0.  1.
         11    1    3    3    0    0  0.54493394718E+00  0.29066550965E+02  0.68984303807E+02  0.74859839099E+02  0.51100000000E-03 0. -1.
<mgrwt>
<rscale>  0 0.93584521E+02</rscale>
<asrwt>0</asrwt>
<pdfrwt beam="1">  1        3 0.12407562E-01 0.93584521E+02</pdfrwt>
<pdfrwt beam="2">  1       -3 0.41767155E-02 0.93584521E+02</pdfrwt>
<totfact> 0.31762196E+04</totfact>
</mgrwt>
</event>
<event>
 5    1  0.7431090E-001  0.9146669E+02  0.7818608E-02  0.1299338E+00
          3   -1    0    0  501    0  0.00000000000E+00  0.00000000000E+00  0.18525599932E+03  0.18525602267E+03  0.93000000000E-01 0. -1.
         -3   -1    0    0    0  501 -0.00000000000E+00 -0.00000000000E+00 -0.11289776996E+02  0.11290160035E+02  0.93000000000E-01 0.  1.
         23    2    1    2    0    0  0.00000000000E+00  0.00000000000E+00  0.17396622233E+03  0.19654618270E+03  0.91466690241E+02 0.  0.
        -11    1    3    3    0    0 -0.11202646652E+02  0.43610877994E+02  0.10419130396E+03  0.11350434262E+03  0.51100000000E-03 0. -1.
         11    1    3    3    0    0  0.11202646652E+02 -0.43610877994E+02  0.69774918366E+02  0.83041840085E+02  0.51100000000E-03 0.  1.
<mgrwt>
<rscale>  0 0.91466690E+02</rscale>
<asrwt>0</asrwt>
<pdfrwt beam="1">  1        3 0.28500952E-01 0.91466690E+02</pdfrwt>
<pdfrwt beam="2">  1       -3 0.17369202E-02 0.91466690E+02</pdfrwt>
<totfact> 0.28433111E+04</totfact>
</mgrwt>
</event>
<event>
 5    1  0.7431090E-001  0.9137909E+02  0.7818608E-02  0.1299546E+00
         -3   -1    0    0    0  501 -0.00000000000E+00  0.00000000000E+00  0.18521523110E+02  0.18521756594E+02  0.93000000000E-01 0.  1.
          3   -1    0    0  501    0  0.00000000000E+00 -0.00000000000E+00 -0.11270762534E+03  0.11270766371E+03  0.93000000000E-01 0. -1.
         23    2    1    2    0    0  0.00000000000E+00  0.00000000000E+00 -0.94186102234E+02  0.13122942031E+03  0.91379094436E+02 0.  0.
        -11    1    3    3    0    0 -0.20320749482E+02  0.12438213518E+02 -0.10308051901E+03  0.10579808796E+03  0.51100000000E-03 0. -1.
         11    1    3    3    0    0  0.20320749482E+02 -0.12438213518E+02  0.88944167781E+01  0.25431332351E+02  0.51100000000E-03 0.  1.
<mgrwt>
<rscale>  0 0.91379094E+02</rscale>
<asrwt>0</asrwt>
<pdfrwt beam="2">  1        3 0.17339655E-01 0.91379094E+02</pdfrwt>
<pdfrwt beam="1">  1       -3 0.28494861E-02 0.91379094E+02</pdfrwt>
<totfact> 0.32300077E+04</totfact>
</mgrwt>
</event>
<event>
 5    1  0.7431090E-001  0.8656882E+02  0.7818608E-02  0.1311380E+00
         -3   -1    0    0    0  501 -0.00000000000E+00  0.00000000000E+00  0.12651317817E+02  0.12651659634E+02  0.93000000000E-01 0.  1.
          3   -1    0    0  501    0  0.00000000000E+00 -0.00000000000E+00 -0.14808815491E+03  0.14808818411E+03  0.93000000000E-01 0. -1.
         23    2    1    2    0    0  0.00000000000E+00  0.00000000000E+00 -0.13543683709E+03  0.16073984374E+03  0.86568819592E+02 0.  0.
        -11    1    3    3    0    0  0.41706546983E+02 -0.43783228213E+01 -0.47812281693E+02  0.63597327404E+02  0.51100000000E-03 0.  1.
         11    1    3    3    0    0 -0.41706546983E+02  0.43783228213E+01 -0.87624555397E+02  0.97142516339E+02  0.51100000000E-03 0. -1.
<mgrwt>
<rscale>  0 0.86568820E+02</rscale>
<asrwt>0</asrwt>
<pdfrwt beam="2">  1        3 0.22782820E-01 0.86568820E+02</pdfrwt>
<pdfrwt beam="1">  1       -3 0.19463852E-02 0.86568820E+02</pdfrwt>
<totfact> 0.35259799E+04</totfact>
</mgrwt>
</event>
<event>
 5    1  0.7431090E-001  0.9148710E+02  0.7818608E-02  0.1299290E+00
          3   -1    0    0  501    0  0.00000000000E+00  0.00000000000E+00  0.62234714395E+02  0.62234783882E+02  0.93000000000E-01 0. -1.
         -3   -1    0    0    0  501 -0.00000000000E+00 -0.00000000000E+00 -0.33622115454E+02  0.33622244074E+02  0.93000000000E-01 0.  1.
         23    2    1    2    0    0  0.00000000000E+00  0.00000000000E+00  0.28612598941E+02  0.95857027956E+02  0.91487097399E+02 0.  0.
        -11    1    3    3    0    0 -0.32024438184E+02 -0.24914662729E+02 -0.78253062452E+01  0.41322396808E+02  0.51100000000E-03 0.  1.
         11    1    3    3    0    0  0.32024438184E+02  0.24914662729E+02  0.36437905186E+02  0.54534631148E+02  0.51100000000E-03 0. -1.
<mgrwt>
<rscale>  0 0.91487097E+02</rscale>
<asrwt>0</asrwt>
<pdfrwt beam="1">  1        3 0.95745867E-02 0.91487097E+02</pdfrwt>
<pdfrwt beam="2">  1       -3 0.51726484E-02 0.91487097E+02</pdfrwt>
<totfact> 0.34658655E+04</totfact>
</mgrwt>
</event>
<event>
 5    1  0.7431090E-001  0.9171860E+02  0.7818608E-02  0.1298742E+00
         -3   -1    0    0    0  501 -0.00000000000E+00  0.00000000000E+00  0.10468914226E+03  0.10468918357E+03  0.93000000000E-01 0.  1.
          3   -1    0    0  501    0  0.00000000000E+00 -0.00000000000E+00 -0.20088612500E+02  0.20088827770E+02  0.93000000000E-01 0. -1.
         23    2    1    2    0    0  0.00000000000E+00  0.00000000000E+00  0.84600529759E+02  0.12477801134E+03  0.91718604861E+02 0.  0.
        -11    1    3    3    0    0  0.24692534189E+02 -0.26890034732E+01  0.94745747980E+02  0.97947479523E+02  0.51100000000E-03 0.  1.
         11    1    3    3    0    0 -0.24692534189E+02  0.26890034732E+01 -0.10145218221E+02  0.26830531813E+02  0.51100000000E-03 0. -1.
<mgrwt>
<rscale>  0 0.91718605E+02</rscale>
<asrwt>0</asrwt>
<pdfrwt beam="2">  1        3 0.30905755E-02 0.91718605E+02</pdfrwt>
<pdfrwt beam="1">  1       -3 0.16106042E-01 0.91718605E+02</pdfrwt>
<totfact> 0.32398027E+04</totfact>
</mgrwt>
</event>
<event>
 5    1  0.7431090E-001  0.9206551E+02  0.7818608E-02  0.1297925E+00
          3   -1    0    0  501    0  0.00000000000E+00  0.00000000000E+00  0.25924716616E+02  0.25924883425E+02  0.93000000000E-01 0. -1.
         -3   -1    0    0    0  501 -0.00000000000E+00 -0.00000000000E+00 -0.81736771490E+02  0.81736824398E+02  0.93000000000E-01 0.  1.
         23    2    1    2    0    0  0.00000000000E+00  0.00000000000E+00 -0.55812054874E+02  0.10766170782E+03  0.92065508536E+02 0.  0.
        -11    1    3    3    0    0  0.36876982805E+02 -0.19652812092E+02 -0.50487007424E+02  0.65536881241E+02  0.51100000000E-03 0.  1.
         11    1    3    3    0    0 -0.36876982805E+02  0.19652812092E+02 -0.53250474505E+01  0.42124826582E+02  0.51100000000E-03 0. -1.
<mgrwt>
<rscale>  0 0.92065509E+02</rscale>
<asrwt>0</asrwt>
<pdfrwt beam="1">  1        3 0.39884349E-02 0.92065509E+02</pdfrwt>
<pdfrwt beam="2">  1       -3 0.12574905E-01 0.92065509E+02</pdfrwt>
<totfact> 0.33223784E+04</totfact>
</mgrwt>
</event>
<event>
 5    1  0.7431090E-001  0.9127149E+02  0.7818608E-02  0.1299801E+00
          3   -1    0    0  501    0  0.00000000000E+00  0.00000000000E+00  0.31373124378E+02  0.31373262219E+02  0.93000000000E-01 0.  1.
         -3   -1    0    0    0  501 -0.00000000000E+00 -0.00000000000E+00 -0.66382013094E+02  0.66382078239E+02  0.93000000000E-01 0. -1.
         23    2    1    2    0    0  0.00000000000E+00  0.00000000000E+00 -0.35008888715E+02  0.97755340458E+02  0.91271486780E+02 0.  0.
        -11    1    3    3    0    0  0.41715597891E+02  0.15050396164E+02 -0.59731992558E+01  0.44748012712E+02  0.51100000000E-03 0.  1.
         11    1    3    3    0    0 -0.41715597891E+02 -0.15050396164E+02 -0.29035689459E+02  0.53007327746E+02  0.51100000000E-03 0. -1.
<mgrwt>
<rscale>  0 0.91271487E+02</rscale>
<asrwt>0</asrwt>
<pdfrwt beam="1">  1        3 0.48266502E-02 0.91271487E+02</pdfrwt>
<pdfrwt beam="2">  1       -3 0.10212633E-01 0.91271487E+02</pdfrwt>
<totfact> 0.34741035E+04</totfact>
</mgrwt>
</event>
<event>
 5    1  0.7431090E-001  0.9091613E+02  0.7818608E-02  0.1300648E+00
         -3   -1    0    0    0  501 -0.00000000000E+00  0.00000000000E+00  0.34816980736E+02  0.34817104943E+02  0.93000000000E-01 0.  1.
          3   -1    0    0  501    0  0.00000000000E+00 -0.00000000000E+00 -0.59351112367E+02  0.59351185230E+02  0.93000000000E-01 0. -1.
         23    2    1    2    0    0  0.00000000000E+00  0.00000000000E+00 -0.24534131631E+02  0.94168290173E+02  0.90916133107E+02 0.  0.
        -11    1    3    3    0    0 -0.97438095707E+01  0.35448146877E+02 -0.39961552822E+02  0.54299527127E+02  0.51100000000E-03 0.  1.
         11    1    3    3    0    0  0.97438095707E+01 -0.35448146877E+02  0.15427421192E+02  0.39868763046E+02  0.51100000000E-03 0. -1.
<mgrwt>
<rscale>  0 0.90916133E+02</rscale>
<asrwt>0</asrwt>
<pdfrwt beam="2">  1        3 0.91309555E-02 0.90916133E+02</pdfrwt>
<pdfrwt beam="1">  1       -3 0.53564737E-02 0.90916133E+02</pdfrwt>
<totfact> 0.35384619E+04</totfact>
</mgrwt>
</event>
<event>
 5    1  0.7431090E-001  0.9207254E+02  0.7818608E-02  0.1297909E+00
          3   -1    0    0  501    0  0.00000000000E+00  0.00000000000E+00  0.11058713584E+02  0.11059104626E+02  0.93000000000E-01 0. -1.
         -3   -1    0    0    0  501 -0.00000000000E+00 -0.00000000000E+00 -0.19164041396E+03  0.19164043653E+03  0.93000000000E-01 0.  1.
         23    2    1    2    0    0  0.00000000000E+00  0.00000000000E+00 -0.18058170038E+03  0.20269954116E+03  0.92072544618E+02 0.  0.
        -11    1    3    3    0    0 -0.40054704527E+02  0.80808469482E+01 -0.43607262047E+02  0.59760126721E+02  0.51100000000E-03 0. -1.
         11    1    3    3    0    0  0.40054704527E+02 -0.80808469482E+01 -0.13697443833E+03  0.14293941444E+03  0.51100000000E-03 0.  1.
<mgrwt>
<rscale>  0 0.92072545E+02</rscale>
<asrwt>0</asrwt>
<pdfrwt beam="1">  1        3 0.17013725E-02 0.92072545E+02</pdfrwt>
<pdfrwt beam="2">  1       -3 0.29483170E-01 0.92072545E+02</pdfrwt>
<totfact> 0.27618646E+04</totfact>
</mgrwt>
</event>
<event>
 4    1  0.7431090E-001  0.4771044E+02  0.7818608E-02  0.1458097E+00
         -3   -1    0    0    0  501 -0.00000000000E+00  0.00000000000E+00  0.43060388447E+02  0.43060488876E+02  0.93000000000E-01 0.  1.
          3   -1    0    0  501    0  0.00000000000E+00 -0.00000000000E+00 -0.13215381417E+02  0.13215708645E+02  0.93000000000E-01 0. -1.
        -11    1    1    2    0    0 -0.19096237041E+02 -0.12128233745E+01 -0.18805822262E+01  0.19226903012E+02  0.51100000000E-03 0. -1.
         11    1    1    2    0    0  0.19096237041E+02  0.12128233745E+01  0.31725589256E+02  0.37049294509E+02  0.51100000000E-03 0.  1.
<mgrwt>
<rscale>  0 0.47710439E+02</rscale>
<asrwt>0</asrwt>
<pdfrwt beam="2">  1        3 0.20331686E-02 0.47710439E+02</pdfrwt>
<pdfrwt beam="1">  1       -3 0.66247079E-02 0.47710439E+02</pdfrwt>
<totfact> 0.20916012E+05</totfact>
</mgrwt>
</event>
<event>
 5    1  0.7431090E-001  0.9367803E+02  0.7818608E-02  0.1294182E+00
          3   -1    0    0  501    0  0.00000000000E+00  0.00000000000E+00  0.24852519272E+02  0.24852693278E+02  0.93000000000E-01 0. -1.
         -3   -1    0    0    0  501 -0.00000000000E+00 -0.00000000000E+00 -0.88275997213E+02  0.88276046201E+02  0.93000000000E-01 0.  1.
         23    2    1    2    0    0  0.00000000000E+00  0.00000000000E+00 -0.63423477941E+02  0.11312873948E+03  0.93678034469E+02 0.  0.
        -11    1    3    3    0    0  0.13726795435E+02 -0.44598950727E+02 -0.26820865283E+02  0.53822394350E+02  0.51100000000E-03 0. -1.
         11    1    3    3    0    0 -0.13726795435E+02  0.44598950727E+02 -0.36602612658E+02  0.59306345129E+02  0.51100000000E-03 0.  1.
<mgrwt>
<rscale>  0 0.93678034E+02</rscale>
<asrwt>0</asrwt>
<pdfrwt beam="1">  1        3 0.38234817E-02 0.93678034E+02</pdfrwt>
<pdfrwt beam="2">  1       -3 0.13580940E-01 0.93678034E+02</pdfrwt>
<totfact> 0.31326237E+04</totfact>
</mgrwt>
</event>
<event>
 5    1  0.7431090E-001  0.9069124E+02  0.7818608E-02  0.1301186E+00
         -3   -1    0    0    0  501 -0.00000000000E+00  0.00000000000E+00  0.91201282552E+01  0.91206024139E+01  0.93000000000E-01 0.  1.
          3   -1    0    0  501    0  0.00000000000E+00 -0.00000000000E+00 -0.22545378853E+03  0.22545380771E+03  0.93000000000E-01 0. -1.
         23    2    1    2    0    0  0.00000000000E+00  0.00000000000E+00 -0.21633366028E+03  0.23457441013E+03  0.90691241682E+02 0.  0.
        -11    1    3    3    0    0 -0.41235405118E+01 -0.44930406384E+02 -0.11987216136E+03  0.12808231756E+03  0.51100000000E-03 0. -1.
         11    1    3    3    0    0  0.41235405118E+01  0.44930406384E+02 -0.96461498923E+02  0.10649209257E+03  0.51100000000E-03 0.  1.
<mgrwt>
<rscale>  0 0.90691242E+02</rscale>
<asrwt>0</asrwt>
<pdfrwt beam="2">  1        3 0.34685232E-01 0.90691242E+02</pdfrwt>
<pdfrwt beam="1">  1       -3 0.14031348E-02 0.90691242E+02</pdfrwt>
<totfact> 0.27192321E+04</totfact>
</mgrwt>
</event>
<event>
 5    1  0.7431090E-001  0.7559492E+02  0.7818608E-02  0.1342039E+00
         -3   -1    0    0    0  501 -0.00000000000E+00  0.00000000000E+00  0.10942328835E+02  0.10942724036E+02  0.93000000000E-01 0.  1.
          3   -1    0    0  501    0  0.00000000000E+00 -0.00000000000E+00 -0.13055883057E+03  0.13055886370E+03  0.93000000000E-01 0. -1.
         23    2    1    2    0    0  0.00000000000E+00  0.00000000000E+00 -0.11961650174E+03  0.14150158773E+03  0.75594919425E+02 0.  0.
        -11    1    3    3    0    0  0.32658595655E+02 -0.77496364700E+00 -0.95396034563E+02  0.10083445765E+03  0.51100000000E-03 0. -1.
         11    1    3    3    0    0 -0.32658595655E+02  0.77496364700E+00 -0.24220467175E+02  0.40667130084E+02  0.51100000000E-03 0.  1.
<mgrwt>
<rscale>  0 0.75594919E+02</rscale>
<asrwt>0</asrwt>
<pdfrwt beam="2">  1        3 0.20086006E-01 0.75594919E+02</pdfrwt>
<pdfrwt beam="1">  1       -3 0.16834682E-02 0.75594919E+02</pdfrwt>
<totfact> 0.52584730E+04</totfact>
</mgrwt>
</event>
<event>
 5    1  0.7431090E-001  0.8846053E+02  0.7818608E-02  0.1306623E+00
         -3   -1    0    0    0  501 -0.00000000000E+00  0.00000000000E+00  0.50564136245E+02  0.50564221769E+02  0.93000000000E-01 0.  1.
          3   -1    0    0  501    0  0.00000000000E+00 -0.00000000000E+00 -0.38689626615E+02  0.38689738389E+02  0.93000000000E-01 0. -1.
         23    2    1    2    0    0  0.00000000000E+00  0.00000000000E+00  0.11874509630E+02  0.89253960158E+02  0.88460530323E+02 0.  0.
        -11    1    3    3    0    0  0.10115410753E+02 -0.34315146057E+02  0.32179488915E+02  0.48118294761E+02  0.51100000000E-03 0.  1.
         11    1    3    3    0    0 -0.10115410753E+02  0.34315146057E+02 -0.20304979285E+02  0.41135665397E+02  0.51100000000E-03 0. -1.
<mgrwt>
<rscale>  0 0.88460530E+02</rscale>
<asrwt>0</asrwt>
<pdfrwt beam="2">  1        3 0.59522654E-02 0.88460530E+02</pdfrwt>
<pdfrwt beam="1">  1       -3 0.77791131E-02 0.88460530E+02</pdfrwt>
<totfact> 0.38526408E+04</totfact>
</mgrwt>
</event>
<event>
 5    1  0.7431090E-001  0.9038736E+02  0.7818608E-02  0.1301916E+00
          3   -1    0    0  501    0  0.00000000000E+00  0.00000000000E+00  0.20000049290E+02  0.20000265514E+02  0.93000000000E-01 0. -1.
         -3   -1    0    0    0  501 -0.00000000000E+00 -0.00000000000E+00 -0.10212239423E+03  0.10212243657E+03  0.93000000000E-01 0.  1.
         23    2    1    2    0    0  0.00000000000E+00  0.00000000000E+00 -0.82122344936E+02  0.12212270209E+03  0.90387359886E+02 0.  0.
        -11    1    3    3    0    0 -0.38492296691E+02 -0.52775887546E+01 -0.98697237581E+01  0.40086422826E+02  0.51100000000E-03 0. -1.
         11    1    3    3    0    0  0.38492296691E+02  0.52775887546E+01 -0.72252621178E+02  0.82036279261E+02  0.51100000000E-03 0.  1.
<mgrwt>
<rscale>  0 0.90387360E+02</rscale>
<asrwt>0</asrwt>
<pdfrwt beam="1">  1        3 0.30769506E-02 0.90387360E+02</pdfrwt>
<pdfrwt beam="2">  1       -3 0.15711157E-01 0.90387360E+02</pdfrwt>
<totfact> 0.33893171E+04</totfact>
</mgrwt>
</event>
<event>
 5    1  0.7431090E-001  0.9079240E+02  0.7818608E-02  0.1300944E+00
          3   -1    0    0  501    0  0.00000000000E+00  0.00000000000E+00  0.22848130049E+02  0.22848319319E+02  0.93000000000E-01 0. -1.
         -3   -1    0    0    0  501 -0.00000000000E+00 -0.00000000000E+00 -0.90195642195E+02  0.90195690141E+02  0.93000000000E-01 0.  1.
         23    2    1    2    0    0  0.00000000000E+00  0.00000000000E+00 -0.67347512146E+02  0.11304400946E+03  0.90792404322E+02 0.  0.
        -11    1    3    3    0    0  0.27177525887E+02 -0.25417329773E+02 -0.12978685319E+01  0.37233627665E+02  0.51100000000E-03 0. -1.
         11    1    3    3    0    0 -0.27177525887E+02  0.25417329773E+02 -0.66049643614E+02  0.75810381795E+02  0.51100000000E-03 0.  1.
<mgrwt>
<rscale>  0 0.90792404E+02</rscale>
<asrwt>0</asrwt>
<pdfrwt beam="1">  1        3 0.35151152E-02 0.90792404E+02</pdfrwt>
<pdfrwt beam="2">  1       -3 0.13876271E-01 0.90792404E+02</pdfrwt>
<totfact> 0.34119961E+04</totfact>
</mgrwt>
</event>
<event>
 5    1  0.7431090E-001  0.9961344E+02  0.7818608E-02  0.1281111E+00
         -3   -1    0    0    0  501 -0.00000000000E+00  0.00000000000E+00  0.75237074841E+02  0.75237132319E+02  0.93000000000E-01 0.  1.
          3   -1    0    0  501    0  0.00000000000E+00 -0.00000000000E+00 -0.32971767601E+02  0.32971898758E+02  0.93000000000E-01 0. -1.
         23    2    1    2    0    0  0.00000000000E+00  0.00000000000E+00  0.42265307240E+02  0.10820903108E+03  0.99613443926E+02 0.  0.
        -11    1    3    3    0    0 -0.35951804848E+02 -0.34281564247E+02  0.17223274186E+02  0.52577553129E+02  0.51100000000E-03 0. -1.
         11    1    3    3    0    0  0.35951804848E+02  0.34281564247E+02  0.25042033054E+02  0.55631477949E+02  0.51100000000E-03 0.  1.
<mgrwt>
<rscale>  0 0.99613444E+02</rscale>
<asrwt>0</asrwt>
<pdfrwt beam="2">  1        3 0.50725942E-02 0.99613444E+02</pdfrwt>
<pdfrwt beam="1">  1       -3 0.11574949E-01 0.99613444E+02</pdfrwt>
<totfact> 0.26744300E+04</totfact>
</mgrwt>
</event>
<event>
 5    1  0.7431090E-001  0.9131611E+02  0.7818608E-02  0.1299695E+00
         -3   -1    0    0    0  501 -0.00000000000E+00  0.00000000000E+00  0.46304849953E+02  0.46304943345E+02  0.93000000000E-01 0.  1.
          3   -1    0    0  501    0  0.00000000000E+00 -0.00000000000E+00 -0.45020107016E+02  0.45020203073E+02  0.93000000000E-01 0. -1.
         23    2    1    2    0    0  0.00000000000E+00  0.00000000000E+00  0.12847429364E+01  0.91325146418E+02  0.91316109224E+02 0.  0.
        -11    1    3    3    0    0 -0.24220048336E+02 -0.19139040514E+02  0.34287108904E+02  0.46135880293E+02  0.51100000000E-03 0.  1.
         11    1    3    3    0    0  0.24220048336E+02  0.19139040514E+02 -0.33002365967E+02  0.45189266125E+02  0.51100000000E-03 0. -1.
<mgrwt>
<rscale>  0 0.91316109E+02</rscale>
<asrwt>0</asrwt>
<pdfrwt beam="2">  1        3 0.69261849E-02 0.91316109E+02</pdfrwt>
<pdfrwt beam="1">  1       -3 0.71238376E-02 0.91316109E+02</pdfrwt>
<totfact> 0.35180291E+04</totfact>
</mgrwt>
</event>
<event>
 5    1  0.7431090E-001  0.9086390E+02  0.7818608E-02  0.1300773E+00
          3   -1    0    0  501    0  0.00000000000E+00  0.00000000000E+00  0.24378282042E+02  0.24378459433E+02  0.93000000000E-01 0. -1.
         -3   -1    0    0    0  501 -0.00000000000E+00 -0.00000000000E+00 -0.84667567626E+02  0.84667618702E+02  0.93000000000E-01 0.  1.
         23    2    1    2    0    0  0.00000000000E+00  0.00000000000E+00 -0.60289285583E+02  0.10904607814E+03  0.90863904828E+02 0.  0.
        -11    1    3    3    0    0  0.99937384950E+01  0.23588630763E+02 -0.75172738461E+02  0.79418127139E+02  0.51100000000E-03 0.  1.
         11    1    3    3    0    0 -0.99937384950E+01 -0.23588630763E+02  0.14883452877E+02  0.29627950996E+02  0.51100000000E-03 0. -1.
<mgrwt>
<rscale>  0 0.90863905E+02</rscale>
<asrwt>0</asrwt>
<pdfrwt beam="1">  1        3 0.37505225E-02 0.90863905E+02</pdfrwt>
<pdfrwt beam="2">  1       -3 0.13025797E-01 0.90863905E+02</pdfrwt>
<totfact> 0.34333893E+04</totfact>
</mgrwt>
</event>
<event>
 5    1  0.7431090E-001  0.8931920E+02  0.7818608E-02  0.1304509E+00
         -3   -1    0    0    0  501 -0.00000000000E+00  0.00000000000E+00  0.84834810464E+02  0.84834861439E+02  0.93000000000E-01 0.  1.
          3   -1    0    0  501    0  0.00000000000E+00 -0.00000000000E+00 -0.23510006651E+02  0.23510190593E+02  0.93000000000E-01 0. -1.
         23    2    1    2    0    0  0.00000000000E+00  0.00000000000E+00  0.61324803813E+02  0.10834505203E+03  0.89319195793E+02 0.  0.
        -11    1    3    3    0    0 -0.44112681124E+02  0.52579081076E+01  0.36208582962E+02  0.57311741502E+02  0.51100000000E-03 0.  1.
         11    1    3    3    0    0  0.44112681124E+02 -0.52579081076E+01  0.25116220851E+02  0.51033310530E+02  0.51100000000E-03 0. -1.
<mgrwt>
<rscale>  0 0.89319196E+02</rscale>
<asrwt>0</asrwt>
<pdfrwt beam="2">  1        3 0.36169422E-02 0.89319196E+02</pdfrwt>
<pdfrwt beam="1">  1       -3 0.13051527E-01 0.89319196E+02</pdfrwt>
<totfact> 0.36020321E+04</totfact>
</mgrwt>
</event>
<event>
 5    1  0.7431090E-001  0.9312192E+02  0.7818608E-02  0.1295463E+00
          3   -1    0    0  501    0  0.00000000000E+00  0.00000000000E+00  0.16701107604E+02  0.16701366537E+02  0.93000000000E-01 0. -1.
         -3   -1    0    0    0  501 -0.00000000000E+00 -0.00000000000E+00 -0.12980584493E+03  0.12980587824E+03  0.93000000000E-01 0.  1.
         23    2    1    2    0    0  0.00000000000E+00  0.00000000000E+00 -0.11310473732E+03  0.14650724478E+03  0.93121915614E+02 0.  0.
        -11    1    3    3    0    0 -0.31091582774E+01  0.41102512981E+02 -0.22486518739E+02  0.46954520164E+02  0.51100000000E-03 0. -1.
         11    1    3    3    0    0  0.31091582774E+01 -0.41102512981E+02 -0.90618218583E+02  0.99552724613E+02  0.51100000000E-03 0.  1.
<mgrwt>
<rscale>  0 0.93121916E+02</rscale>
<asrwt>0</asrwt>
<pdfrwt beam="1">  1        3 0.25694237E-02 0.93121916E+02</pdfrwt>
<pdfrwt beam="2">  1       -3 0.19970152E-01 0.93121916E+02</pdfrwt>
<totfact> 0.29766627E+04</totfact>
</mgrwt>
</event>
<event>
 5    1  0.7431090E-001  0.9076163E+02  0.7818608E-02  0.1301018E+00
         -3   -1    0    0    0  501 -0.00000000000E+00  0.00000000000E+00  0.16324915414E+02  0.16325180314E+02  0.93000000000E-01 0.  1.
          3   -1    0    0  501    0  0.00000000000E+00 -0.00000000000E+00 -0.12615055859E+03  0.12615059287E+03  0.93000000000E-01 0. -1.
         23    2    1    2    0    0  0.00000000000E+00  0.00000000000E+00 -0.10982564318E+03  0.14247577319E+03  0.90761633116E+02 0.  0.
        -11    1    3    3    0    0 -0.27290107396E+02 -0.15215414572E+02 -0.32491854290E+01  0.31413627751E+02  0.51100000000E-03 0.  1.
         11    1    3    3    0    0  0.27290107396E+02  0.15215414572E+02 -0.10657645775E+03  0.11106214544E+03  0.51100000000E-03 0. -1.
<mgrwt>
<rscale>  0 0.90761633E+02</rscale>
<asrwt>0</asrwt>
<pdfrwt beam="2">  1        3 0.19407801E-01 0.90761633E+02</pdfrwt>
<pdfrwt beam="1">  1       -3 0.25115485E-02 0.90761633E+02</pdfrwt>
<totfact> 0.32168807E+04</totfact>
</mgrwt>
</event>
<event>
 5    1  0.7431090E-001  0.9258243E+02  0.7818608E-02  0.1296716E+00
          3   -1    0    0  501    0  0.00000000000E+00  0.00000000000E+00  0.54889180031E+02  0.54889258817E+02  0.93000000000E-01 0. -1.
         -3   -1    0    0    0  501 -0.00000000000E+00 -0.00000000000E+00 -0.39039893733E+02  0.39040004504E+02  0.93000000000E-01 0.  1.
         23    2    1    2    0    0  0.00000000000E+00  0.00000000000E+00  0.15849286298E+02  0.93929263321E+02  0.92582431551E+02 0.  0.
        -11    1    3    3    0    0  0.32112772842E+02 -0.20385956232E+01 -0.25838460269E+02  0.41267566939E+02  0.51100000000E-03 0.  1.
         11    1    3    3    0    0 -0.32112772842E+02  0.20385956232E+01  0.41687746567E+02  0.52661696382E+02  0.51100000000E-03 0. -1.
<mgrwt>
<rscale>  0 0.92582432E+02</rscale>
<asrwt>0</asrwt>
<pdfrwt beam="1">  1        3 0.84445039E-02 0.92582432E+02</pdfrwt>
<pdfrwt beam="2">  1       -3 0.60061520E-02 0.92582432E+02</pdfrwt>
<totfact> 0.33691151E+04</totfact>
</mgrwt>
</event>
<event>
 5    1  0.7431090E-001  0.9129198E+02  0.7818608E-02  0.1299753E+00
          3   -1    0    0  501    0  0.00000000000E+00  0.00000000000E+00  0.47587801108E+02  0.47587891983E+02  0.93000000000E-01 0. -1.
         -3   -1    0    0    0  501 -0.00000000000E+00 -0.00000000000E+00 -0.43783229147E+02  0.43783327918E+02  0.93000000000E-01 0.  1.
         23    2    1    2    0    0  0.00000000000E+00  0.00000000000E+00  0.38045719613E+01  0.91371219900E+02  0.91291976965E+02 0.  0.
        -11    1    3    3    0    0  0.40962997568E+02  0.13949351409E+02  0.16440895264E+02  0.46290977650E+02  0.51100000000E-03 0.  1.
         11    1    3    3    0    0 -0.40962997568E+02 -0.13949351409E+02 -0.12636323302E+02  0.45080242250E+02  0.51100000000E-03 0. -1.
<mgrwt>
<rscale>  0 0.91291977E+02</rscale>
<asrwt>0</asrwt>
<pdfrwt beam="1">  1        3 0.73212148E-02 0.91291977E+02</pdfrwt>
<pdfrwt beam="2">  1       -3 0.67358960E-02 0.91291977E+02</pdfrwt>
<totfact> 0.35202121E+04</totfact>
</mgrwt>
</event>
<event>
 5    1  0.7431090E-001  0.9136753E+02  0.7818608E-02  0.1299573E+00
          3   -1    0    0  501    0  0.00000000000E+00  0.00000000000E+00  0.29355736121E+02  0.29355883435E+02  0.93000000000E-01 0. -1.
         -3   -1    0    0    0  501 -0.00000000000E+00 -0.00000000000E+00 -0.71093285114E+02  0.71093345943E+02  0.93000000000E-01 0.  1.
         23    2    1    2    0    0  0.00000000000E+00  0.00000000000E+00 -0.41737548993E+02  0.10044922938E+03  0.91367525339E+02 0.  0.
        -11    1    3    3    0    0 -0.29063626083E+02 -0.33564367863E+02 -0.32696627124E+02  0.55139192745E+02  0.51100000000E-03 0. -1.
         11    1    3    3    0    0  0.29063626083E+02  0.33564367863E+02 -0.90409218690E+01  0.45310036632E+02  0.51100000000E-03 0.  1.
<mgrwt>
<rscale>  0 0.91367525E+02</rscale>
<asrwt>0</asrwt>
<pdfrwt beam="1">  1        3 0.45162831E-02 0.91367525E+02</pdfrwt>
<pdfrwt beam="2">  1       -3 0.10937444E-01 0.91367525E+02</pdfrwt>
<totfact> 0.34442337E+04</totfact>
</mgrwt>
</event>
<event>
 5    1  0.7431090E-001  0.8785242E+02  0.7818608E-02  0.1308137E+00
          3   -1    0    0  501    0  0.00000000000E+00  0.00000000000E+00  0.68200882957E+02  0.68200946366E+02  0.93000000000E-01 0. -1.
         -3   -1    0    0    0  501 -0.00000000000E+00 -0.00000000000E+00 -0.28291441310E+02  0.28291594165E+02  0.93000000000E-01 0.  1.
         23    2    1    2    0    0  0.00000000000E+00  0.00000000000E+00  0.39909441647E+02  0.96492540531E+02  0.87852415138E+02 0.  0.
        -11    1    3    3    0    0  0.34041935083E+02 -0.14159573079E+02 -0.62717744646E+01  0.37398957328E+02  0.51100000000E-03 0. -1.
         11    1    3    3    0    0 -0.34041935083E+02  0.14159573079E+02  0.46181216112E+02  0.59093583203E+02  0.51100000000E-03 0.  1.
<mgrwt>
<rscale>  0 0.87852415E+02</rscale>
<asrwt>0</asrwt>
<pdfrwt beam="1">  1        3 0.10492460E-01 0.87852415E+02</pdfrwt>
<pdfrwt beam="2">  1       -3 0.43525461E-02 0.87852415E+02</pdfrwt>
<totfact> 0.38636537E+04</totfact>
</mgrwt>
</event>
<event>
 5    1  0.7431090E-001  0.9530498E+02  0.7818608E-02  0.1290491E+00
         -3   -1    0    0    0  501 -0.00000000000E+00  0.00000000000E+00  0.30536061464E+02  0.30536203083E+02  0.93000000000E-01 0.  1.
          3   -1    0    0  501    0  0.00000000000E+00 -0.00000000000E+00 -0.74362878951E+02  0.74362937105E+02  0.93000000000E-01 0. -1.
         23    2    1    2    0    0  0.00000000000E+00  0.00000000000E+00 -0.43826817487E+02  0.10489914019E+03  0.95304982456E+02 0.  0.
        -11    1    3    3    0    0  0.34418841896E+02  0.32596327079E+02 -0.27258475303E+02  0.54682736697E+02  0.51100000000E-03 0.  1.
         11    1    3    3    0    0 -0.34418841896E+02 -0.32596327079E+02 -0.16568342184E+02  0.50216403490E+02  0.51100000000E-03 0. -1.
<mgrwt>
<rscale>  0 0.95304982E+02</rscale>
<asrwt>0</asrwt>
<pdfrwt beam="2">  1        3 0.11440458E-01 0.95304982E+02</pdfrwt>
<pdfrwt beam="1">  1       -3 0.46978710E-02 0.95304982E+02</pdfrwt>
<totfact> 0.30402603E+04</totfact>
</mgrwt>
</event>
<event>
 5    1  0.7431090E-001  0.9167181E+02  0.7818608E-02  0.1298853E+00
         -3   -1    0    0    0  501 -0.00000000000E+00  0.00000000000E+00  0.27861221242E+02  0.27861376457E+02  0.93000000000E-01 0.  1.
          3   -1    0    0  501    0  0.00000000000E+00 -0.00000000000E+00 -0.75406576820E+02  0.75406634169E+02  0.93000000000E-01 0. -1.
         23    2    1    2    0    0  0.00000000000E+00  0.00000000000E+00 -0.47545355578E+02  0.10326801063E+03  0.91671812361E+02 0.  0.
        -11    1    3    3    0    0  0.14953653514E+02 -0.15901927947E+02  0.21630138983E+02  0.30730212797E+02  0.51100000000E-03 0.  1.
         11    1    3    3    0    0 -0.14953653514E+02  0.15901927947E+02 -0.69175494561E+02  0.72537797829E+02  0.51100000000E-03 0. -1.
<mgrwt>
<rscale>  0 0.91671812E+02</rscale>
<asrwt>0</asrwt>
<pdfrwt beam="2">  1        3 0.11601028E-01 0.91671812E+02</pdfrwt>
<pdfrwt beam="1">  1       -3 0.42863581E-02 0.91671812E+02</pdfrwt>
<totfact> 0.33926146E+04</totfact>
</mgrwt>
</event>
<event>
 5    1  0.7431090E-001  0.9070076E+02  0.7818608E-02  0.1301164E+00
          3   -1    0    0  501    0  0.00000000000E+00  0.00000000000E+00  0.30130696097E+02  0.30130839622E+02  0.93000000000E-01 0. -1.
         -3   -1    0    0    0  501 -0.00000000000E+00 -0.00000000000E+00 -0.68257520822E+02  0.68257584178E+02  0.93000000000E-01 0.  1.
         23    2    1    2    0    0  0.00000000000E+00  0.00000000000E+00 -0.38126824725E+02  0.98388423800E+02  0.90700756194E+02 0.  0.
        -11    1    3    3    0    0 -0.24922463308E+02  0.11760606382E+02  0.20006208998E+02  0.34054213227E+02  0.51100000000E-03 0. -1.
         11    1    3    3    0    0  0.24922463308E+02 -0.11760606382E+02 -0.58133033724E+02  0.64334210572E+02  0.51100000000E-03 0.  1.
<mgrwt>
<rscale>  0 0.90700756E+02</rscale>
<asrwt>0</asrwt>
<pdfrwt beam="1">  1        3 0.46355076E-02 0.90700756E+02</pdfrwt>
<pdfrwt beam="2">  1       -3 0.10501173E-01 0.90700756E+02</pdfrwt>
<totfact> 0.35291090E+04</totfact>
</mgrwt>
</event>
<event>
 5    1  0.7431090E-001  0.9057929E+02  0.7818608E-02  0.1301455E+00
          3   -1    0    0  501    0  0.00000000000E+00  0.00000000000E+00  0.25397466229E+03  0.25397467931E+03  0.93000000000E-01 0. -1.
         -3   -1    0    0    0  501 -0.00000000000E+00 -0.00000000000E+00 -0.80759228520E+01  0.80764583148E+01  0.93000000000E-01 0.  1.
         23    2    1    2    0    0  0.00000000000E+00  0.00000000000E+00  0.24589873943E+03  0.26205113763E+03  0.90579294968E+02 0.  0.
        -11    1    3    3    0    0  0.35815946844E+02 -0.21788188075E+02  0.73373721142E+02  0.84505681125E+02  0.51100000000E-03 0.  1.
         11    1    3    3    0    0 -0.35815946844E+02  0.21788188075E+02  0.17252501829E+03  0.17754545650E+03  0.51100000000E-03 0. -1.
<mgrwt>
<rscale>  0 0.90579295E+02</rscale>
<asrwt>0</asrwt>
<pdfrwt beam="1">  1        3 0.39073060E-01 0.90579295E+02</pdfrwt>
<pdfrwt beam="2">  1       -3 0.12424924E-02 0.90579295E+02</pdfrwt>
<totfact> 0.26033352E+04</totfact>
</mgrwt>
</event>
<event>
 5    1  0.7431090E-001  0.9013351E+02  0.7818608E-02  0.1302529E+00
          3   -1    0    0  501    0  0.00000000000E+00  0.00000000000E+00  0.70296297761E+02  0.70296359279E+02  0.93000000000E-01 0. -1.
         -3   -1    0    0    0  501 -0.00000000000E+00 -0.00000000000E+00 -0.28892018189E+02  0.28892167867E+02  0.93000000000E-01 0.  1.
         23    2    1    2    0    0  0.00000000000E+00  0.00000000000E+00  0.41404279572E+02  0.99188527146E+02  0.90133509587E+02 0.  0.
        -11    1    3    3    0    0 -0.13022993921E+02  0.32241564029E+02 -0.10846706225E+02  0.36424824748E+02  0.51100000000E-03 0.  1.
         11    1    3    3    0    0  0.13022993921E+02 -0.32241564029E+02  0.52250985796E+02  0.62763702398E+02  0.51100000000E-03 0. -1.
<mgrwt>
<rscale>  0 0.90133510E+02</rscale>
<asrwt>0</asrwt>
<pdfrwt beam="1">  1        3 0.10814831E-01 0.90133510E+02</pdfrwt>
<pdfrwt beam="2">  1       -3 0.44449422E-02 0.90133510E+02</pdfrwt>
<totfact> 0.35834400E+04</totfact>
</mgrwt>
</event>
<event>
 5    1  0.7431090E-001  0.9227890E+02  0.7818608E-02  0.1297425E+00
          3   -1    0    0  501    0  0.00000000000E+00  0.00000000000E+00  0.22527311853E+02  0.22527503819E+02  0.93000000000E-01 0. -1.
         -3   -1    0    0    0  501 -0.00000000000E+00 -0.00000000000E+00 -0.94500181873E+02  0.94500227635E+02  0.93000000000E-01 0.  1.
         23    2    1    2    0    0  0.00000000000E+00  0.00000000000E+00 -0.71972870020E+02  0.11702773145E+03  0.92278902845E+02 0.  0.
        -11    1    3    3    0    0  0.20565864811E+02  0.40702443516E+02 -0.27090487939E+02  0.53042796312E+02  0.51100000000E-03 0.  1.
         11    1    3    3    0    0 -0.20565864811E+02 -0.40702443516E+02 -0.44882382081E+02  0.63984935142E+02  0.51100000000E-03 0. -1.
<mgrwt>
<rscale>  0 0.92278903E+02</rscale>
<asrwt>0</asrwt>
<pdfrwt beam="1">  1        3 0.34657586E-02 0.92278903E+02</pdfrwt>
<pdfrwt beam="2">  1       -3 0.14538508E-01 0.92278903E+02</pdfrwt>
<totfact> 0.32375828E+04</totfact>
</mgrwt>
</event>
<event>
 5    1  0.7431090E-001  0.9163752E+02  0.7818608E-02  0.1298934E+00
          3   -1    0    0  501    0  0.00000000000E+00  0.00000000000E+00  0.26360982086E+02  0.26361146135E+02  0.93000000000E-01 0. -1.
         -3   -1    0    0    0  501 -0.00000000000E+00 -0.00000000000E+00 -0.79638435690E+02  0.79638489992E+02  0.93000000000E-01 0.  1.
         23    2    1    2    0    0  0.00000000000E+00  0.00000000000E+00 -0.53277453604E+02  0.10599963613E+03  0.91637523955E+02 0.  0.
        -11    1    3    3    0    0  0.11291640872E+02 -0.76881090321E+01 -0.77228207532E+02  0.78427063014E+02  0.51100000000E-03 0.  1.
         11    1    3    3    0    0 -0.11291640872E+02  0.76881090321E+01  0.23950753928E+02  0.27572573113E+02  0.51100000000E-03 0. -1.
<mgrwt>
<rscale>  0 0.91637524E+02</rscale>
<asrwt>0</asrwt>
<pdfrwt beam="1">  1        3 0.40555525E-02 0.91637524E+02</pdfrwt>
<pdfrwt beam="2">  1       -3 0.12252084E-01 0.91637524E+02</pdfrwt>
<totfact> 0.33766498E+04</totfact>
</mgrwt>
</event>
<event>
 5    1  0.7431090E-001  0.8833992E+02  0.7818608E-02  0.1306922E+00
         -3   -1    0    0    0  501 -0.00000000000E+00  0.00000000000E+00  0.20894500624E+03  0.20894502693E+03  0.93000000000E-01 0.  1.
          3   -1    0    0  501    0  0.00000000000E+00 -0.00000000000E+00 -0.93370619703E+01  0.93375251131E+01  0.93000000000E-01 0. -1.
         23    2    1    2    0    0  0.00000000000E+00  0.00000000000E+00  0.19960794427E+03  0.21828255205E+03  0.88339918009E+02 0.  0.
        -11    1    3    3    0    0 -0.32739102028E+02 -0.32846009423E+01  0.26990975764E+02  0.42557610106E+02  0.51100000000E-03 0. -1.
         11    1    3    3    0    0  0.32739102028E+02  0.32846009423E+01  0.17261696850E+03  0.17572494194E+03  0.51100000000E-03 0.  1.
<mgrwt>
<rscale>  0 0.88339918E+02</rscale>
<asrwt>0</asrwt>
<pdfrwt beam="2">  1        3 0.14365083E-02 0.88339918E+02</pdfrwt>
<pdfrwt beam="1">  1       -3 0.32145423E-01 0.88339918E+02</pdfrwt>
<totfact> 0.30021987E+04</totfact>
</mgrwt>
</event>
<event>
 5    1  0.7431090E-001  0.8745007E+02  0.7818608E-02  0.1309147E+00
          3   -1    0    0  501    0  0.00000000000E+00  0.00000000000E+00  0.10164160401E+03  0.10164164656E+03  0.93000000000E-01 0. -1.
         -3   -1    0    0    0  501 -0.00000000000E+00 -0.00000000000E+00 -0.18809840644E+02  0.18810070549E+02  0.93000000000E-01 0.  1.
         23    2    1    2    0    0  0.00000000000E+00  0.00000000000E+00  0.82831763367E+02  0.12045171711E+03  0.87450072221E+02 0.  0.
        -11    1    3    3    0    0  0.24536820108E+00  0.28188321959E+02  0.87454840563E+02  0.91885748833E+02  0.51100000000E-03 0. -1.
         11    1    3    3    0    0 -0.24536820108E+00 -0.28188321959E+02 -0.46230771957E+01  0.28565968274E+02  0.51100000000E-03 0.  1.
<mgrwt>
<rscale>  0 0.87450072E+02</rscale>
<asrwt>0</asrwt>
<pdfrwt beam="1">  1        3 0.15637191E-01 0.87450072E+02</pdfrwt>
<pdfrwt beam="2">  1       -3 0.28938426E-02 0.87450072E+02</pdfrwt>
<totfact> 0.37184955E+04</totfact>
</mgrwt>
</event>
<event>
 5    1  0.7431090E-001  0.9110261E+02  0.7818608E-02  0.1300203E+00
         -3   -1    0    0    0  501 -0.00000000000E+00  0.00000000000E+00  0.83184337660E+02  0.83184389647E+02  0.93000000000E-01 0.  1.
          3   -1    0    0  501    0  0.00000000000E+00 -0.00000000000E+00 -0.24943506133E+02  0.24943679504E+02  0.93000000000E-01 0. -1.
         23    2    1    2    0    0  0.00000000000E+00  0.00000000000E+00  0.58240831527E+02  0.10812806915E+03  0.91102606338E+02 0.  0.
        -11    1    3    3    0    0 -0.24082375679E+02  0.11392582215E+02  0.72973579456E+02  0.77684586932E+02  0.51100000000E-03 0.  1.
         11    1    3    3    0    0  0.24082375679E+02 -0.11392582215E+02 -0.14732747929E+02  0.30443482220E+02  0.51100000000E-03 0. -1.
<mgrwt>
<rscale>  0 0.91102606E+02</rscale>
<asrwt>0</asrwt>
<pdfrwt beam="2">  1        3 0.38374799E-02 0.91102606E+02</pdfrwt>
<pdfrwt beam="1">  1       -3 0.12797608E-01 0.91102606E+02</pdfrwt>
<totfact> 0.34156000E+04</totfact>
</mgrwt>
</event>
<event>
 5    1  0.7431090E-001  0.9018526E+02  0.7818608E-02  0.1302404E+00
         -3   -1    0    0    0  501 -0.00000000000E+00  0.00000000000E+00  0.12529575141E+02  0.12529920280E+02  0.93000000000E-01 0.  1.
          3   -1    0    0  501    0  0.00000000000E+00 -0.00000000000E+00 -0.16228106546E+03  0.16228109211E+03  0.93000000000E-01 0. -1.
         23    2    1    2    0    0  0.00000000000E+00  0.00000000000E+00 -0.14975149032E+03  0.17481101239E+03  0.90185260434E+02 0.  0.
        -11    1    3    3    0    0  0.42814027947E+02 -0.28635442755E+01 -0.10174167698E+03  0.11042015083E+03  0.51100000000E-03 0. -1.
         11    1    3    3    0    0 -0.42814027947E+02  0.28635442755E+01 -0.48009813341E+02  0.64390861558E+02  0.51100000000E-03 0.  1.
<mgrwt>
<rscale>  0 0.90185260E+02</rscale>
<asrwt>0</asrwt>
<pdfrwt beam="2">  1        3 0.24966345E-01 0.90185260E+02</pdfrwt>
<pdfrwt beam="1">  1       -3 0.19276557E-02 0.90185260E+02</pdfrwt>
<totfact> 0.30748303E+04</totfact>
</mgrwt>
</event>
<event>
 5    1  0.7431090E-001  0.6947151E+02  0.7818608E-02  0.1361899E+00
         -3   -1    0    0    0  501 -0.00000000000E+00  0.00000000000E+00  0.11908525500E+02  0.11908888638E+02  0.93000000000E-01 0. -1.
          3   -1    0    0  501    0  0.00000000000E+00 -0.00000000000E+00 -0.10131814680E+03  0.10131818948E+03  0.93000000000E-01 0.  1.
         23    2    1    2    0    0  0.00000000000E+00  0.00000000000E+00 -0.89409621295E+02  0.11322707812E+03  0.69471510985E+02 0.  0.
        -11    1    3    3    0    0  0.29701575232E+02 -0.10673899869E+02 -0.21060576968E+02  0.37942899364E+02  0.51100000000E-03 0.  1.
         11    1    3    3    0    0 -0.29701575232E+02  0.10673899869E+02 -0.68349044326E+02  0.75284178751E+02  0.51100000000E-03 0. -1.
<mgrwt>
<rscale>  0 0.69471511E+02</rscale>
<asrwt>0</asrwt>
<pdfrwt beam="2">  1        3 0.15587438E-01 0.69471511E+02</pdfrwt>
<pdfrwt beam="1">  1       -3 0.18321121E-02 0.69471511E+02</pdfrwt>
<totfact> 0.69673648E+04</totfact>
</mgrwt>
</event>
<event>
 5    1  0.7431090E-001  0.8964275E+02  0.7818608E-02  0.1303719E+00
          3   -1    0    0  501    0  0.00000000000E+00  0.00000000000E+00  0.56026325113E+02  0.56026402300E+02  0.93000000000E-01 0. -1.
         -3   -1    0    0    0  501 -0.00000000000E+00 -0.00000000000E+00 -0.35857190017E+02  0.35857310620E+02  0.93000000000E-01 0.  1.
         23    2    1    2    0    0  0.00000000000E+00  0.00000000000E+00  0.20169135096E+02  0.91883712920E+02  0.89642750345E+02 0.  0.
        -11    1    3    3    0    0  0.30482746686E+02  0.19907001846E+01  0.43703824616E+02  0.53321524914E+02  0.51100000000E-03 0.  1.
         11    1    3    3    0    0 -0.30482746686E+02 -0.19907001846E+01 -0.23534689520E+02  0.38562188006E+02  0.51100000000E-03 0. -1.
<mgrwt>
<rscale>  0 0.89642750E+02</rscale>
<asrwt>0</asrwt>
<pdfrwt beam="1">  1        3 0.86194498E-02 0.89642750E+02</pdfrwt>
<pdfrwt beam="2">  1       -3 0.55165060E-02 0.89642750E+02</pdfrwt>
<totfact> 0.36949638E+04</totfact>
</mgrwt>
</event>
<event>
 5    1  0.7431090E-001  0.8933738E+02  0.7818608E-02  0.1304464E+00
          3   -1    0    0  501    0  0.00000000000E+00  0.00000000000E+00  0.67317120060E+01  0.67323543825E+01  0.93000000000E-01 0. -1.
         -3   -1    0    0    0  501 -0.00000000000E+00 -0.00000000000E+00 -0.29638703748E+03  0.29638705207E+03  0.93000000000E-01 0.  1.
         23    2    1    2    0    0  0.00000000000E+00  0.00000000000E+00 -0.28965532547E+03  0.30311940645E+03  0.89337377357E+02 0.  0.
        -11    1    3    3    0    0  0.37172802973E+02 -0.14167869646E+02 -0.21375983208E+03  0.21743001546E+03  0.51100000000E-03 0.  1.
         11    1    3    3    0    0 -0.37172802973E+02  0.14167869646E+02 -0.75895493393E+02  0.85689390993E+02  0.51100000000E-03 0. -1.
<mgrwt>
<rscale>  0 0.89337377E+02</rscale>
<asrwt>0</asrwt>
<pdfrwt beam="1">  1        3 0.10356988E-02 0.89337377E+02</pdfrwt>
<pdfrwt beam="2">  1       -3 0.45598046E-01 0.89337377E+02</pdfrwt>
<totfact> 0.25243637E+04</totfact>
</mgrwt>
</event>
<event>
 5    1  0.7431090E-001  0.9269890E+02  0.7818608E-02  0.1296444E+00
         -3   -1    0    0    0  501 -0.00000000000E+00  0.00000000000E+00  0.17247184420E+02  0.17247435155E+02  0.93000000000E-01 0.  1.
          3   -1    0    0  501    0  0.00000000000E+00 -0.00000000000E+00 -0.12455663452E+03  0.12455666923E+03  0.93000000000E-01 0. -1.
         23    2    1    2    0    0  0.00000000000E+00  0.00000000000E+00 -0.10730945009E+03  0.14180410439E+03  0.92698899357E+02 0.  0.
        -11    1    3    3    0    0  0.60385737455E+01  0.42744132992E+02 -0.27841444732E+02  0.51367999018E+02  0.51100000000E-03 0.  1.
         11    1    3    3    0    0 -0.60385737455E+01 -0.42744132992E+02 -0.79468005363E+02  0.90436105371E+02  0.51100000000E-03 0. -1.
<mgrwt>
<rscale>  0 0.92698899E+02</rscale>
<asrwt>0</asrwt>
<pdfrwt beam="2">  1        3 0.19162581E-01 0.92698899E+02</pdfrwt>
<pdfrwt beam="1">  1       -3 0.26534350E-02 0.92698899E+02</pdfrwt>
<totfact> 0.30416792E+04</totfact>
</mgrwt>
</event>
<event>
 5    1  0.7431090E-001  0.8237190E+02  0.7818608E-02  0.1322452E+00
         -3   -1    0    0    0  501 -0.00000000000E+00  0.00000000000E+00  0.17754136531E+02  0.17754380107E+02  0.93000000000E-01 0. -1.
          3   -1    0    0  501    0  0.00000000000E+00 -0.00000000000E+00 -0.95542027369E+02  0.95542072632E+02  0.93000000000E-01 0.  1.
         23    2    1    2    0    0  0.00000000000E+00  0.00000000000E+00 -0.77787890838E+02  0.11329645274E+03  0.82371902018E+02 0.  0.
        -11    1    3    3    0    0 -0.22471666630E+01  0.39505047773E+02 -0.54611399732E+02  0.67439628843E+02  0.51100000000E-03 0.  1.
         11    1    3    3    0    0  0.22471666630E+01 -0.39505047773E+02 -0.23176491106E+02  0.45856823895E+02  0.51100000000E-03 0. -1.
<mgrwt>
<rscale>  0 0.82371902E+02</rscale>
<asrwt>0</asrwt>
<pdfrwt beam="2">  1        3 0.14698795E-01 0.82371902E+02</pdfrwt>
<pdfrwt beam="1">  1       -3 0.27314279E-02 0.82371902E+02</pdfrwt>
<totfact> 0.44336711E+04</totfact>
</mgrwt>
</event>
<event>
 5    1  0.7431090E-001  0.8618340E+02  0.7818608E-02  0.1312367E+00
          3   -1    0    0  501    0  0.00000000000E+00  0.00000000000E+00  0.73209466532E+01  0.73215373317E+01  0.93000000000E-01 0. -1.
         -3   -1    0    0    0  501 -0.00000000000E+00 -0.00000000000E+00 -0.25363050604E+03  0.25363052309E+03  0.93000000000E-01 0.  1.
         23    2    1    2    0    0  0.00000000000E+00  0.00000000000E+00 -0.24630955939E+03  0.26095206043E+03  0.86183402075E+02 0.  0.
        -11    1    3    3    0    0  0.73848849059E+01  0.41177411508E+02 -0.15444293284E+03  0.16000854742E+03  0.51100000000E-03 0. -1.
         11    1    3    3    0    0 -0.73848849059E+01 -0.41177411508E+02 -0.91866626552E+02  0.10094351301E+03  0.51100000000E-03 0.  1.
<mgrwt>
<rscale>  0 0.86183402E+02</rscale>
<asrwt>0</asrwt>
<pdfrwt beam="1">  1        3 0.11263464E-02 0.86183402E+02</pdfrwt>
<pdfrwt beam="2">  1       -3 0.39020118E-01 0.86183402E+02</pdfrwt>
<totfact> 0.29788500E+04</totfact>
</mgrwt>
</event>
<event>
 5    1  0.7431090E-001  0.9014504E+02  0.7818608E-02  0.1302501E+00
         -3   -1    0    0    0  501 -0.00000000000E+00  0.00000000000E+00  0.49005088404E+02  0.49005176650E+02  0.93000000000E-01 0.  1.
          3   -1    0    0  501    0  0.00000000000E+00 -0.00000000000E+00 -0.41455354412E+02  0.41455458729E+02  0.93000000000E-01 0. -1.
         23    2    1    2    0    0  0.00000000000E+00  0.00000000000E+00  0.75497339915E+01  0.90460635379E+02  0.90145039075E+02 0.  0.
        -11    1    3    3    0    0 -0.48260325416E+01  0.29758603179E+02  0.37398394497E+02  0.48036496172E+02  0.51100000000E-03 0.  1.
         11    1    3    3    0    0  0.48260325416E+01 -0.29758603179E+02 -0.29848660505E+02  0.42424139207E+02  0.51100000000E-03 0. -1.
<mgrwt>
<rscale>  0 0.90145039E+02</rscale>
<asrwt>0</asrwt>
<pdfrwt beam="2">  1        3 0.63777617E-02 0.90145039E+02</pdfrwt>
<pdfrwt beam="1">  1       -3 0.75392592E-02 0.90145039E+02</pdfrwt>
<totfact> 0.36506890E+04</totfact>
</mgrwt>
</event>
<event>
 5    1  0.7431090E-001  0.9104205E+02  0.7818608E-02  0.1300348E+00
         -3   -1    0    0    0  501 -0.00000000000E+00  0.00000000000E+00  0.26590124317E+02  0.26590286952E+02  0.93000000000E-01 0.  1.
          3   -1    0    0  501    0  0.00000000000E+00 -0.00000000000E+00 -0.77929404015E+02  0.77929459508E+02  0.93000000000E-01 0. -1.
         23    2    1    2    0    0  0.00000000000E+00  0.00000000000E+00 -0.51339279699E+02  0.10451974646E+03  0.91042054897E+02 0.  0.
        -11    1    3    3    0    0 -0.42706631250E+00  0.39980613817E+02 -0.68742173162E+00  0.39988803629E+02  0.51100000000E-03 0.  1.
         11    1    3    3    0    0  0.42706631250E+00 -0.39980613817E+02 -0.50651857967E+02  0.64530942830E+02  0.51100000000E-03 0. -1.
<mgrwt>
<rscale>  0 0.91042055E+02</rscale>
<asrwt>0</asrwt>
<pdfrwt beam="2">  1        3 0.11989156E-01 0.91042055E+02</pdfrwt>
<pdfrwt beam="1">  1       -3 0.40908052E-02 0.91042055E+02</pdfrwt>
<totfact> 0.34477923E+04</totfact>
</mgrwt>
</event>
<event>
 5    1  0.7431090E-001  0.9088827E+02  0.7818608E-02  0.1300715E+00
         -3   -1    0    0    0  501 -0.00000000000E+00  0.00000000000E+00  0.15115041699E+03  0.15115044560E+03  0.93000000000E-01 0.  1.
          3   -1    0    0  501    0  0.00000000000E+00 -0.00000000000E+00 -0.13662821401E+02  0.13663137913E+02  0.93000000000E-01 0. -1.
         23    2    1    2    0    0  0.00000000000E+00  0.00000000000E+00  0.13748759559E+03  0.16481358352E+03  0.90888274106E+02 0.  0.
        -11    1    3    3    0    0 -0.18848178488E+02  0.33913230980E+02  0.11164850073E+03  0.11819792208E+03  0.51100000000E-03 0.  1.
         11    1    3    3    0    0  0.18848178488E+02 -0.33913230980E+02  0.25839094860E+02  0.46615661438E+02  0.51100000000E-03 0. -1.
<mgrwt>
<rscale>  0 0.90888274E+02</rscale>
<asrwt>0</asrwt>
<pdfrwt beam="2">  1        3 0.21019990E-02 0.90888274E+02</pdfrwt>
<pdfrwt beam="1">  1       -3 0.23253938E-01 0.90888274E+02</pdfrwt>
<totfact> 0.30687142E+04</totfact>
</mgrwt>
</event>
<event>
 5    1  0.7431090E-001  0.9082321E+02  0.7818608E-02  0.1300870E+00
          3   -1    0    0  501    0  0.00000000000E+00  0.00000000000E+00  0.23981523507E+02  0.23981703833E+02  0.93000000000E-01 0. -1.
         -3   -1    0    0    0  501 -0.00000000000E+00 -0.00000000000E+00 -0.85991247914E+02  0.85991298204E+02  0.93000000000E-01 0.  1.
         23    2    1    2    0    0  0.00000000000E+00  0.00000000000E+00 -0.62009724407E+02  0.10997300204E+03  0.90823208796E+02 0.  0.
        -11    1    3    3    0    0 -0.33648857246E+02  0.24276576952E+01  0.58031851124E+01  0.34231799158E+02  0.51100000000E-03 0. -1.
         11    1    3    3    0    0  0.33648857246E+02 -0.24276576952E+01 -0.67812909519E+02  0.75741202879E+02  0.51100000000E-03 0.  1.
<mgrwt>
<rscale>  0 0.90823209E+02</rscale>
<asrwt>0</asrwt>
<pdfrwt beam="1">  1        3 0.36894829E-02 0.90823209E+02</pdfrwt>
<pdfrwt beam="2">  1       -3 0.13229440E-01 0.90823209E+02</pdfrwt>
<totfact> 0.34308648E+04</totfact>
</mgrwt>
</event>
<event>
 5    1  0.7431090E-001  0.9196319E+02  0.7818608E-02  0.1298166E+00
          3   -1    0    0  501    0  0.00000000000E+00  0.00000000000E+00  0.42620539006E+02  0.42620640471E+02  0.93000000000E-01 0. -1.
         -3   -1    0    0    0  501 -0.00000000000E+00 -0.00000000000E+00 -0.49607504100E+02  0.49607591274E+02  0.93000000000E-01 0.  1.
         23    2    1    2    0    0  0.00000000000E+00  0.00000000000E+00 -0.69869650944E+01  0.92228231745E+02  0.91963193994E+02 0.  0.
        -11    1    3    3    0    0 -0.25426631588E+02  0.21158984764E+02  0.28537429173E+02  0.43687539347E+02  0.51100000000E-03 0. -1.
         11    1    3    3    0    0  0.25426631588E+02 -0.21158984764E+02 -0.35524394268E+02  0.48540692398E+02  0.51100000000E-03 0.  1.
<mgrwt>
<rscale>  0 0.91963194E+02</rscale>
<asrwt>0</asrwt>
<pdfrwt beam="1">  1        3 0.65570205E-02 0.91963194E+02</pdfrwt>
<pdfrwt beam="2">  1       -3 0.76319382E-02 0.91963194E+02</pdfrwt>
<totfact> 0.34441058E+04</totfact>
</mgrwt>
</event>
<event>
 5    1  0.7431090E-001  0.9341423E+02  0.7818608E-02  0.1294788E+00
         -3   -1    0    0    0  501 -0.00000000000E+00  0.00000000000E+00  0.19554993516E+02  0.19555214661E+02  0.93000000000E-01 0.  1.
          3   -1    0    0  501    0  0.00000000000E+00 -0.00000000000E+00 -0.11155911415E+03  0.11155915291E+03  0.93000000000E-01 0. -1.
         23    2    1    2    0    0  0.00000000000E+00  0.00000000000E+00 -0.92004120633E+02  0.13111436757E+03  0.93414234305E+02 0.  0.
        -11    1    3    3    0    0 -0.97790047263E+01 -0.26229381369E+02  0.64765508102E+01  0.28732474504E+02  0.51100000000E-03 0.  1.
         11    1    3    3    0    0  0.97790047263E+01  0.26229381369E+02 -0.98480671443E+02  0.10238189307E+03  0.51100000000E-03 0. -1.
<mgrwt>
<rscale>  0 0.93414234E+02</rscale>
<asrwt>0</asrwt>
<pdfrwt beam="2">  1        3 0.17162960E-01 0.93414234E+02</pdfrwt>
<pdfrwt beam="1">  1       -3 0.30084806E-02 0.93414234E+02</pdfrwt>
<totfact> 0.30427974E+04</totfact>
</mgrwt>
</event>
<event>
 5    1  0.7431090E-001  0.9038780E+02  0.7818608E-02  0.1301915E+00
          3   -1    0    0  501    0  0.00000000000E+00  0.00000000000E+00  0.12641168430E+03  0.12641171851E+03  0.93000000000E-01 0. -1.
         -3   -1    0    0    0  501 -0.00000000000E+00 -0.00000000000E+00 -0.16157265469E+02  0.16157533117E+02  0.93000000000E-01 0.  1.
         23    2    1    2    0    0  0.00000000000E+00  0.00000000000E+00  0.11025441883E+03  0.14256925163E+03  0.90387801376E+02 0.  0.
        -11    1    3    3    0    0  0.24331248909E+02 -0.24439116781E+01 -0.48209377349E+01  0.24924361951E+02  0.51100000000E-03 0.  1.
         11    1    3    3    0    0 -0.24331248909E+02  0.24439116781E+01  0.11507535657E+03  0.11764488968E+03  0.51100000000E-03 0. -1.
<mgrwt>
<rscale>  0 0.90387801E+02</rscale>
<asrwt>0</asrwt>
<pdfrwt beam="1">  1        3 0.19447975E-01 0.90387801E+02</pdfrwt>
<pdfrwt beam="2">  1       -3 0.24857564E-02 0.90387801E+02</pdfrwt>
<totfact> 0.32523662E+04</totfact>
</mgrwt>
</event>
<event>
 5    1  0.7431090E-001  0.9047829E+02  0.7818608E-02  0.1301698E+00
         -3   -1    0    0    0  501 -0.00000000000E+00  0.00000000000E+00  0.52763599521E+01  0.52771794876E+01  0.93000000000E-01 0.  1.
          3   -1    0    0  501    0  0.00000000000E+00 -0.00000000000E+00 -0.38784632262E+03  0.38784633377E+03  0.93000000000E-01 0. -1.
         23    2    1    2    0    0  0.00000000000E+00  0.00000000000E+00 -0.38256996266E+03  0.39312351325E+03  0.90478286568E+02 0.  0.
        -11    1    3    3    0    0 -0.26530541712E+02  0.34099399356E+02 -0.24956909630E+03  0.25328121231E+03  0.51100000000E-03 0. -1.
         11    1    3    3    0    0  0.26530541712E+02 -0.34099399356E+02 -0.13300086637E+03  0.13984230095E+03  0.51100000000E-03 0.  1.
<mgrwt>
<rscale>  0 0.90478287E+02</rscale>
<asrwt>0</asrwt>
<pdfrwt beam="2">  1        3 0.59668707E-01 0.90478287E+02</pdfrwt>
<pdfrwt beam="1">  1       -3 0.81181189E-03 0.90478287E+02</pdfrwt>
<totfact> 0.21256336E+04</totfact>
</mgrwt>
</event>
<event>
 5    1  0.7431090E-001  0.9025886E+02  0.7818608E-02  0.1302226E+00
          3   -1    0    0  501    0  0.00000000000E+00  0.00000000000E+00  0.28322031783E+03  0.28322033310E+03  0.93000000000E-01 0. -1.
         -3   -1    0    0    0  501 -0.00000000000E+00 -0.00000000000E+00 -0.71907828587E+01  0.71913842284E+01  0.93000000000E-01 0.  1.
         23    2    1    2    0    0  0.00000000000E+00  0.00000000000E+00  0.27602953498E+03  0.29041171733E+03  0.90258857652E+02 0.  0.
        -11    1    3    3    0    0 -0.40547536561E+02 -0.18401976584E+02  0.11438611041E+03  0.12274737357E+03  0.51100000000E-03 0.  1.
         11    1    3    3    0    0  0.40547536561E+02  0.18401976584E+02  0.16164342457E+03  0.16766434376E+03  0.51100000000E-03 0. -1.
<mgrwt>
<rscale>  0 0.90258858E+02</rscale>
<asrwt>0</asrwt>
<pdfrwt beam="1">  1        3 0.43572409E-01 0.90258858E+02</pdfrwt>
<pdfrwt beam="2">  1       -3 0.11063216E-02 0.90258858E+02</pdfrwt>
<totfact> 0.25078101E+04</totfact>
</mgrwt>
</event>
<event>
 5    1  0.7431090E-001  0.9084678E+02  0.7818608E-02  0.1300814E+00
          3   -1    0    0  501    0  0.00000000000E+00  0.00000000000E+00  0.28278816073E+02  0.28278968996E+02  0.93000000000E-01 0. -1.
         -3   -1    0    0    0  501 -0.00000000000E+00 -0.00000000000E+00 -0.72961812661E+02  0.72961871932E+02  0.93000000000E-01 0.  1.
         23    2    1    2    0    0  0.00000000000E+00  0.00000000000E+00 -0.44682996588E+02  0.10124084093E+03  0.90846781383E+02 0.  0.
        -11    1    3    3    0    0  0.33965139057E+02 -0.46382339991E+01  0.10869891107E+02  0.35962458463E+02  0.51100000000E-03 0. -1.
         11    1    3    3    0    0 -0.33965139057E+02  0.46382339991E+01 -0.55552887694E+02  0.65278382465E+02  0.51100000000E-03 0.  1.
<mgrwt>
<rscale>  0 0.90846781E+02</rscale>
<asrwt>0</asrwt>
<pdfrwt beam="1">  1        3 0.43506034E-02 0.90846781E+02</pdfrwt>
<pdfrwt beam="2">  1       -3 0.11224910E-01 0.90846781E+02</pdfrwt>
<totfact> 0.34923625E+04</totfact>
</mgrwt>
</event>
<event>
 5    1  0.7431090E-001  0.8923671E+02  0.7818608E-02  0.1304711E+00
          3   -1    0    0  501    0  0.00000000000E+00  0.00000000000E+00  0.87604067608E+02  0.87604116972E+02  0.93000000000E-01 0. -1.
         -3   -1    0    0    0  501 -0.00000000000E+00 -0.00000000000E+00 -0.22724793764E+02  0.22724984062E+02  0.93000000000E-01 0.  1.
         23    2    1    2    0    0  0.00000000000E+00  0.00000000000E+00  0.64879273844E+02  0.11032910103E+03  0.89236709713E+02 0.  0.
        -11    1    3    3    0    0 -0.38337033811E+02  0.20940187437E+02  0.21204492631E+02  0.48557698868E+02  0.51100000000E-03 0. -1.
         11    1    3    3    0    0  0.38337033811E+02 -0.20940187437E+02  0.43674781213E+02  0.61771402166E+02  0.51100000000E-03 0.  1.
<mgrwt>
<rscale>  0 0.89236710E+02</rscale>
<asrwt>0</asrwt>
<pdfrwt beam="1">  1        3 0.13477567E-01 0.89236710E+02</pdfrwt>
<pdfrwt beam="2">  1       -3 0.34961406E-02 0.89236710E+02</pdfrwt>
<totfact> 0.35957841E+04</totfact>
</mgrwt>
</event>
<event>
 5    1  0.7431090E-001  0.9143657E+02  0.7818608E-02  0.1299410E+00
         -3   -1    0    0    0  501 -0.00000000000E+00  0.00000000000E+00  0.19076753633E+02  0.19076980321E+02  0.93000000000E-01 0.  1.
          3   -1    0    0  501    0  0.00000000000E+00 -0.00000000000E+00 -0.10956500173E+03  0.10956504120E+03  0.93000000000E-01 0. -1.
         23    2    1    2    0    0  0.00000000000E+00  0.00000000000E+00 -0.90488248098E+02  0.12864202152E+03  0.91436571772E+02 0.  0.
        -11    1    3    3    0    0  0.32230268152E+02 -0.23816189851E+02 -0.14287211904E+02  0.42545569786E+02  0.51100000000E-03 0.  1.
         11    1    3    3    0    0 -0.32230268152E+02  0.23816189851E+02 -0.76201036194E+02  0.86096451736E+02  0.51100000000E-03 0. -1.
<mgrwt>
<rscale>  0 0.91436572E+02</rscale>
<asrwt>0</asrwt>
<pdfrwt beam="2">  1        3 0.16856174E-01 0.91436572E+02</pdfrwt>
<pdfrwt beam="1">  1       -3 0.29349057E-02 0.91436572E+02</pdfrwt>
<totfact> 0.32413808E+04</totfact>
</mgrwt>
</event>
<event>
 5    1  0.7431090E-001  0.9088043E+02  0.7818608E-02  0.1300734E+00
         -3   -1    0    0    0  501 -0.00000000000E+00  0.00000000000E+00  0.70006403275E+02  0.70006465048E+02  0.93000000000E-01 0.  1.
          3   -1    0    0  501    0  0.00000000000E+00 -0.00000000000E+00 -0.29494485942E+02  0.29494632562E+02  0.93000000000E-01 0. -1.
         23    2    1    2    0    0  0.00000000000E+00  0.00000000000E+00  0.40511917333E+02  0.99501097610E+02  0.90880432325E+02 0.  0.
        -11    1    3    3    0    0 -0.37869084558E+02 -0.84535803710E+01  0.46148409715E+02  0.60292672074E+02  0.51100000000E-03 0.  1.
         11    1    3    3    0    0  0.37869084558E+02  0.84535803710E+01 -0.56364923820E+01  0.39208425536E+02  0.51100000000E-03 0. -1.
<mgrwt>
<rscale>  0 0.90880432E+02</rscale>
<asrwt>0</asrwt>
<pdfrwt beam="2">  1        3 0.45376293E-02 0.90880432E+02</pdfrwt>
<pdfrwt beam="1">  1       -3 0.10770232E-01 0.90880432E+02</pdfrwt>
<totfact> 0.35018313E+04</totfact>
</mgrwt>
</event>
<event>
 5    1  0.7431090E-001  0.9411093E+02  0.7818608E-02  0.1293191E+00
          3   -1    0    0  501    0  0.00000000000E+00  0.00000000000E+00  0.55300426307E+01  0.55308245766E+01  0.93000000000E-01 0. -1.
         -3   -1    0    0    0  501 -0.00000000000E+00 -0.00000000000E+00 -0.40036865966E+03  0.40036867047E+03  0.93000000000E-01 0.  1.
         23    2    1    2    0    0  0.00000000000E+00  0.00000000000E+00 -0.39483861703E+03  0.40589949504E+03  0.94110926967E+02 0.  0.
        -11    1    3    3    0    0 -0.38006902319E+02  0.27738045270E+02 -0.19508525141E+03  0.20067929414E+03  0.51100000000E-03 0.  1.
         11    1    3    3    0    0  0.38006902319E+02 -0.27738045270E+02 -0.19975336563E+03  0.20522020090E+03  0.51100000000E-03 0. -1.
<mgrwt>
<rscale>  0 0.94110927E+02</rscale>
<asrwt>0</asrwt>
<pdfrwt beam="1">  1        3 0.85083709E-03 0.94110927E+02</pdfrwt>
<pdfrwt beam="2">  1       -3 0.61595216E-01 0.94110927E+02</pdfrwt>
<totfact> 0.18759638E+04</totfact>
</mgrwt>
</event>
<event>
 5    1  0.7431090E-001  0.9041405E+02  0.7818608E-02  0.1301852E+00
          3   -1    0    0  501    0  0.00000000000E+00  0.00000000000E+00  0.37161512802E+02  0.37161629173E+02  0.93000000000E-01 0. -1.
         -3   -1    0    0    0  501 -0.00000000000E+00 -0.00000000000E+00 -0.54994160802E+02  0.54994239438E+02  0.93000000000E-01 0.  1.
         23    2    1    2    0    0  0.00000000000E+00  0.00000000000E+00 -0.17832648000E+02  0.92155868611E+02  0.90414051921E+02 0.  0.
        -11    1    3    3    0    0  0.71348500859E+01 -0.35283356452E+02 -0.36790076292E+02  0.51471652802E+02  0.51100000000E-03 0.  1.
         11    1    3    3    0    0 -0.71348500859E+01  0.35283356452E+02  0.18957428292E+02  0.40684215809E+02  0.51100000000E-03 0. -1.
<mgrwt>
<rscale>  0 0.90414052E+02</rscale>
<asrwt>0</asrwt>
<pdfrwt beam="1">  1        3 0.57171708E-02 0.90414052E+02</pdfrwt>
<pdfrwt beam="2">  1       -3 0.84606551E-02 0.90414052E+02</pdfrwt>
<totfact> 0.36079285E+04</totfact>
</mgrwt>
</event>
<event>
 5    1  0.7431090E-001  0.9056229E+02  0.7818608E-02  0.1301496E+00
          3   -1    0    0  501    0  0.00000000000E+00  0.00000000000E+00  0.82104296217E+02  0.82104348887E+02  0.93000000000E-01 0. -1.
         -3   -1    0    0    0  501 -0.00000000000E+00 -0.00000000000E+00 -0.24972748595E+02  0.24972921763E+02  0.93000000000E-01 0.  1.
         23    2    1    2    0    0  0.00000000000E+00  0.00000000000E+00  0.57131547621E+02  0.10707727065E+03  0.90562288821E+02 0.  0.
        -11    1    3    3    0    0 -0.11516710172E+02  0.40572714114E+02  0.90800465120E+01  0.43141940020E+02  0.51100000000E-03 0.  1.
         11    1    3    3    0    0  0.11516710172E+02 -0.40572714114E+02  0.48051501109E+02  0.63935330631E+02  0.51100000000E-03 0. -1.
<mgrwt>
<rscale>  0 0.90562289E+02</rscale>
<asrwt>0</asrwt>
<pdfrwt beam="1">  1        3 0.12631447E-01 0.90562289E+02</pdfrwt>
<pdfrwt beam="2">  1       -3 0.38419787E-02 0.90562289E+02</pdfrwt>
<totfact> 0.34787191E+04</totfact>
</mgrwt>
</event>
<event>
 5    1  0.7431090E-001  0.7869733E+02  0.7818608E-02  0.1332789E+00
          3   -1    0    0  501    0  0.00000000000E+00  0.00000000000E+00  0.55190155524E+02  0.55190233880E+02  0.93000000000E-01 0.  1.
         -3   -1    0    0    0  501 -0.00000000000E+00 -0.00000000000E+00 -0.28054059125E+02  0.28054213273E+02  0.93000000000E-01 0. -1.
         23    2    1    2    0    0  0.00000000000E+00  0.00000000000E+00  0.27136096399E+02  0.83244447154E+02  0.78697333209E+02 0.  0.
        -11    1    3    3    0    0 -0.38026905067E+02  0.99559956079E+01  0.11690614027E+02  0.41010215973E+02  0.51100000000E-03 0.  1.
         11    1    3    3    0    0  0.38026905067E+02 -0.99559956079E+01  0.15445482372E+02  0.42234231181E+02  0.51100000000E-03 0. -1.
<mgrwt>
<rscale>  0 0.78697333E+02</rscale>
<asrwt>0</asrwt>
<pdfrwt beam="1">  1        3 0.84908109E-02 0.78697333E+02</pdfrwt>
<pdfrwt beam="2">  1       -3 0.43160270E-02 0.78697333E+02</pdfrwt>
<totfact> 0.53513591E+04</totfact>
</mgrwt>
</event>
<event>
 5    1  0.7431090E-001  0.9025568E+02  0.7818608E-02  0.1302234E+00
         -3   -1    0    0    0  501 -0.00000000000E+00  0.00000000000E+00  0.81930868676E+02  0.81930921458E+02  0.93000000000E-01 0.  1.
          3   -1    0    0  501    0  0.00000000000E+00 -0.00000000000E+00 -0.24856439702E+02  0.24856613681E+02  0.93000000000E-01 0. -1.
         23    2    1    2    0    0  0.00000000000E+00  0.00000000000E+00  0.57074428973E+02  0.10678753514E+03  0.90255676932E+02 0.  0.
        -11    1    3    3    0    0  0.28051381508E+02 -0.39746865558E+01 -0.13022839452E+02  0.31181284216E+02  0.51100000000E-03 0.  1.
         11    1    3    3    0    0 -0.28051381508E+02  0.39746865558E+01  0.70097268425E+02  0.75606250923E+02  0.51100000000E-03 0. -1.
<mgrwt>
<rscale>  0 0.90255677E+02</rscale>
<asrwt>0</asrwt>
<pdfrwt beam="2">  1        3 0.38240850E-02 0.90255677E+02</pdfrwt>
<pdfrwt beam="1">  1       -3 0.12604767E-01 0.90255677E+02</pdfrwt>
<totfact> 0.35131791E+04</totfact>
</mgrwt>
</event>
<event>
 5    1  0.7431090E-001  0.9086885E+02  0.7818608E-02  0.1300761E+00
         -3   -1    0    0    0  501 -0.00000000000E+00  0.00000000000E+00  0.43617891628E+02  0.43617990773E+02  0.93000000000E-01 0.  1.
          3   -1    0    0  501    0  0.00000000000E+00 -0.00000000000E+00 -0.47326414191E+02  0.47326505567E+02  0.93000000000E-01 0. -1.
         23    2    1    2    0    0  0.00000000000E+00  0.00000000000E+00 -0.37085225623E+01  0.90944496340E+02  0.90868852061E+02 0.  0.
        -11    1    3    3    0    0  0.23904312049E+01 -0.29235048948E+02 -0.36580188419E+02  0.46888297403E+02  0.51100000000E-03 0. -1.
         11    1    3    3    0    0 -0.23904312049E+01  0.29235048948E+02  0.32871665857E+02  0.44056198937E+02  0.51100000000E-03 0.  1.
<mgrwt>
<rscale>  0 0.90868852E+02</rscale>
<asrwt>0</asrwt>
<pdfrwt beam="2">  1        3 0.72810015E-02 0.90868852E+02</pdfrwt>
<pdfrwt beam="1">  1       -3 0.67104595E-02 0.90868852E+02</pdfrwt>
<totfact> 0.35683836E+04</totfact>
</mgrwt>
</event>
<event>
 5    1  0.7431090E-001  0.9015577E+02  0.7818608E-02  0.1302475E+00
         -3   -1    0    0    0  501 -0.00000000000E+00  0.00000000000E+00  0.26062824332E+02  0.26062990258E+02  0.93000000000E-01 0.  1.
          3   -1    0    0  501    0  0.00000000000E+00 -0.00000000000E+00 -0.77965620991E+02  0.77965676457E+02  0.93000000000E-01 0. -1.
         23    2    1    2    0    0  0.00000000000E+00  0.00000000000E+00 -0.51902796658E+02  0.10402866672E+03  0.90155771849E+02 0.  0.
        -11    1    3    3    0    0  0.13261209219E+02 -0.42238172220E+02 -0.35748685885E+02  0.56902472751E+02  0.51100000000E-03 0. -1.
         11    1    3    3    0    0 -0.13261209219E+02  0.42238172220E+02 -0.16154110773E+02  0.47126193964E+02  0.51100000000E-03 0.  1.
<mgrwt>
<rscale>  0 0.90155772E+02</rscale>
<asrwt>0</asrwt>
<pdfrwt beam="2">  1        3 0.11994728E-01 0.90155772E+02</pdfrwt>
<pdfrwt beam="1">  1       -3 0.40096824E-02 0.90155772E+02</pdfrwt>
<totfact> 0.35442239E+04</totfact>
</mgrwt>
</event>
<event>
 5    1  0.7431090E-001  0.9576381E+02  0.7818608E-02  0.1289465E+00
         -3   -1    0    0    0  501 -0.00000000000E+00  0.00000000000E+00  0.87915470666E+01  0.87920389458E+01  0.93000000000E-01 0.  1.
          3   -1    0    0  501    0  0.00000000000E+00 -0.00000000000E+00 -0.26077418618E+03  0.26077420276E+03  0.93000000000E-01 0. -1.
         23    2    1    2    0    0  0.00000000000E+00  0.00000000000E+00 -0.25198263911E+03  0.26956624171E+03  0.95763814954E+02 0.  0.
        -11    1    3    3    0    0 -0.43070457205E+02 -0.10928492202E+02 -0.17620257444E+03  0.18171913346E+03  0.51100000000E-03 0.  1.
         11    1    3    3    0    0  0.43070457205E+02  0.10928492202E+02 -0.75780064672E+02  0.87847108249E+02  0.51100000000E-03 0. -1.
<mgrwt>
<rscale>  0 0.95763815E+02</rscale>
<asrwt>0</asrwt>
<pdfrwt beam="2">  1        3 0.40119139E-01 0.95763815E+02</pdfrwt>
<pdfrwt beam="1">  1       -3 0.13525850E-02 0.95763815E+02</pdfrwt>
<totfact> 0.22125312E+04</totfact>
</mgrwt>
</event>
<event>
 5    1  0.7431090E-001  0.9091031E+02  0.7818608E-02  0.1300662E+00
          3   -1    0    0  501    0  0.00000000000E+00  0.00000000000E+00  0.10649523889E+03  0.10649527949E+03  0.93000000000E-01 0. -1.
         -3   -1    0    0    0  501 -0.00000000000E+00 -0.00000000000E+00 -0.19401379795E+02  0.19401602690E+02  0.93000000000E-01 0.  1.
         23    2    1    2    0    0  0.00000000000E+00  0.00000000000E+00  0.87093859091E+02  0.12589688218E+03  0.90910311034E+02 0.  0.
        -11    1    3    3    0    0 -0.22004842763E+02  0.13088741906E+02 -0.84658872506E+01  0.26966637108E+02  0.51100000000E-03 0.  1.
         11    1    3    3    0    0  0.22004842763E+02 -0.13088741906E+02  0.95559746341E+02  0.98930245076E+02  0.51100000000E-03 0. -1.
<mgrwt>
<rscale>  0 0.90910311E+02</rscale>
<asrwt>0</asrwt>
<pdfrwt beam="1">  1        3 0.16383903E-01 0.90910311E+02</pdfrwt>
<pdfrwt beam="2">  1       -3 0.29848479E-02 0.90910311E+02</pdfrwt>
<totfact> 0.33109819E+04</totfact>
</mgrwt>
</event>
<event>
 5    1  0.7431090E-001  0.9131445E+02  0.7818608E-02  0.1299699E+00
          3   -1    0    0  501    0  0.00000000000E+00  0.00000000000E+00  0.16557231845E+03  0.16557234457E+03  0.93000000000E-01 0. -1.
         -3   -1    0    0    0  501 -0.00000000000E+00 -0.00000000000E+00 -0.12589963655E+02  0.12590307138E+02  0.93000000000E-01 0.  1.
         23    2    1    2    0    0  0.00000000000E+00  0.00000000000E+00  0.15298235479E+03  0.17816265170E+03  0.91314454410E+02 0.  0.
        -11    1    3    3    0    0  0.24466613993E+02  0.18982634205E+02  0.11031426163E+02  0.32873210447E+02  0.51100000000E-03 0.  1.
         11    1    3    3    0    0 -0.24466613993E+02 -0.18982634205E+02  0.14195092863E+03  0.14528944126E+03  0.51100000000E-03 0. -1.
<mgrwt>
<rscale>  0 0.91314454E+02</rscale>
<asrwt>0</asrwt>
<pdfrwt beam="1">  1        3 0.25472693E-01 0.91314454E+02</pdfrwt>
<pdfrwt beam="2">  1       -3 0.19369459E-02 0.91314454E+02</pdfrwt>
<totfact> 0.29546825E+04</totfact>
</mgrwt>
</event>
<event>
 5    1  0.7431090E-001  0.9104095E+02  0.7818608E-02  0.1300350E+00
         -3   -1    0    0    0  501 -0.00000000000E+00  0.00000000000E+00  0.28355026615E+02  0.28355179128E+02  0.93000000000E-01 0.  1.
          3   -1    0    0  501    0  0.00000000000E+00 -0.00000000000E+00 -0.73077091435E+02  0.73077150613E+02  0.93000000000E-01 0. -1.
         23    2    1    2    0    0  0.00000000000E+00  0.00000000000E+00 -0.44722064820E+02  0.10143232974E+03  0.91040949219E+02 0.  0.
        -11    1    3    3    0    0 -0.40233005492E+02 -0.15839050517E+02 -0.65048503196E+01  0.43725088109E+02  0.51100000000E-03 0.  1.
         11    1    3    3    0    0  0.40233005492E+02  0.15839050517E+02 -0.38217214500E+02  0.57707241631E+02  0.51100000000E-03 0. -1.
<mgrwt>
<rscale>  0 0.91040949E+02</rscale>
<asrwt>0</asrwt>
<pdfrwt beam="2">  1        3 0.11242646E-01 0.91040949E+02</pdfrwt>
<pdfrwt beam="1">  1       -3 0.43623281E-02 0.91040949E+02</pdfrwt>
<totfact> 0.34706064E+04</totfact>
</mgrwt>
</event>
<event>
 5    1  0.7431090E-001  0.8989486E+02  0.7818608E-02  0.1303107E+00
          3   -1    0    0  501    0  0.00000000000E+00  0.00000000000E+00  0.40581443430E+02  0.40581549993E+02  0.93000000000E-01 0. -1.
         -3   -1    0    0    0  501 -0.00000000000E+00 -0.00000000000E+00 -0.49782922290E+02  0.49783009157E+02  0.93000000000E-01 0.  1.
         23    2    1    2    0    0  0.00000000000E+00  0.00000000000E+00 -0.92014788607E+01  0.90364559151E+02  0.89894862685E+02 0.  0.
        -11    1    3    3    0    0  0.36769349146E+02 -0.25847068691E+02 -0.41339993924E+01  0.45134753215E+02  0.51100000000E-03 0.  1.
         11    1    3    3    0    0 -0.36769349146E+02  0.25847068691E+02 -0.50674794683E+01  0.45229805936E+02  0.51100000000E-03 0. -1.
<mgrwt>
<rscale>  0 0.89894863E+02</rscale>
<asrwt>0</asrwt>
<pdfrwt beam="1">  1        3 0.62433139E-02 0.89894863E+02</pdfrwt>
<pdfrwt beam="2">  1       -3 0.76589260E-02 0.89894863E+02</pdfrwt>
<totfact> 0.36791411E+04</totfact>
</mgrwt>
</event>
<event>
 5    1  0.7431090E-001  0.9074829E+02  0.7818608E-02  0.1301050E+00
         -3   -1    0    0    0  501 -0.00000000000E+00  0.00000000000E+00  0.24583192971E+02  0.24583368883E+02  0.93000000000E-01 0.  1.
          3   -1    0    0  501    0  0.00000000000E+00 -0.00000000000E+00 -0.83748304182E+02  0.83748355819E+02  0.93000000000E-01 0. -1.
         23    2    1    2    0    0  0.00000000000E+00  0.00000000000E+00 -0.59165111212E+02  0.10833172470E+03  0.90748290299E+02 0.  0.
        -11    1    3    3    0    0  0.73231064394E+00 -0.45071643915E+02 -0.35765230569E+02  0.57542515430E+02  0.51100000000E-03 0. -1.
         11    1    3    3    0    0 -0.73231064394E+00  0.45071643915E+02 -0.23399880643E+02  0.50789209272E+02  0.51100000000E-03 0.  1.
<mgrwt>
<rscale>  0 0.90748290E+02</rscale>
<asrwt>0</asrwt>
<pdfrwt beam="2">  1        3 0.12884372E-01 0.90748290E+02</pdfrwt>
<pdfrwt beam="1">  1       -3 0.37820472E-02 0.90748290E+02</pdfrwt>
<totfact> 0.34502869E+04</totfact>
</mgrwt>
</event>
<event>
 5    1  0.7431090E-001  0.8912374E+02  0.7818608E-02  0.1304988E+00
          3   -1    0    0  501    0  0.00000000000E+00  0.00000000000E+00  0.20107776176E+02  0.20107991241E+02  0.93000000000E-01 0. -1.
         -3   -1    0    0    0  501 -0.00000000000E+00 -0.00000000000E+00 -0.98755075305E+02  0.98755119095E+02  0.93000000000E-01 0.  1.
         23    2    1    2    0    0  0.00000000000E+00  0.00000000000E+00 -0.78647299129E+02  0.11886311034E+03  0.89123741721E+02 0.  0.
        -11    1    3    3    0    0 -0.29751714628E+02 -0.26480592453E+02 -0.12670803455E+02  0.41796358219E+02  0.51100000000E-03 0. -1.
         11    1    3    3    0    0  0.29751714628E+02  0.26480592453E+02 -0.65976495674E+02  0.77066752116E+02  0.51100000000E-03 0.  1.
<mgrwt>
<rscale>  0 0.89123742E+02</rscale>
<asrwt>0</asrwt>
<pdfrwt beam="1">  1        3 0.30935240E-02 0.89123742E+02</pdfrwt>
<pdfrwt beam="2">  1       -3 0.15193108E-01 0.89123742E+02</pdfrwt>
<totfact> 0.35446578E+04</totfact>
</mgrwt>
</event>
<event>
 5    1  0.7431090E-001  0.9176042E+02  0.7818608E-02  0.1298644E+00
         -3   -1    0    0    0  501 -0.00000000000E+00  0.00000000000E+00  0.50355431868E+02  0.50355517747E+02  0.93000000000E-01 0.  1.
          3   -1    0    0  501    0  0.00000000000E+00 -0.00000000000E+00 -0.41802540062E+02  0.41802643512E+02  0.93000000000E-01 0. -1.
         23    2    1    2    0    0  0.00000000000E+00  0.00000000000E+00  0.85528918058E+01  0.92158161259E+02  0.91760420272E+02 0.  0.
        -11    1    3    3    0    0  0.20690294972E+02  0.35655872258E+02 -0.15949469479E+02  0.44201980831E+02  0.51100000000E-03 0. -1.
         11    1    3    3    0    0 -0.20690294972E+02 -0.35655872258E+02  0.24502361284E+02  0.47956180428E+02  0.51100000000E-03 0.  1.
<mgrwt>
<rscale>  0 0.91760420E+02</rscale>
<asrwt>0</asrwt>
<pdfrwt beam="2">  1        3 0.64311746E-02 0.91760420E+02</pdfrwt>
<pdfrwt beam="1">  1       -3 0.77470041E-02 0.91760420E+02</pdfrwt>
<totfact> 0.34654756E+04</totfact>
</mgrwt>
</event>
<event>
 5    1  0.7431090E-001  0.8811319E+02  0.7818608E-02  0.1307486E+00
          3   -1    0    0  501    0  0.00000000000E+00  0.00000000000E+00  0.79666286392E+02  0.79666340675E+02  0.93000000000E-01 0. -1.
         -3   -1    0    0    0  501 -0.00000000000E+00 -0.00000000000E+00 -0.24363773284E+02  0.24363950780E+02  0.93000000000E-01 0.  1.
         23    2    1    2    0    0  0.00000000000E+00  0.00000000000E+00  0.55302513109E+02  0.10403029146E+03  0.88113186210E+02 0.  0.
        -11    1    3    3    0    0 -0.37883418221E+02 -0.57626381958E+01  0.53318302367E+02  0.65659749791E+02  0.51100000000E-03 0. -1.
         11    1    3    3    0    0  0.37883418221E+02  0.57626381958E+01  0.19842107418E+01  0.38370541664E+02  0.51100000000E-03 0.  1.
<mgrwt>
<rscale>  0 0.88113186E+02</rscale>
<asrwt>0</asrwt>
<pdfrwt beam="1">  1        3 0.12256370E-01 0.88113186E+02</pdfrwt>
<pdfrwt beam="2">  1       -3 0.37482906E-02 0.88113186E+02</pdfrwt>
<totfact> 0.37711753E+04</totfact>
</mgrwt>
</event>
<event>
 5    1  0.7431090E-001  0.8995435E+02  0.7818608E-02  0.1302962E+00
         -3   -1    0    0    0  501 -0.00000000000E+00  0.00000000000E+00  0.17616629016E+02  0.17616874493E+02  0.93000000000E-01 0.  1.
          3   -1    0    0  501    0  0.00000000000E+00 -0.00000000000E+00 -0.11483056315E+03  0.11483060081E+03  0.93000000000E-01 0. -1.
         23    2    1    2    0    0  0.00000000000E+00  0.00000000000E+00 -0.97213934131E+02  0.13244747530E+03  0.89954347999E+02 0.  0.
        -11    1    3    3    0    0 -0.36009493292E+02 -0.17456701705E+02 -0.78836663047E+02  0.88411760994E+02  0.51100000000E-03 0. -1.
         11    1    3    3    0    0  0.36009493292E+02  0.17456701705E+02 -0.18377271084E+02  0.44035714305E+02  0.51100000000E-03 0.  1.
<mgrwt>
<rscale>  0 0.89954348E+02</rscale>
<asrwt>0</asrwt>
<pdfrwt beam="2">  1        3 0.17666262E-01 0.89954348E+02</pdfrwt>
<pdfrwt beam="1">  1       -3 0.27102725E-02 0.89954348E+02</pdfrwt>
<totfact> 0.33621683E+04</totfact>
</mgrwt>
</event>
<event>
 5    1  0.7431090E-001  0.9362334E+02  0.7818608E-02  0.1294307E+00
         -3   -1    0    0    0  501 -0.00000000000E+00  0.00000000000E+00  0.13213568546E+03  0.13213571819E+03  0.93000000000E-01 0.  1.
          3   -1    0    0  501    0  0.00000000000E+00 -0.00000000000E+00 -0.16583791043E+02  0.16584051808E+02  0.93000000000E-01 0. -1.
         23    2    1    2    0    0  0.00000000000E+00  0.00000000000E+00  0.11555189442E+03  0.14871977000E+03  0.93623339420E+02 0.  0.
        -11    1    3    3    0    0 -0.34090264188E+02 -0.22297177566E+02  0.21136454931E+02  0.45891828980E+02  0.51100000000E-03 0. -1.
         11    1    3    3    0    0  0.34090264188E+02  0.22297177566E+02  0.94415439487E+02  0.10282794102E+03  0.51100000000E-03 0.  1.
<mgrwt>
<rscale>  0 0.93623339E+02</rscale>
<asrwt>0</asrwt>
<pdfrwt beam="2">  1        3 0.25513750E-02 0.93623339E+02</pdfrwt>
<pdfrwt beam="1">  1       -3 0.20328590E-01 0.93623339E+02</pdfrwt>
<totfact> 0.29208219E+04</totfact>
</mgrwt>
</event>
<event>
 5    1  0.7431090E-001  0.9246032E+02  0.7818608E-02  0.1297001E+00
         -3   -1    0    0    0  501 -0.00000000000E+00  0.00000000000E+00  0.15322121211E+02  0.15322403448E+02  0.93000000000E-01 0.  1.
          3   -1    0    0  501    0  0.00000000000E+00 -0.00000000000E+00 -0.13948483350E+03  0.13948486450E+03  0.93000000000E-01 0. -1.
         23    2    1    2    0    0  0.00000000000E+00  0.00000000000E+00 -0.12416271229E+03  0.15480726795E+03  0.92460321693E+02 0.  0.
        -11    1    3    3    0    0  0.32806073405E+02  0.18206885513E+02 -0.16859520295E+02  0.41133594022E+02  0.51100000000E-03 0.  1.
         11    1    3    3    0    0 -0.32806073405E+02 -0.18206885513E+02 -0.10730319199E+03  0.11367367393E+03  0.51100000000E-03 0. -1.
<mgrwt>
<rscale>  0 0.92460322E+02</rscale>
<asrwt>0</asrwt>
<pdfrwt beam="2">  1        3 0.21459228E-01 0.92460322E+02</pdfrwt>
<pdfrwt beam="1">  1       -3 0.23572736E-02 0.92460322E+02</pdfrwt>
<totfact> 0.29861116E+04</totfact>
</mgrwt>
</event>
<event>
 5    1  0.7431090E-001  0.9139612E+02  0.7818608E-02  0.1299506E+00
          3   -1    0    0  501    0  0.00000000000E+00  0.00000000000E+00  0.34489571908E+02  0.34489697293E+02  0.93000000000E-01 0. -1.
         -3   -1    0    0    0  501 -0.00000000000E+00 -0.00000000000E+00 -0.60548830630E+02  0.60548902051E+02  0.93000000000E-01 0.  1.
         23    2    1    2    0    0  0.00000000000E+00  0.00000000000E+00 -0.26059258722E+02  0.95038599344E+02  0.91396118081E+02 0.  0.
        -11    1    3    3    0    0  0.27274605373E+02 -0.29068862537E+02  0.10208479283E+02  0.41147489802E+02  0.51100000000E-03 0. -1.
         11    1    3    3    0    0 -0.27274605373E+02  0.29068862537E+02 -0.36267738005E+02  0.53891109543E+02  0.51100000000E-03 0.  1.
<mgrwt>
<rscale>  0 0.91396118E+02</rscale>
<asrwt>0</asrwt>
<pdfrwt beam="1">  1        3 0.53061031E-02 0.91396118E+02</pdfrwt>
<pdfrwt beam="2">  1       -3 0.93152199E-02 0.91396118E+02</pdfrwt>
<totfact> 0.34815500E+04</totfact>
</mgrwt>
</event>
<event>
 5    1  0.7431090E-001  0.8996768E+02  0.7818608E-02  0.1302930E+00
          3   -1    0    0  501    0  0.00000000000E+00  0.00000000000E+00  0.29565873175E+02  0.29566019441E+02  0.93000000000E-01 0. -1.
         -3   -1    0    0    0  501 -0.00000000000E+00 -0.00000000000E+00 -0.68441598256E+02  0.68441661442E+02  0.93000000000E-01 0.  1.
         23    2    1    2    0    0  0.00000000000E+00  0.00000000000E+00 -0.38875725082E+02  0.98007680882E+02  0.89967680371E+02 0.  0.
        -11    1    3    3    0    0  0.27737739651E+02  0.31920663682E+02 -0.36145862798E+02  0.55631235547E+02  0.51100000000E-03 0.  1.
         11    1    3    3    0    0 -0.27737739651E+02 -0.31920663682E+02 -0.27298622839E+01  0.42376445335E+02  0.51100000000E-03 0. -1.
<mgrwt>
<rscale>  0 0.89967680E+02</rscale>
<asrwt>0</asrwt>
<pdfrwt beam="1">  1        3 0.45486120E-02 0.89967680E+02</pdfrwt>
<pdfrwt beam="2">  1       -3 0.10529493E-01 0.89967680E+02</pdfrwt>
<totfact> 0.36106768E+04</totfact>
</mgrwt>
</event>
<event>
 5    1  0.7431090E-001  0.8957291E+02  0.7818608E-02  0.1303889E+00
         -3   -1    0    0    0  501 -0.00000000000E+00  0.00000000000E+00  0.16219772521E+03  0.16219775187E+03  0.93000000000E-01 0.  1.
          3   -1    0    0  501    0  0.00000000000E+00 -0.00000000000E+00 -0.12366347991E+02  0.12366697685E+02  0.93000000000E-01 0. -1.
         23    2    1    2    0    0  0.00000000000E+00  0.00000000000E+00  0.14983137721E+03  0.17456444955E+03  0.89572905777E+02 0.  0.
        -11    1    3    3    0    0 -0.13884736413E+02  0.42579812298E+02  0.74903136077E+02  0.87271450744E+02  0.51100000000E-03 0.  1.
         11    1    3    3    0    0  0.13884736413E+02 -0.42579812298E+02  0.74928241138E+02  0.87292998808E+02  0.51100000000E-03 0. -1.
<mgrwt>
<rscale>  0 0.89572906E+02</rscale>
<asrwt>0</asrwt>
<pdfrwt beam="2">  1        3 0.19025442E-02 0.89572906E+02</pdfrwt>
<pdfrwt beam="1">  1       -3 0.24953522E-01 0.89572906E+02</pdfrwt>
<totfact> 0.31332471E+04</totfact>
</mgrwt>
</event>
<event>
 5    1  0.7431090E-001  0.9007514E+02  0.7818608E-02  0.1302670E+00
         -3   -1    0    0    0  501 -0.00000000000E+00  0.00000000000E+00  0.65243286316E+01  0.65249914247E+01  0.93000000000E-01 0.  1.
          3   -1    0    0  501    0  0.00000000000E+00 -0.00000000000E+00 -0.31087877640E+03  0.31087879032E+03  0.93000000000E-01 0. -1.
         23    2    1    2    0    0  0.00000000000E+00  0.00000000000E+00 -0.30435444777E+03  0.31740378174E+03  0.90075139653E+02 0.  0.
        -11    1    3    3    0    0 -0.22507074279E+02 -0.38989686694E+02 -0.14769409161E+03  0.15440307237E+03  0.51100000000E-03 0.  1.
         11    1    3    3    0    0  0.22507074279E+02  0.38989686694E+02 -0.15666035616E+03  0.16300070937E+03  0.51100000000E-03 0. -1.
<mgrwt>
<rscale>  0 0.90075140E+02</rscale>
<asrwt>0</asrwt>
<pdfrwt beam="2">  1        3 0.47827545E-01 0.90075140E+02</pdfrwt>
<pdfrwt beam="1">  1       -3 0.10037952E-02 0.90075140E+02</pdfrwt>
<totfact> 0.24146448E+04</totfact>
</mgrwt>
</event>
<event>
 5    1  0.7431090E-001  0.8980412E+02  0.7818608E-02  0.1303327E+00
          3   -1    0    0  501    0  0.00000000000E+00  0.00000000000E+00  0.95420913684E+02  0.95420959004E+02  0.93000000000E-01 0. -1.
         -3   -1    0    0    0  501 -0.00000000000E+00 -0.00000000000E+00 -0.21129333437E+02  0.21129538104E+02  0.93000000000E-01 0.  1.
         23    2    1    2    0    0  0.00000000000E+00  0.00000000000E+00  0.74291580247E+02  0.11655049711E+03  0.89804117281E+02 0.  0.
        -11    1    3    3    0    0  0.23897255731E+02 -0.37692343484E+02  0.30734550735E+02  0.54188598413E+02  0.51100000000E-03 0.  1.
         11    1    3    3    0    0 -0.23897255731E+02  0.37692343484E+02  0.43557029512E+02  0.62361898696E+02  0.51100000000E-03 0. -1.
<mgrwt>
<rscale>  0 0.89804117E+02</rscale>
<asrwt>0</asrwt>
<pdfrwt beam="1">  1        3 0.14680160E-01 0.89804117E+02</pdfrwt>
<pdfrwt beam="2">  1       -3 0.32506859E-02 0.89804117E+02</pdfrwt>
<totfact> 0.34889411E+04</totfact>
</mgrwt>
</event>
<event>
 5    1  0.7431090E-001  0.1012969E+03  0.7818608E-02  0.1277592E+00
          3   -1    0    0  501    0  0.00000000000E+00  0.00000000000E+00  0.15292096017E+03  0.15292098845E+03  0.93000000000E-01 0. -1.
         -3   -1    0    0    0  501 -0.00000000000E+00 -0.00000000000E+00 -0.16774958786E+02  0.16775216579E+02  0.93000000000E-01 0.  1.
         23    2    1    2    0    0  0.00000000000E+00  0.00000000000E+00  0.13614600139E+03  0.16969620503E+03  0.10129693139E+03 0.  0.
        -11    1    3    3    0    0  0.25013472692E+01  0.26391218293E+02 -0.42248865718E+01  0.26844046043E+02  0.51100000000E-03 0.  1.
         11    1    3    3    0    0 -0.25013472692E+01 -0.26391218293E+02  0.14037088796E+03  0.14285215899E+03  0.51100000000E-03 0. -1.
<mgrwt>
<rscale>  0 0.10129693E+03</rscale>
<asrwt>0</asrwt>
<pdfrwt beam="1">  1        3 0.23526325E-01 0.10129693E+03</pdfrwt>
<pdfrwt beam="2">  1       -3 0.25807847E-02 0.10129693E+03</pdfrwt>
<totfact> 0.22631008E+04</totfact>
</mgrwt>
</event>
<event>
 5    1  0.7431090E-001  0.9390902E+02  0.7818608E-02  0.1293652E+00
         -3   -1    0    0    0  501 -0.00000000000E+00  0.00000000000E+00  0.13316608215E+03  0.13316611463E+03  0.93000000000E-01 0.  1.
          3   -1    0    0  501    0  0.00000000000E+00 -0.00000000000E+00 -0.16556047344E+02  0.16556308545E+02  0.93000000000E-01 0. -1.
         23    2    1    2    0    0  0.00000000000E+00  0.00000000000E+00  0.11661003481E+03  0.14972242317E+03  0.93909018642E+02 0.  0.
        -11    1    3    3    0    0 -0.40452632189E+02 -0.16977933019E+02  0.84986214325E+02  0.95641634690E+02  0.51100000000E-03 0.  1.
         11    1    3    3    0    0  0.40452632189E+02  0.16977933019E+02  0.31623820484E+02  0.54080788482E+02  0.51100000000E-03 0. -1.
<mgrwt>
<rscale>  0 0.93909019E+02</rscale>
<asrwt>0</asrwt>
<pdfrwt beam="2">  1        3 0.25471069E-02 0.93909019E+02</pdfrwt>
<pdfrwt beam="1">  1       -3 0.20487111E-01 0.93909019E+02</pdfrwt>
<totfact> 0.28910480E+04</totfact>
</mgrwt>
</event>
<event>
 5    1  0.7431090E-001  0.9062183E+02  0.7818608E-02  0.1301353E+00
          3   -1    0    0  501    0  0.00000000000E+00  0.00000000000E+00  0.52065026816E+02  0.52065109876E+02  0.93000000000E-01 0. -1.
         -3   -1    0    0    0  501 -0.00000000000E+00 -0.00000000000E+00 -0.39432811632E+02  0.39432921299E+02  0.93000000000E-01 0.  1.
         23    2    1    2    0    0  0.00000000000E+00  0.00000000000E+00  0.12632215184E+02  0.91498031175E+02  0.90621834281E+02 0.  0.
        -11    1    3    3    0    0  0.18927111218E+02  0.17374756084E+02  0.43999367083E+02  0.50951565157E+02  0.51100000000E-03 0. -1.
         11    1    3    3    0    0 -0.18927111218E+02 -0.17374756084E+02 -0.31367151899E+02  0.40546466018E+02  0.51100000000E-03 0.  1.
<mgrwt>
<rscale>  0 0.90621834E+02</rscale>
<asrwt>0</asrwt>
<pdfrwt beam="1">  1        3 0.80100189E-02 0.90621834E+02</pdfrwt>
<pdfrwt beam="2">  1       -3 0.60666012E-02 0.90621834E+02</pdfrwt>
<totfact> 0.35905872E+04</totfact>
</mgrwt>
</event>
<event>
 5    1  0.7431090E-001  0.9207587E+02  0.7818608E-02  0.1297901E+00
          3   -1    0    0  501    0  0.00000000000E+00  0.00000000000E+00  0.47327697035E+02  0.47327788409E+02  0.93000000000E-01 0. -1.
         -3   -1    0    0    0  501 -0.00000000000E+00 -0.00000000000E+00 -0.44783134843E+02  0.44783231408E+02  0.93000000000E-01 0.  1.
         23    2    1    2    0    0  0.00000000000E+00  0.00000000000E+00  0.25445621927E+01  0.92111019817E+02  0.92075866409E+02 0.  0.
        -11    1    3    3    0    0  0.20778964562E+02 -0.36272803033E+02 -0.18022635250E+02  0.45522488835E+02  0.51100000000E-03 0.  1.
         11    1    3    3    0    0 -0.20778964562E+02  0.36272803033E+02  0.20567197442E+02  0.46588530982E+02  0.51100000000E-03 0. -1.
<mgrwt>
<rscale>  0 0.92075866E+02</rscale>
<asrwt>0</asrwt>
<pdfrwt beam="1">  1        3 0.72811986E-02 0.92075866E+02</pdfrwt>
<pdfrwt beam="2">  1       -3 0.68897275E-02 0.92075866E+02</pdfrwt>
<totfact> 0.34334398E+04</totfact>
</mgrwt>
</event>
<event>
 5    1  0.7431090E-001  0.9010232E+02  0.7818608E-02  0.1302604E+00
         -3   -1    0    0    0  501 -0.00000000000E+00  0.00000000000E+00  0.75828293397E+01  0.75833996199E+01  0.93000000000E-01 0.  1.
          3   -1    0    0  501    0  0.00000000000E+00 -0.00000000000E+00 -0.26764761585E+03  0.26764763201E+03  0.93000000000E-01 0. -1.
         23    2    1    2    0    0  0.00000000000E+00  0.00000000000E+00 -0.26006478651E+03  0.27523103163E+03  0.90102317329E+02 0.  0.
        -11    1    3    3    0    0 -0.73024111840E+01 -0.35850930700E+02 -0.49735620608E+02  0.61743391539E+02  0.51100000000E-03 0.  1.
         11    1    3    3    0    0  0.73024111840E+01  0.35850930700E+02 -0.21032916591E+03  0.21348764009E+03  0.51100000000E-03 0. -1.
<mgrwt>
<rscale>  0 0.90102317E+02</rscale>
<asrwt>0</asrwt>
<pdfrwt beam="2">  1        3 0.41176594E-01 0.90102317E+02</pdfrwt>
<pdfrwt beam="1">  1       -3 0.11666344E-02 0.90102317E+02</pdfrwt>
<totfact> 0.25830601E+04</totfact>
</mgrwt>
</event>
<event>
 5    1  0.7431090E-001  0.8847583E+02  0.7818608E-02  0.1306585E+00
          3   -1    0    0  501    0  0.00000000000E+00  0.00000000000E+00  0.31322822835E+02  0.31322960897E+02  0.93000000000E-01 0. -1.
         -3   -1    0    0    0  501 -0.00000000000E+00 -0.00000000000E+00 -0.62477874314E+02  0.62477943530E+02  0.93000000000E-01 0.  1.
         23    2    1    2    0    0  0.00000000000E+00  0.00000000000E+00 -0.31155051479E+02  0.93800904427E+02  0.88475829686E+02 0.  0.
        -11    1    3    3    0    0 -0.27810439423E+02  0.84815366906E+01  0.19770381254E+02  0.35159991194E+02  0.51100000000E-03 0. -1.
         11    1    3    3    0    0  0.27810439423E+02 -0.84815366906E+01 -0.50925432733E+02  0.58640913234E+02  0.51100000000E-03 0.  1.
<mgrwt>
<rscale>  0 0.88475830E+02</rscale>
<asrwt>0</asrwt>
<pdfrwt beam="1">  1        3 0.48189117E-02 0.88475830E+02</pdfrwt>
<pdfrwt beam="2">  1       -3 0.96119966E-02 0.88475830E+02</pdfrwt>
<totfact> 0.38127278E+04</totfact>
</mgrwt>
</event>
<event>
 5    1  0.7431090E-001  0.8982951E+02  0.7818608E-02  0.1303265E+00
          3   -1    0    0  501    0  0.00000000000E+00  0.00000000000E+00  0.25367256589E+02  0.25367427064E+02  0.93000000000E-01 0. -1.
         -3   -1    0    0    0  501 -0.00000000000E+00 -0.00000000000E+00 -0.79524701923E+02  0.79524756302E+02  0.93000000000E-01 0.  1.
         23    2    1    2    0    0  0.00000000000E+00  0.00000000000E+00 -0.54157445334E+02  0.10489218337E+03  0.89829512111E+02 0.  0.
        -11    1    3    3    0    0 -0.34207711865E+02  0.12905957726E+02 -0.57541629209E+02  0.68174558217E+02  0.51100000000E-03 0.  1.
         11    1    3    3    0    0  0.34207711865E+02 -0.12905957726E+02  0.33841838743E+01  0.36717625149E+02  0.51100000000E-03 0. -1.
<mgrwt>
<rscale>  0 0.89829512E+02</rscale>
<asrwt>0</asrwt>
<pdfrwt beam="1">  1        3 0.39026722E-02 0.89829512E+02</pdfrwt>
<pdfrwt beam="2">  1       -3 0.12234587E-01 0.89829512E+02</pdfrwt>
<totfact> 0.35728464E+04</totfact>
</mgrwt>
</event>
<event>
 5    1  0.7431090E-001  0.8826867E+02  0.7818608E-02  0.1307099E+00
          3   -1    0    0  501    0  0.00000000000E+00  0.00000000000E+00  0.10848772148E+03  0.10848776134E+03  0.93000000000E-01 0. -1.
         -3   -1    0    0    0  501 -0.00000000000E+00 -0.00000000000E+00 -0.17954305410E+02  0.17954546269E+02  0.93000000000E-01 0.  1.
         23    2    1    2    0    0  0.00000000000E+00  0.00000000000E+00  0.90533416072E+02  0.12644230761E+03  0.88268667877E+02 0.  0.
        -11    1    3    3    0    0 -0.10582948945E+02  0.18454998925E+02 -0.10124810938E+02  0.23560509131E+02  0.51100000000E-03 0.  1.
         11    1    3    3    0    0  0.10582948945E+02 -0.18454998925E+02  0.10065822701E+03  0.10288179848E+03  0.51100000000E-03 0. -1.
<mgrwt>
<rscale>  0 0.88268668E+02</rscale>
<asrwt>0</asrwt>
<pdfrwt beam="1">  1        3 0.16690440E-01 0.88268668E+02</pdfrwt>
<pdfrwt beam="2">  1       -3 0.27622224E-02 0.88268668E+02</pdfrwt>
<totfact> 0.35817929E+04</totfact>
</mgrwt>
</event>
<event>
 5    1  0.7431090E-001  0.9105986E+02  0.7818608E-02  0.1300305E+00
          3   -1    0    0  501    0  0.00000000000E+00  0.00000000000E+00  0.23396206249E+03  0.23396208097E+03  0.93000000000E-01 0. -1.
         -3   -1    0    0    0  501 -0.00000000000E+00 -0.00000000000E+00 -0.88600384470E+01  0.88605265240E+01  0.93000000000E-01 0.  1.
         23    2    1    2    0    0  0.00000000000E+00  0.00000000000E+00  0.22510202404E+03  0.24282260749E+03  0.91059856598E+02 0.  0.
        -11    1    3    3    0    0 -0.17256689109E+02  0.41327728571E+02  0.90691197193E+02  0.10114676325E+03  0.51100000000E-03 0.  1.
         11    1    3    3    0    0  0.17256689109E+02 -0.41327728571E+02  0.13441082685E+03  0.14167584424E+03  0.51100000000E-03 0. -1.
<mgrwt>
<rscale>  0 0.91059857E+02</rscale>
<asrwt>0</asrwt>
<pdfrwt beam="1">  1        3 0.35994199E-01 0.91059857E+02</pdfrwt>
<pdfrwt beam="2">  1       -3 0.13631219E-02 0.91059857E+02</pdfrwt>
<totfact> 0.26517534E+04</totfact>
</mgrwt>
</event>
<event>
 5    1  0.7431090E-001  0.9071023E+02  0.7818608E-02  0.1301141E+00
          3   -1    0    0  501    0  0.00000000000E+00  0.00000000000E+00  0.16603945350E+02  0.16604205798E+02  0.93000000000E-01 0. -1.
         -3   -1    0    0    0  501 -0.00000000000E+00 -0.00000000000E+00 -0.12389016901E+03  0.12389020391E+03  0.93000000000E-01 0.  1.
         23    2    1    2    0    0  0.00000000000E+00  0.00000000000E+00 -0.10728622366E+03  0.14049440971E+03  0.90710227503E+02 0.  0.
        -11    1    3    3    0    0 -0.43290808436E+01 -0.30606148246E+02 -0.10504943517E+03  0.10950279029E+03  0.51100000000E-03 0.  1.
         11    1    3    3    0    0  0.43290808436E+01  0.30606148246E+02 -0.22367884875E+01  0.30991619422E+02  0.51100000000E-03 0. -1.
<mgrwt>
<rscale>  0 0.90710228E+02</rscale>
<asrwt>0</asrwt>
<pdfrwt beam="1">  1        3 0.25544759E-02 0.90710228E+02</pdfrwt>
<pdfrwt beam="2">  1       -3 0.19060048E-01 0.90710228E+02</pdfrwt>
<totfact> 0.32346465E+04</totfact>
</mgrwt>
</event>
<event>
 5    1  0.7431090E-001  0.8103376E+02  0.7818608E-02  0.1326143E+00
         -3   -1    0    0    0  501 -0.00000000000E+00  0.00000000000E+00  0.26919073956E+02  0.26919234604E+02  0.93000000000E-01 0.  1.
          3   -1    0    0  501    0  0.00000000000E+00 -0.00000000000E+00 -0.60983057768E+02  0.60983128681E+02  0.93000000000E-01 0. -1.
         23    2    1    2    0    0  0.00000000000E+00  0.00000000000E+00 -0.34063983812E+02  0.87902363285E+02  0.81033761347E+02 0.  0.
        -11    1    3    3    0    0  0.10415666372E+02  0.24316191167E+01 -0.59424115808E+02  0.60379006429E+02  0.51100000000E-03 0. -1.
         11    1    3    3    0    0 -0.10415666372E+02 -0.24316191167E+01  0.25360131997E+02  0.27523356856E+02  0.51100000000E-03 0.  1.
<mgrwt>
<rscale>  0 0.81033761E+02</rscale>
<asrwt>0</asrwt>
<pdfrwt beam="2">  1        3 0.93820267E-02 0.81033761E+02</pdfrwt>
<pdfrwt beam="1">  1       -3 0.41414138E-02 0.81033761E+02</pdfrwt>
<totfact> 0.48958012E+04</totfact>
</mgrwt>
</event>
<event>
 5    1  0.7431090E-001  0.8734564E+02  0.7818608E-02  0.1309410E+00
          3   -1    0    0  501    0  0.00000000000E+00  0.00000000000E+00  0.28222724408E+02  0.28222877635E+02  0.93000000000E-01 0. -1.
         -3   -1    0    0    0  501 -0.00000000000E+00 -0.00000000000E+00 -0.67580464827E+02  0.67580528817E+02  0.93000000000E-01 0.  1.
         23    2    1    2    0    0  0.00000000000E+00  0.00000000000E+00 -0.39357740419E+02  0.95803406452E+02  0.87345640744E+02 0.  0.
        -11    1    3    3    0    0 -0.15579395302E+02  0.27935533300E+02  0.12936016220E+02  0.34502928783E+02  0.51100000000E-03 0. -1.
         11    1    3    3    0    0  0.15579395302E+02 -0.27935533300E+02 -0.52293756639E+02  0.61300477669E+02  0.51100000000E-03 0.  1.
<mgrwt>
<rscale>  0 0.87345641E+02</rscale>
<asrwt>0</asrwt>
<pdfrwt beam="1">  1        3 0.43419743E-02 0.87345641E+02</pdfrwt>
<pdfrwt beam="2">  1       -3 0.10397011E-01 0.87345641E+02</pdfrwt>
<totfact> 0.39306518E+04</totfact>
</mgrwt>
</event>
<event>
 5    1  0.7431090E-001  0.9268933E+02  0.7818608E-02  0.1296467E+00
          3   -1    0    0  501    0  0.00000000000E+00  0.00000000000E+00  0.25227482932E+02  0.25227654352E+02  0.93000000000E-01 0. -1.
         -3   -1    0    0    0  501 -0.00000000000E+00 -0.00000000000E+00 -0.85137936524E+02  0.85137987318E+02  0.93000000000E-01 0.  1.
         23    2    1    2    0    0  0.00000000000E+00  0.00000000000E+00 -0.59910453592E+02  0.11036564167E+03  0.92689332782E+02 0.  0.
        -11    1    3    3    0    0 -0.14350720412E+02  0.37094799916E+02 -0.16309440935E+01  0.39807377910E+02  0.51100000000E-03 0. -1.
         11    1    3    3    0    0  0.14350720412E+02 -0.37094799916E+02 -0.58279509498E+02  0.70558263760E+02  0.51100000000E-03 0.  1.
<mgrwt>
<rscale>  0 0.92689333E+02</rscale>
<asrwt>0</asrwt>
<pdfrwt beam="1">  1        3 0.38811683E-02 0.92689333E+02</pdfrwt>
<pdfrwt beam="2">  1       -3 0.13098161E-01 0.92689333E+02</pdfrwt>
<totfact> 0.32433070E+04</totfact>
</mgrwt>
</event>
<event>
 5    1  0.7431090E-001  0.8861583E+02  0.7818608E-02  0.1306239E+00
         -3   -1    0    0    0  501 -0.00000000000E+00  0.00000000000E+00  0.25463822054E+02  0.25463991882E+02  0.93000000000E-01 0. -1.
          3   -1    0    0  501    0  0.00000000000E+00 -0.00000000000E+00 -0.77096825215E+02  0.77096881306E+02  0.93000000000E-01 0.  1.
         23    2    1    2    0    0  0.00000000000E+00  0.00000000000E+00 -0.51633003161E+02  0.10256087319E+03  0.88615832072E+02 0.  0.
        -11    1    3    3    0    0  0.96691381757E+01  0.35370230567E+02  0.29701722831E+01  0.36788141664E+02  0.51100000000E-03 0. -1.
         11    1    3    3    0    0 -0.96691381757E+01 -0.35370230567E+02 -0.54603175444E+02  0.65772731525E+02  0.51100000000E-03 0.  1.
<mgrwt>
<rscale>  0 0.88615832E+02</rscale>
<asrwt>0</asrwt>
<pdfrwt beam="2">  1        3 0.11861067E-01 0.88615832E+02</pdfrwt>
<pdfrwt beam="1">  1       -3 0.39175285E-02 0.88615832E+02</pdfrwt>
<totfact> 0.37252265E+04</totfact>
</mgrwt>
</event>
<event>
 5    1  0.7431090E-001  0.9217960E+02  0.7818608E-02  0.1297658E+00
         -3   -1    0    0    0  501 -0.00000000000E+00  0.00000000000E+00  0.10372646072E+03  0.10372650241E+03  0.93000000000E-01 0.  1.
          3   -1    0    0  501    0  0.00000000000E+00 -0.00000000000E+00 -0.20479383653E+02  0.20479594815E+02  0.93000000000E-01 0. -1.
         23    2    1    2    0    0  0.00000000000E+00  0.00000000000E+00  0.83247077067E+02  0.12420609723E+03  0.92179600498E+02 0.  0.
        -11    1    3    3    0    0  0.42618829059E+02 -0.16016222680E+02  0.31964603078E+02  0.55629307289E+02  0.51100000000E-03 0.  1.
         11    1    3    3    0    0 -0.42618829059E+02  0.16016222680E+02  0.51282473989E+02  0.68576789937E+02  0.51100000000E-03 0. -1.
<mgrwt>
<rscale>  0 0.92179600E+02</rscale>
<asrwt>0</asrwt>
<pdfrwt beam="2">  1        3 0.31506939E-02 0.92179600E+02</pdfrwt>
<pdfrwt beam="1">  1       -3 0.15957936E-01 0.92179600E+02</pdfrwt>
<totfact> 0.31996168E+04</totfact>
</mgrwt>
</event>
<event>
 5    1  0.7431090E-001  0.9261320E+02  0.7818608E-02  0.1296644E+00
         -3   -1    0    0    0  501 -0.00000000000E+00  0.00000000000E+00  0.55055409580E+02  0.55055488128E+02  0.93000000000E-01 0.  1.
          3   -1    0    0  501    0  0.00000000000E+00 -0.00000000000E+00 -0.38947892479E+02  0.38948003511E+02  0.93000000000E-01 0. -1.
         23    2    1    2    0    0  0.00000000000E+00  0.00000000000E+00  0.16107517101E+02  0.94003491639E+02  0.92613197403E+02 0.  0.
        -11    1    3    3    0    0  0.17127827151E+02  0.41627324511E+02  0.19084489257E+02  0.48891863733E+02  0.51100000000E-03 0.  1.
         11    1    3    3    0    0 -0.17127827151E+02 -0.41627324511E+02 -0.29769721554E+01  0.45111627906E+02  0.51100000000E-03 0. -1.
<mgrwt>
<rscale>  0 0.92613197E+02</rscale>
<asrwt>0</asrwt>
<pdfrwt beam="2">  1        3 0.59919981E-02 0.92613197E+02</pdfrwt>
<pdfrwt beam="1">  1       -3 0.84700775E-02 0.92613197E+02</pdfrwt>
<totfact> 0.33655723E+04</totfact>
</mgrwt>
</event>
<event>
 5    1  0.7431090E-001  0.9009711E+02  0.7818608E-02  0.1302617E+00
          3   -1    0    0  501    0  0.00000000000E+00  0.00000000000E+00  0.10384470976E+03  0.10384475140E+03  0.93000000000E-01 0. -1.
         -3   -1    0    0    0  501 -0.00000000000E+00 -0.00000000000E+00 -0.19542218675E+02  0.19542439964E+02  0.93000000000E-01 0.  1.
         23    2    1    2    0    0  0.00000000000E+00  0.00000000000E+00  0.84302491083E+02  0.12338719137E+03  0.90097108668E+02 0.  0.
        -11    1    3    3    0    0 -0.12397778623E+02  0.42601583919E+02  0.52827338516E+02  0.68987879821E+02  0.51100000000E-03 0. -1.
         11    1    3    3    0    0  0.12397778623E+02 -0.42601583919E+02  0.31475152567E+02  0.54399311545E+02  0.51100000000E-03 0.  1.
<mgrwt>
<rscale>  0 0.90097109E+02</rscale>
<asrwt>0</asrwt>
<pdfrwt beam="1">  1        3 0.15976130E-01 0.90097109E+02</pdfrwt>
<pdfrwt beam="2">  1       -3 0.30065153E-02 0.90097109E+02</pdfrwt>
<totfact> 0.34099344E+04</totfact>
</mgrwt>
</event>
<event>
 5    1  0.7431090E-001  0.9741391E+02  0.7818608E-02  0.1285830E+00
          3   -1    0    0  501    0  0.00000000000E+00  0.00000000000E+00  0.44715693594E+02  0.44715790305E+02  0.93000000000E-01 0. -1.
         -3   -1    0    0    0  501 -0.00000000000E+00 -0.00000000000E+00 -0.53054271351E+02  0.53054352862E+02  0.93000000000E-01 0.  1.
         23    2    1    2    0    0  0.00000000000E+00  0.00000000000E+00 -0.83385777566E+01  0.97770143167E+02  0.97413905660E+02 0.  0.
        -11    1    3    3    0    0 -0.40399686743E+02 -0.27186120576E+02 -0.30941981034E+01  0.48793379706E+02  0.51100000000E-03 0. -1.
         11    1    3    3    0    0  0.40399686743E+02  0.27186120576E+02 -0.52443796532E+01  0.48976763461E+02  0.51100000000E-03 0.  1.
<mgrwt>
<rscale>  0 0.97413906E+02</rscale>
<asrwt>0</asrwt>
<pdfrwt beam="1">  1        3 0.68793512E-02 0.97413906E+02</pdfrwt>
<pdfrwt beam="2">  1       -3 0.81622093E-02 0.97413906E+02</pdfrwt>
<totfact> 0.29067555E+04</totfact>
</mgrwt>
</event>
<event>
 5    1  0.7431090E-001  0.1060071E+03  0.7818608E-02  0.1268148E+00
         -3   -1    0    0    0  501 -0.00000000000E+00  0.00000000000E+00  0.25700493983E+02  0.25700662248E+02  0.93000000000E-01 0.  1.
          3   -1    0    0  501    0  0.00000000000E+00 -0.00000000000E+00 -0.10931151503E+03  0.10931155459E+03  0.93000000000E-01 0. -1.
         23    2    1    2    0    0  0.00000000000E+00  0.00000000000E+00 -0.83611021045E+02  0.13501221684E+03  0.10600705569E+03 0.  0.
        -11    1    3    3    0    0 -0.23260641643E+02  0.45543936339E+02 -0.24063066463E+02  0.56518481533E+02  0.51100000000E-03 0.  1.
         11    1    3    3    0    0  0.23260641643E+02 -0.45543936339E+02 -0.59547954582E+02  0.78493735305E+02  0.51100000000E-03 0. -1.
<mgrwt>
<rscale>  0 0.10600706E+03</rscale>
<asrwt>0</asrwt>
<pdfrwt beam="2">  1        3 0.16817172E-01 0.10600706E+03</pdfrwt>
<pdfrwt beam="1">  1       -3 0.39539382E-02 0.10600706E+03</pdfrwt>
<totfact> 0.21344863E+04</totfact>
</mgrwt>
</event>
<event>
 5    1  0.7431090E-001  0.9419655E+02  0.7818608E-02  0.1292996E+00
         -3   -1    0    0    0  501 -0.00000000000E+00  0.00000000000E+00  0.25441781538E+02  0.25441951514E+02  0.93000000000E-01 0.  1.
          3   -1    0    0  501    0  0.00000000000E+00 -0.00000000000E+00 -0.87188666779E+02  0.87188716378E+02  0.93000000000E-01 0. -1.
         23    2    1    2    0    0  0.00000000000E+00  0.00000000000E+00 -0.61746885241E+02  0.11263066789E+03  0.94196547244E+02 0.  0.
        -11    1    3    3    0    0 -0.35286264988E+02 -0.29413857569E+02 -0.43296736197E+02  0.63126087155E+02  0.51100000000E-03 0.  1.
         11    1    3    3    0    0  0.35286264988E+02  0.29413857569E+02 -0.18450149043E+02  0.49504580736E+02  0.51100000000E-03 0. -1.
<mgrwt>
<rscale>  0 0.94196547E+02</rscale>
<asrwt>0</asrwt>
<pdfrwt beam="2">  1        3 0.13413658E-01 0.94196547E+02</pdfrwt>
<pdfrwt beam="1">  1       -3 0.39141372E-02 0.94196547E+02</pdfrwt>
<totfact> 0.30888171E+04</totfact>
</mgrwt>
</event>
<event>
 5    1  0.7431090E-001  0.9026585E+02  0.7818608E-02  0.1302209E+00
         -3   -1    0    0    0  501 -0.00000000000E+00  0.00000000000E+00  0.27551467922E+02  0.27551624882E+02  0.93000000000E-01 0.  1.
          3   -1    0    0  501    0  0.00000000000E+00 -0.00000000000E+00 -0.73933260273E+02  0.73933318765E+02  0.93000000000E-01 0. -1.
         23    2    1    2    0    0  0.00000000000E+00  0.00000000000E+00 -0.46381792352E+02  0.10148494365E+03  0.90265846948E+02 0.  0.
        -11    1    3    3    0    0  0.31099062214E+02 -0.10472854112E+02  0.11646632819E+02  0.34820631816E+02  0.51100000000E-03 0.  1.
         11    1    3    3    0    0 -0.31099062214E+02  0.10472854112E+02 -0.58028425170E+02  0.66664311830E+02  0.51100000000E-03 0. -1.
<mgrwt>
<rscale>  0 0.90265847E+02</rscale>
<asrwt>0</asrwt>
<pdfrwt beam="2">  1        3 0.11374364E-01 0.90265847E+02</pdfrwt>
<pdfrwt beam="1">  1       -3 0.42387040E-02 0.90265847E+02</pdfrwt>
<totfact> 0.35517197E+04</totfact>
</mgrwt>
</event>
<event>
 5    1  0.7431090E-001  0.9064698E+02  0.7818608E-02  0.1301292E+00
          3   -1    0    0  501    0  0.00000000000E+00  0.00000000000E+00  0.11889326375E+02  0.11889690099E+02  0.93000000000E-01 0. -1.
         -3   -1    0    0    0  501 -0.00000000000E+00 -0.00000000000E+00 -0.17277539500E+03  0.17277542002E+03  0.93000000000E-01 0.  1.
         23    2    1    2    0    0  0.00000000000E+00  0.00000000000E+00 -0.16088606862E+03  0.18466511012E+03  0.90646984623E+02 0.  0.
        -11    1    3    3    0    0  0.32171676065E+02  0.31827845454E+02 -0.85511695120E+02  0.96748532234E+02  0.51100000000E-03 0.  1.
         11    1    3    3    0    0 -0.32171676065E+02 -0.31827845454E+02 -0.75374373500E+02  0.87916577890E+02  0.51100000000E-03 0. -1.
<mgrwt>
<rscale>  0 0.90646985E+02</rscale>
<asrwt>0</asrwt>
<pdfrwt beam="1">  1        3 0.18291572E-02 0.90646985E+02</pdfrwt>
<pdfrwt beam="2">  1       -3 0.26580858E-01 0.90646985E+02</pdfrwt>
<totfact> 0.29775089E+04</totfact>
</mgrwt>
</event>
<event>
 5    1  0.7431090E-001  0.9008752E+02  0.7818608E-02  0.1302640E+00
         -3   -1    0    0    0  501 -0.00000000000E+00  0.00000000000E+00  0.54113211826E+01  0.54121202815E+01  0.93000000000E-01 0.  1.
          3   -1    0    0  501    0  0.00000000000E+00 -0.00000000000E+00 -0.37491515140E+03  0.37491516293E+03  0.93000000000E-01 0. -1.
         23    2    1    2    0    0  0.00000000000E+00  0.00000000000E+00 -0.36950383022E+03  0.38032728321E+03  0.90087523072E+02 0.  0.
        -11    1    3    3    0    0  0.11863082362E+02  0.41646964230E+02 -0.23709792586E+03  0.24101997593E+03  0.51100000000E-03 0. -1.
         11    1    3    3    0    0 -0.11863082362E+02 -0.41646964230E+02 -0.13240590436E+03  0.13930730728E+03  0.51100000000E-03 0.  1.
<mgrwt>
<rscale>  0 0.90087523E+02</rscale>
<asrwt>0</asrwt>
<pdfrwt beam="2">  1        3 0.57679296E-01 0.90087523E+02</pdfrwt>
<pdfrwt beam="1">  1       -3 0.83257360E-03 0.90087523E+02</pdfrwt>
<totfact> 0.21915040E+04</totfact>
</mgrwt>
</event>
<event>
 5    1  0.7431090E-001  0.9080143E+02  0.7818608E-02  0.1300922E+00
         -3   -1    0    0    0  501 -0.00000000000E+00  0.00000000000E+00  0.92774165841E+02  0.92774212454E+02  0.93000000000E-01 0.  1.
          3   -1    0    0  501    0  0.00000000000E+00 -0.00000000000E+00 -0.22217509531E+02  0.22217704174E+02  0.93000000000E-01 0. -1.
         23    2    1    2    0    0  0.00000000000E+00  0.00000000000E+00  0.70556656310E+02  0.11499191663E+03  0.90801426972E+02 0.  0.
        -11    1    3    3    0    0  0.20198230874E+02  0.86423658653E+01  0.85594313173E+02  0.88368803693E+02  0.51100000000E-03 0.  1.
         11    1    3    3    0    0 -0.20198230874E+02 -0.86423658653E+01 -0.15037656863E+02  0.26623112936E+02  0.51100000000E-03 0. -1.
<mgrwt>
<rscale>  0 0.90801427E+02</rscale>
<asrwt>0</asrwt>
<pdfrwt beam="2">  1        3 0.34180970E-02 0.90801427E+02</pdfrwt>
<pdfrwt beam="1">  1       -3 0.14272967E-01 0.90801427E+02</pdfrwt>
<totfact> 0.33972578E+04</totfact>
</mgrwt>
</event>
<event>
 5    1  0.7431090E-001  0.9024441E+02  0.7818608E-02  0.1302261E+00
         -3   -1    0    0    0  501 -0.00000000000E+00  0.00000000000E+00  0.70798100654E+01  0.70804208605E+01  0.93000000000E-01 0. -1.
          3   -1    0    0  501    0  0.00000000000E+00 -0.00000000000E+00 -0.28756718101E+03  0.28756719605E+03  0.93000000000E-01 0.  1.
         23    2    1    2    0    0  0.00000000000E+00  0.00000000000E+00 -0.28048737094E+03  0.29464761691E+03  0.90244406422E+02 0.  0.
        -11    1    3    3    0    0  0.38178991535E+02  0.24031982240E+02 -0.13724831668E+03  0.14447239181E+03  0.51100000000E-03 0.  1.
         11    1    3    3    0    0 -0.38178991535E+02 -0.24031982240E+02 -0.14323905427E+03  0.15017522510E+03  0.51100000000E-03 0. -1.
<mgrwt>
<rscale>  0 0.90244406E+02</rscale>
<asrwt>0</asrwt>
<pdfrwt beam="2">  1        3 0.44241144E-01 0.90244406E+02</pdfrwt>
<pdfrwt beam="1">  1       -3 0.10892499E-02 0.90244406E+02</pdfrwt>
<totfact> 0.24916880E+04</totfact>
</mgrwt>
</event>
<event>
 5    1  0.7431090E-001  0.9101915E+02  0.7818608E-02  0.1300402E+00
          3   -1    0    0  501    0  0.00000000000E+00  0.00000000000E+00  0.42726014392E+02  0.42726115606E+02  0.93000000000E-01 0. -1.
         -3   -1    0    0    0  501 -0.00000000000E+00 -0.00000000000E+00 -0.48474275564E+02  0.48474364776E+02  0.93000000000E-01 0.  1.
         23    2    1    2    0    0  0.00000000000E+00  0.00000000000E+00 -0.57482611721E+01  0.91200480382E+02  0.91019146972E+02 0.  0.
        -11    1    3    3    0    0 -0.24058750327E+02  0.11991757778E+02  0.33920896317E+02  0.43281092051E+02  0.51100000000E-03 0. -1.
         11    1    3    3    0    0  0.24058750327E+02 -0.11991757778E+02 -0.39669157489E+02  0.47919388331E+02  0.51100000000E-03 0.  1.
<mgrwt>
<rscale>  0 0.91019147E+02</rscale>
<asrwt>0</asrwt>
<pdfrwt beam="1">  1        3 0.65732476E-02 0.91019147E+02</pdfrwt>
<pdfrwt beam="2">  1       -3 0.74575955E-02 0.91019147E+02</pdfrwt>
<totfact> 0.35504310E+04</totfact>
</mgrwt>
</event>
<event>
 4    1  0.7431090E-001  0.3909694E+02  0.7818608E-02  0.1514964E+00
          3   -1    0    0  501    0  0.00000000000E+00  0.00000000000E+00  0.14583766880E+02  0.14584063405E+02  0.93000000000E-01 0.  1.
         -3   -1    0    0    0  501 -0.00000000000E+00 -0.00000000000E+00 -0.26202649187E+02  0.26202814227E+02  0.93000000000E-01 0. -1.
        -11    1    1    2    0    0  0.50594321210E+01 -0.10579402676E+02 -0.22125852201E+02  0.25041464619E+02  0.51100000000E-03 0. -1.
         11    1    1    2    0    0 -0.50594321210E+01  0.10579402676E+02  0.10506969894E+02  0.15745413014E+02  0.51100000000E-03 0.  1.
<mgrwt>
<rscale>  0 0.39096943E+02</rscale>
<asrwt>0</asrwt>
<pdfrwt beam="1">  1        3 0.22436919E-02 0.39096943E+02</pdfrwt>
<pdfrwt beam="2">  1       -3 0.40312123E-02 0.39096943E+02</pdfrwt>
<totfact> 0.35712323E+05</totfact>
</mgrwt>
</event>
<event>
 5    1  0.7431090E-001  0.9116297E+02  0.7818608E-02  0.1300060E+00
         -3   -1    0    0    0  501 -0.00000000000E+00  0.00000000000E+00  0.90856840459E+01  0.90861600020E+01  0.93000000000E-01 0.  1.
          3   -1    0    0  501    0  0.00000000000E+00 -0.00000000000E+00 -0.22866884632E+03  0.22866886523E+03  0.93000000000E-01 0. -1.
         23    2    1    2    0    0  0.00000000000E+00  0.00000000000E+00 -0.21958316227E+03  0.23775502523E+03  0.91162968739E+02 0.  0.
        -11    1    3    3    0    0 -0.23813094421E+02 -0.32969195973E+02 -0.56111901687E+02  0.69300626694E+02  0.51100000000E-03 0.  1.
         11    1    3    3    0    0  0.23813094421E+02  0.32969195973E+02 -0.16347126058E+03  0.16845439854E+03  0.51100000000E-03 0. -1.
<mgrwt>
<rscale>  0 0.91162969E+02</rscale>
<asrwt>0</asrwt>
<pdfrwt beam="2">  1        3 0.35179856E-01 0.91162969E+02</pdfrwt>
<pdfrwt beam="1">  1       -3 0.13978358E-02 0.91162969E+02</pdfrwt>
<totfact> 0.26668405E+04</totfact>
</mgrwt>
</event>
<event>
 5    1  0.7431090E-001  0.7710071E+02  0.7818608E-02  0.1337487E+00
          3   -1    0    0  501    0  0.00000000000E+00  0.00000000000E+00  0.28108935750E+02  0.28109089597E+02  0.93000000000E-01 0. -1.
         -3   -1    0    0    0  501 -0.00000000000E+00 -0.00000000000E+00 -0.52870034554E+02  0.52870116349E+02  0.93000000000E-01 0.  1.
         23    2    1    2    0    0  0.00000000000E+00  0.00000000000E+00 -0.24761098804E+02  0.80979205946E+02  0.77100711940E+02 0.  0.
        -11    1    3    3    0    0  0.15492762235E+02  0.18097071426E+02  0.19452512209E+02  0.30755973523E+02  0.51100000000E-03 0. -1.
         11    1    3    3    0    0 -0.15492762235E+02 -0.18097071426E+02 -0.44213611013E+02  0.50223232422E+02  0.51100000000E-03 0.  1.
<mgrwt>
<rscale>  0 0.77100712E+02</rscale>
<asrwt>0</asrwt>
<pdfrwt beam="1">  1        3 0.43244698E-02 0.77100712E+02</pdfrwt>
<pdfrwt beam="2">  1       -3 0.81338696E-02 0.77100712E+02</pdfrwt>
<totfact> 0.56825274E+04</totfact>
</mgrwt>
</event>
<event>
 5    1  0.7431090E-001  0.9092955E+02  0.7818608E-02  0.1300616E+00
          3   -1    0    0  501    0  0.00000000000E+00  0.00000000000E+00  0.18274940406E+02  0.18275177040E+02  0.93000000000E-01 0. -1.
         -3   -1    0    0    0  501 -0.00000000000E+00 -0.00000000000E+00 -0.11310722066E+03  0.11310725889E+03  0.93000000000E-01 0.  1.
         23    2    1    2    0    0  0.00000000000E+00  0.00000000000E+00 -0.94832280251E+02  0.13138243593E+03  0.90929550166E+02 0.  0.
        -11    1    3    3    0    0 -0.10351605880E+02  0.38603297902E+02 -0.78729609166E+02  0.88293384310E+02  0.51100000000E-03 0.  1.
         11    1    3    3    0    0  0.10351605880E+02 -0.38603297902E+02 -0.16102671085E+02  0.43089051620E+02  0.51100000000E-03 0. -1.
<mgrwt>
<rscale>  0 0.90929550E+02</rscale>
<asrwt>0</asrwt>
<pdfrwt beam="1">  1        3 0.28115505E-02 0.90929550E+02</pdfrwt>
<pdfrwt beam="2">  1       -3 0.17401132E-01 0.90929550E+02</pdfrwt>
<totfact> 0.32726953E+04</totfact>
</mgrwt>
</event>
<event>
 5    1  0.7431090E-001  0.9179218E+02  0.7818608E-02  0.1298569E+00
          3   -1    0    0  501    0  0.00000000000E+00  0.00000000000E+00  0.79855426630E+01  0.79860841858E+01  0.93000000000E-01 0. -1.
         -3   -1    0    0    0  501 -0.00000000000E+00 -0.00000000000E+00 -0.26377360735E+03  0.26377362375E+03  0.93000000000E-01 0.  1.
         23    2    1    2    0    0  0.00000000000E+00  0.00000000000E+00 -0.25578806469E+03  0.27175970793E+03  0.91792182773E+02 0.  0.
        -11    1    3    3    0    0  0.31255717773E+02 -0.16949755192E+02 -0.21381448499E+03  0.21675065879E+03  0.51100000000E-03 0.  1.
         11    1    3    3    0    0 -0.31255717773E+02  0.16949755192E+02 -0.41973579704E+02  0.55009049147E+02  0.51100000000E-03 0. -1.
<mgrwt>
<rscale>  0 0.91792183E+02</rscale>
<asrwt>0</asrwt>
<pdfrwt beam="1">  1        3 0.12285881E-02 0.91792183E+02</pdfrwt>
<pdfrwt beam="2">  1       -3 0.40580591E-01 0.91792183E+02</pdfrwt>
<totfact> 0.24709329E+04</totfact>
</mgrwt>
</event>
<event>
 5    1  0.7431090E-001  0.1099784E+03  0.7818608E-02  0.1260610E+00
          3   -1    0    0  501    0  0.00000000000E+00  0.00000000000E+00  0.10454422908E+02  0.10454836553E+02  0.93000000000E-01 0. -1.
         -3   -1    0    0    0  501 -0.00000000000E+00 -0.00000000000E+00 -0.28923149959E+03  0.28923151454E+03  0.93000000000E-01 0.  1.
         23    2    1    2    0    0  0.00000000000E+00  0.00000000000E+00 -0.27877707668E+03  0.29968635110E+03  0.10997840947E+03 0.  0.
        -11    1    3    3    0    0  0.53361630689E+02 -0.11619399621E+02 -0.15690866331E+03  0.16614091218E+03  0.51100000000E-03 0.  1.
         11    1    3    3    0    0 -0.53361630689E+02  0.11619399621E+02 -0.12186841337E+03  0.13354543892E+03  0.51100000000E-03 0. -1.
<mgrwt>
<rscale>  0 0.10997841E+03</rscale>
<asrwt>0</asrwt>
<pdfrwt beam="1">  1        3 0.16084059E-02 0.10997841E+03</pdfrwt>
<pdfrwt beam="2">  1       -3 0.44497181E-01 0.10997841E+03</pdfrwt>
<totfact> 0.14448885E+04</totfact>
</mgrwt>
</event>
<event>
 5    1  0.7431090E-001  0.9122430E+02  0.7818608E-02  0.1299914E+00
         -3   -1    0    0    0  501 -0.00000000000E+00  0.00000000000E+00  0.41672625945E+02  0.41672729718E+02  0.93000000000E-01 0.  1.
          3   -1    0    0  501    0  0.00000000000E+00 -0.00000000000E+00 -0.49923885692E+02  0.49923972314E+02  0.93000000000E-01 0. -1.
         23    2    1    2    0    0  0.00000000000E+00  0.00000000000E+00 -0.82512597475E+01  0.91596702032E+02  0.91224297946E+02 0.  0.
        -11    1    3    3    0    0  0.33707038285E+02  0.30547253378E+02 -0.74812805163E+01  0.46100636409E+02  0.51100000000E-03 0.  1.
         11    1    3    3    0    0 -0.33707038285E+02 -0.30547253378E+02 -0.76997923120E+00  0.45496065623E+02  0.51100000000E-03 0. -1.
<mgrwt>
<rscale>  0 0.91224298E+02</rscale>
<asrwt>0</asrwt>
<pdfrwt beam="2">  1        3 0.76806124E-02 0.91224298E+02</pdfrwt>
<pdfrwt beam="1">  1       -3 0.64111879E-02 0.91224298E+02</pdfrwt>
<totfact> 0.35256328E+04</totfact>
</mgrwt>
</event>
<event>
 5    1  0.7431090E-001  0.9082273E+02  0.7818608E-02  0.1300871E+00
         -3   -1    0    0    0  501 -0.00000000000E+00  0.00000000000E+00  0.10653471078E+02  0.10653876995E+02  0.93000000000E-01 0.  1.
          3   -1    0    0  501    0  0.00000000000E+00 -0.00000000000E+00 -0.19356584796E+03  0.19356587030E+03  0.93000000000E-01 0. -1.
         23    2    1    2    0    0  0.00000000000E+00  0.00000000000E+00 -0.18291237688E+03  0.20421974730E+03  0.90822726061E+02 0.  0.
        -11    1    3    3    0    0 -0.35961338066E+02  0.23352116598E+02 -0.12508335544E+03  0.13222853321E+03  0.51100000000E-03 0. -1.
         11    1    3    3    0    0  0.35961338066E+02 -0.23352116598E+02 -0.57829021444E+02  0.71991214093E+02  0.51100000000E-03 0.  1.
<mgrwt>
<rscale>  0 0.90822726E+02</rscale>
<asrwt>0</asrwt>
<pdfrwt beam="2">  1        3 0.29779392E-01 0.90822726E+02</pdfrwt>
<pdfrwt beam="1">  1       -3 0.16390286E-02 0.90822726E+02</pdfrwt>
<totfact> 0.28580084E+04</totfact>
</mgrwt>
</event>
<event>
 5    1  0.7431090E-001  0.9158464E+02  0.7818608E-02  0.1299059E+00
          3   -1    0    0  501    0  0.00000000000E+00  0.00000000000E+00  0.53580769745E+02  0.53580850455E+02  0.93000000000E-01 0. -1.
         -3   -1    0    0    0  501 -0.00000000000E+00 -0.00000000000E+00 -0.39135828504E+02  0.39135939003E+02  0.93000000000E-01 0.  1.
         23    2    1    2    0    0  0.00000000000E+00  0.00000000000E+00  0.14444941242E+02  0.92716789459E+02  0.91584642381E+02 0.  0.
        -11    1    3    3    0    0 -0.43167474354E+02 -0.23289422502E+01  0.22511542033E+02  0.48740376887E+02  0.51100000000E-03 0.  1.
         11    1    3    3    0    0  0.43167474354E+02  0.23289422502E+01 -0.80666007912E+01  0.43976412572E+02  0.51100000000E-03 0. -1.
<mgrwt>
<rscale>  0 0.91584642E+02</rscale>
<asrwt>0</asrwt>
<pdfrwt beam="1">  1        3 0.82432100E-02 0.91584642E+02</pdfrwt>
<pdfrwt beam="2">  1       -3 0.60209114E-02 0.91584642E+02</pdfrwt>
<totfact> 0.34794401E+04</totfact>
</mgrwt>
</event>
<event>
 5    1  0.7431090E-001  0.8987105E+02  0.7818608E-02  0.1303164E+00
          3   -1    0    0  501    0  0.00000000000E+00  0.00000000000E+00  0.58204073006E+02  0.58204147304E+02  0.93000000000E-01 0. -1.
         -3   -1    0    0    0  501 -0.00000000000E+00 -0.00000000000E+00 -0.34691594628E+02  0.34691719284E+02  0.93000000000E-01 0.  1.
         23    2    1    2    0    0  0.00000000000E+00  0.00000000000E+00  0.23512478377E+02  0.92895866588E+02  0.89871048674E+02 0.  0.
        -11    1    3    3    0    0 -0.12372566532E+02  0.75761537186E+01  0.55716736053E+02  0.57574588009E+02  0.51100000000E-03 0. -1.
         11    1    3    3    0    0  0.12372566532E+02 -0.75761537186E+01 -0.32204257676E+02  0.35321278579E+02  0.51100000000E-03 0.  1.
<mgrwt>
<rscale>  0 0.89871049E+02</rscale>
<asrwt>0</asrwt>
<pdfrwt beam="1">  1        3 0.89544881E-02 0.89871049E+02</pdfrwt>
<pdfrwt beam="2">  1       -3 0.53371837E-02 0.89871049E+02</pdfrwt>
<totfact> 0.36614628E+04</totfact>
</mgrwt>
</event>
<event>
 5    1  0.7431090E-001  0.8895851E+02  0.7818608E-02  0.1305394E+00
         -3   -1    0    0    0  501 -0.00000000000E+00  0.00000000000E+00  0.21034730131E+03  0.21034732187E+03  0.93000000000E-01 0.  1.
          3   -1    0    0  501    0  0.00000000000E+00 -0.00000000000E+00 -0.94051668068E+01  0.94056265960E+01  0.93000000000E-01 0. -1.
         23    2    1    2    0    0  0.00000000000E+00  0.00000000000E+00  0.20094213450E+03  0.21975294847E+03  0.88958512467E+02 0.  0.
        -11    1    3    3    0    0  0.40742616314E+02  0.17360654850E+02  0.90270517547E+02  0.10054908980E+03  0.51100000000E-03 0. -1.
         11    1    3    3    0    0 -0.40742616314E+02 -0.17360654850E+02  0.11067161696E+03  0.11920385867E+03  0.51100000000E-03 0.  1.
<mgrwt>
<rscale>  0 0.88958512E+02</rscale>
<asrwt>0</asrwt>
<pdfrwt beam="2">  1        3 0.14469859E-02 0.88958512E+02</pdfrwt>
<pdfrwt beam="1">  1       -3 0.32361156E-01 0.88958512E+02</pdfrwt>
<totfact> 0.29388487E+04</totfact>
</mgrwt>
</event>
<event>
 5    1  0.7431090E-001  0.9322960E+02  0.7818608E-02  0.1295214E+00
         -3   -1    0    0    0  501 -0.00000000000E+00  0.00000000000E+00  0.16142283416E+03  0.16142286095E+03  0.93000000000E-01 0.  1.
          3   -1    0    0  501    0  0.00000000000E+00 -0.00000000000E+00 -0.13460977285E+02  0.13461298543E+02  0.93000000000E-01 0. -1.
         23    2    1    2    0    0  0.00000000000E+00  0.00000000000E+00  0.14796185688E+03  0.17488415949E+03  0.93229599118E+02 0.  0.
        -11    1    3    3    0    0 -0.11918941833E+02  0.44934545089E+02  0.80415105489E+02  0.92885756216E+02  0.51100000000E-03 0.  1.
         11    1    3    3    0    0  0.11918941833E+02 -0.44934545089E+02  0.67546751386E+02  0.81998403277E+02  0.51100000000E-03 0. -1.
<mgrwt>
<rscale>  0 0.93229599E+02</rscale>
<asrwt>0</asrwt>
<pdfrwt beam="2">  1        3 0.20709464E-02 0.93229599E+02</pdfrwt>
<pdfrwt beam="1">  1       -3 0.24834309E-01 0.93229599E+02</pdfrwt>
<totfact> 0.28102539E+04</totfact>
</mgrwt>
</event>
<event>
 5    1  0.7431090E-001  0.7695064E+02  0.7818608E-02  0.1337935E+00
         -3   -1    0    0    0  501 -0.00000000000E+00  0.00000000000E+00  0.11028237725E+03  0.11028241646E+03  0.93000000000E-01 0.  1.
          3   -1    0    0  501    0  0.00000000000E+00 -0.00000000000E+00 -0.13423067470E+02  0.13423389635E+02  0.93000000000E-01 0. -1.
         23    2    1    2    0    0  0.00000000000E+00  0.00000000000E+00  0.96859309778E+02  0.12370580610E+03  0.76950637238E+02 0.  0.
        -11    1    3    3    0    0 -0.17042774691E+02 -0.27936660216E+02  0.15900603354E+02  0.36383270063E+02  0.51100000000E-03 0. -1.
         11    1    3    3    0    0  0.17042774691E+02  0.27936660216E+02  0.80958706424E+02  0.87322536034E+02  0.51100000000E-03 0.  1.
<mgrwt>
<rscale>  0 0.76950637E+02</rscale>
<asrwt>0</asrwt>
<pdfrwt beam="2">  1        3 0.20651150E-02 0.76950637E+02</pdfrwt>
<pdfrwt beam="1">  1       -3 0.16966548E-01 0.76950637E+02</pdfrwt>
<totfact> 0.52033574E+04</totfact>
</mgrwt>
</event>
<event>
 5    1  0.7431090E-001  0.9123037E+02  0.7818608E-02  0.1299899E+00
         -3   -1    0    0    0  501 -0.00000000000E+00  0.00000000000E+00  0.21556921202E+03  0.21556923208E+03  0.93000000000E-01 0.  1.
          3   -1    0    0  501    0  0.00000000000E+00 -0.00000000000E+00 -0.96520844738E+01  0.96525325014E+01  0.93000000000E-01 0. -1.
         23    2    1    2    0    0  0.00000000000E+00  0.00000000000E+00  0.20591712754E+03  0.22522176458E+03  0.91230366789E+02 0.  0.
        -11    1    3    3    0    0 -0.32980109317E+02  0.30348127608E+02  0.82003769778E+02  0.93452205527E+02  0.51100000000E-03 0.  1.
         11    1    3    3    0    0  0.32980109317E+02 -0.30348127608E+02  0.12391335776E+03  0.13176955905E+03  0.51100000000E-03 0. -1.
<mgrwt>
<rscale>  0 0.91230367E+02</rscale>
<asrwt>0</asrwt>
<pdfrwt beam="2">  1        3 0.14849722E-02 0.91230367E+02</pdfrwt>
<pdfrwt beam="1">  1       -3 0.33164528E-01 0.91230367E+02</pdfrwt>
<totfact> 0.27199264E+04</totfact>
</mgrwt>
</event>
<event>
 5    1  0.7431090E-001  0.8927866E+02  0.7818608E-02  0.1304608E+00
         -3   -1    0    0    0  501 -0.00000000000E+00  0.00000000000E+00  0.24913128792E+02  0.24913302374E+02  0.93000000000E-01 0.  1.
          3   -1    0    0  501    0  0.00000000000E+00 -0.00000000000E+00 -0.79984252449E+02  0.79984306516E+02  0.93000000000E-01 0. -1.
         23    2    1    2    0    0  0.00000000000E+00  0.00000000000E+00 -0.55071123657E+02  0.10489760889E+03  0.89278663128E+02 0.  0.
        -11    1    3    3    0    0  0.45930340620E+01  0.25679899630E+02 -0.70095809274E+02  0.74792885256E+02  0.51100000000E-03 0. -1.
         11    1    3    3    0    0 -0.45930340620E+01 -0.25679899630E+02  0.15024685617E+02  0.30104723634E+02  0.51100000000E-03 0.  1.
<mgrwt>
<rscale>  0 0.89278663E+02</rscale>
<asrwt>0</asrwt>
<pdfrwt beam="2">  1        3 0.12305287E-01 0.89278663E+02</pdfrwt>
<pdfrwt beam="1">  1       -3 0.38328066E-02 0.89278663E+02</pdfrwt>
<totfact> 0.36326801E+04</totfact>
</mgrwt>
</event>
<event>
 5    1  0.7431090E-001  0.9041010E+02  0.7818608E-02  0.1301862E+00
         -3   -1    0    0    0  501 -0.00000000000E+00  0.00000000000E+00  0.10465628641E+03  0.10465632773E+03  0.93000000000E-01 0.  1.
          3   -1    0    0  501    0  0.00000000000E+00 -0.00000000000E+00 -0.19525633843E+02  0.19525855320E+02  0.93000000000E-01 0. -1.
         23    2    1    2    0    0  0.00000000000E+00  0.00000000000E+00  0.85130652567E+02  0.12418218305E+03  0.90410102207E+02 0.  0.
        -11    1    3    3    0    0  0.40186495555E+02 -0.19989305037E+02  0.49958243767E+02  0.67159160667E+02  0.51100000000E-03 0. -1.
         11    1    3    3    0    0 -0.40186495555E+02  0.19989305037E+02  0.35172408800E+02  0.57023022385E+02  0.51100000000E-03 0.  1.
<mgrwt>
<rscale>  0 0.90410102E+02</rscale>
<asrwt>0</asrwt>
<pdfrwt beam="2">  1        3 0.30039639E-02 0.90410102E+02</pdfrwt>
<pdfrwt beam="1">  1       -3 0.16100987E-01 0.90410102E+02</pdfrwt>
<totfact> 0.33727653E+04</totfact>
</mgrwt>
</event>
<event>
 5    1  0.7431090E-001  0.9135206E+02  0.7818608E-02  0.1299610E+00
          3   -1    0    0  501    0  0.00000000000E+00  0.00000000000E+00  0.24061449394E+02  0.24061629121E+02  0.93000000000E-01 0. -1.
         -3   -1    0    0    0  501 -0.00000000000E+00 -0.00000000000E+00 -0.86706626139E+02  0.86706676014E+02  0.93000000000E-01 0.  1.
         23    2    1    2    0    0  0.00000000000E+00  0.00000000000E+00 -0.62645176745E+02  0.11076830514E+03  0.91352062117E+02 0.  0.
        -11    1    3    3    0    0  0.38947974513E+02 -0.18451160309E+02 -0.49668078840E+02  0.65759471495E+02  0.51100000000E-03 0.  1.
         11    1    3    3    0    0 -0.38947974513E+02  0.18451160309E+02 -0.12977097905E+02  0.45008833641E+02  0.51100000000E-03 0. -1.
<mgrwt>
<rscale>  0 0.91352062E+02</rscale>
<asrwt>0</asrwt>
<pdfrwt beam="1">  1        3 0.37017791E-02 0.91352062E+02</pdfrwt>
<pdfrwt beam="2">  1       -3 0.13339498E-01 0.91352062E+02</pdfrwt>
<totfact> 0.33714969E+04</totfact>
</mgrwt>
</event>
<event>
 5    1  0.7431090E-001  0.9222566E+02  0.7818608E-02  0.1297550E+00
         -3   -1    0    0    0  501 -0.00000000000E+00  0.00000000000E+00  0.23393653183E+02  0.23393838040E+02  0.93000000000E-01 0.  1.
          3   -1    0    0  501    0  0.00000000000E+00 -0.00000000000E+00 -0.90895581128E+02  0.90895628704E+02  0.93000000000E-01 0. -1.
         23    2    1    2    0    0  0.00000000000E+00  0.00000000000E+00 -0.67501927945E+02  0.11428946674E+03  0.92225657669E+02 0.  0.
        -11    1    3    3    0    0  0.22244215705E+02  0.31178266554E+02 -0.65575568291E+02  0.75941060005E+02  0.51100000000E-03 0.  1.
         11    1    3    3    0    0 -0.22244215705E+02 -0.31178266554E+02 -0.19263596534E+01  0.38348406739E+02  0.51100000000E-03 0. -1.
<mgrwt>
<rscale>  0 0.92225658E+02</rscale>
<asrwt>0</asrwt>
<pdfrwt beam="2">  1        3 0.13983953E-01 0.92225658E+02</pdfrwt>
<pdfrwt beam="1">  1       -3 0.35990415E-02 0.92225658E+02</pdfrwt>
<totfact> 0.32609752E+04</totfact>
</mgrwt>
</event>
<event>
 5    1  0.7431090E-001  0.9246796E+02  0.7818608E-02  0.1296983E+00
         -3   -1    0    0    0  501 -0.00000000000E+00  0.00000000000E+00  0.41696493116E+03  0.41696494153E+03  0.93000000000E-01 0.  1.
          3   -1    0    0  501    0  0.00000000000E+00 -0.00000000000E+00 -0.51260924321E+01  0.51269359877E+01  0.93000000000E-01 0. -1.
         23    2    1    2    0    0  0.00000000000E+00  0.00000000000E+00  0.41183883872E+03  0.42209187751E+03  0.92467961926E+02 0.  0.
        -11    1    3    3    0    0 -0.32655051378E+02  0.32460249628E+02  0.22504823005E+03  0.22971009128E+03  0.51100000000E-03 0.  1.
         11    1    3    3    0    0  0.32655051378E+02 -0.32460249628E+02  0.18679060868E+03  0.19238178624E+03  0.51100000000E-03 0. -1.
<mgrwt>
<rscale>  0 0.92467962E+02</rscale>
<asrwt>0</asrwt>
<pdfrwt beam="2">  1        3 0.78869535E-03 0.92467962E+02</pdfrwt>
<pdfrwt beam="1">  1       -3 0.64148512E-01 0.92467962E+02</pdfrwt>
<totfact> 0.19211282E+04</totfact>
</mgrwt>
</event>
<event>
 5    1  0.7431090E-001  0.9137491E+02  0.7818608E-02  0.1299556E+00
          3   -1    0    0  501    0  0.00000000000E+00  0.00000000000E+00  0.52735989451E+02  0.52736071454E+02  0.93000000000E-01 0. -1.
         -3   -1    0    0    0  501 -0.00000000000E+00 -0.00000000000E+00 -0.39580840699E+02  0.39580949957E+02  0.93000000000E-01 0.  1.
         23    2    1    2    0    0  0.00000000000E+00  0.00000000000E+00  0.13155148751E+02  0.92317021410E+02  0.91374911783E+02 0.  0.
        -11    1    3    3    0    0  0.38013163714E+02  0.25262416997E+02  0.45185981423E+01  0.45865107190E+02  0.51100000000E-03 0.  1.
         11    1    3    3    0    0 -0.38013163714E+02 -0.25262416997E+02  0.86365506092E+01  0.46451914221E+02  0.51100000000E-03 0. -1.
<mgrwt>
<rscale>  0 0.91374912E+02</rscale>
<asrwt>0</asrwt>
<pdfrwt beam="1">  1        3 0.81132438E-02 0.91374912E+02</pdfrwt>
<pdfrwt beam="2">  1       -3 0.60893748E-02 0.91374912E+02</pdfrwt>
<totfact> 0.35043284E+04</totfact>
</mgrwt>
</event>
<event>
 5    1  0.7431090E-001  0.9128444E+02  0.7818608E-02  0.1299771E+00
          3   -1    0    0  501    0  0.00000000000E+00  0.00000000000E+00  0.20430312492E+02  0.20430524161E+02  0.93000000000E-01 0. -1.
         -3   -1    0    0    0  501 -0.00000000000E+00 -0.00000000000E+00 -0.10196597864E+03  0.10196602105E+03  0.93000000000E-01 0.  1.
         23    2    1    2    0    0  0.00000000000E+00  0.00000000000E+00 -0.81535666147E+02  0.12239654521E+03  0.91284442407E+02 0.  0.
        -11    1    3    3    0    0 -0.15363696439E+02 -0.18953809149E+02  0.10952643707E+02  0.26744166728E+02  0.51100000000E-03 0. -1.
         11    1    3    3    0    0  0.15363696439E+02  0.18953809149E+02 -0.92488309854E+02  0.95652378483E+02  0.51100000000E-03 0.  1.
<mgrwt>
<rscale>  0 0.91284442E+02</rscale>
<asrwt>0</asrwt>
<pdfrwt beam="1">  1        3 0.31431446E-02 0.91284442E+02</pdfrwt>
<pdfrwt beam="2">  1       -3 0.15687093E-01 0.91284442E+02</pdfrwt>
<totfact> 0.32978914E+04</totfact>
</mgrwt>
</event>
<event>
 5    1  0.7431090E-001  0.7791165E+02  0.7818608E-02  0.1335085E+00
         -3   -1    0    0    0  501 -0.00000000000E+00  0.00000000000E+00  0.22840905200E+02  0.22841094531E+02  0.93000000000E-01 0.  1.
          3   -1    0    0  501    0  0.00000000000E+00 -0.00000000000E+00 -0.66439785963E+02  0.66439851052E+02  0.93000000000E-01 0. -1.
         23    2    1    2    0    0  0.00000000000E+00  0.00000000000E+00 -0.43598880762E+02  0.89280945583E+02  0.77911647656E+02 0.  0.
        -11    1    3    3    0    0 -0.12304401449E+02 -0.29416877117E+02  0.38448585875E+01  0.32117501337E+02  0.51100000000E-03 0.  1.
         11    1    3    3    0    0  0.12304401449E+02  0.29416877117E+02 -0.47443739350E+02  0.57163444246E+02  0.51100000000E-03 0. -1.
<mgrwt>
<rscale>  0 0.77911648E+02</rscale>
<asrwt>0</asrwt>
<pdfrwt beam="2">  1        3 0.10221525E-01 0.77911648E+02</pdfrwt>
<pdfrwt beam="1">  1       -3 0.35140050E-02 0.77911648E+02</pdfrwt>
<totfact> 0.54224841E+04</totfact>
</mgrwt>
</event>
<event>
 5    1  0.7431090E-001  0.9129214E+02  0.7818608E-02  0.1299752E+00
          3   -1    0    0  501    0  0.00000000000E+00  0.00000000000E+00  0.15887261752E+02  0.15887533949E+02  0.93000000000E-01 0. -1.
         -3   -1    0    0    0  501 -0.00000000000E+00 -0.00000000000E+00 -0.13114539835E+03  0.13114543132E+03  0.93000000000E-01 0.  1.
         23    2    1    2    0    0  0.00000000000E+00  0.00000000000E+00 -0.11525813660E+03  0.14703296527E+03  0.91292139997E+02 0.  0.
        -11    1    3    3    0    0  0.21633234421E+02  0.16103019684E+02 -0.11694245824E+03  0.12001184364E+03  0.51100000000E-03 0.  1.
         11    1    3    3    0    0 -0.21633234421E+02 -0.16103019684E+02  0.16843216464E+01  0.27021121630E+02  0.51100000000E-03 0. -1.
<mgrwt>
<rscale>  0 0.91292140E+02</rscale>
<asrwt>0</asrwt>
<pdfrwt beam="1">  1        3 0.24442177E-02 0.91292140E+02</pdfrwt>
<pdfrwt beam="2">  1       -3 0.20176238E-01 0.91292140E+02</pdfrwt>
<totfact> 0.31382896E+04</totfact>
</mgrwt>
</event>
<event>
 5    1  0.7431090E-001  0.9294421E+02  0.7818608E-02  0.1295875E+00
          3   -1    0    0  501    0  0.00000000000E+00  0.00000000000E+00  0.57139944125E+02  0.57140019807E+02  0.93000000000E-01 0. -1.
         -3   -1    0    0    0  501 -0.00000000000E+00 -0.00000000000E+00 -0.37795762074E+02  0.37795876491E+02  0.93000000000E-01 0.  1.
         23    2    1    2    0    0  0.00000000000E+00  0.00000000000E+00  0.19344182051E+02  0.94935896298E+02  0.92944214596E+02 0.  0.
        -11    1    3    3    0    0 -0.25088151521E+02  0.19298281805E+02 -0.25083781109E+02  0.40386075600E+02  0.51100000000E-03 0.  1.
         11    1    3    3    0    0  0.25088151521E+02 -0.19298281805E+02  0.44427963160E+02  0.54549820698E+02  0.51100000000E-03 0. -1.
<mgrwt>
<rscale>  0 0.92944215E+02</rscale>
<asrwt>0</asrwt>
<pdfrwt beam="1">  1        3 0.87907752E-02 0.92944215E+02</pdfrwt>
<pdfrwt beam="2">  1       -3 0.58147473E-02 0.92944215E+02</pdfrwt>
<totfact> 0.33261593E+04</totfact>
</mgrwt>
</event>
<event>
 5    1  0.7431090E-001  0.1051772E+03  0.7818608E-02  0.1269771E+00
         -3   -1    0    0    0  501 -0.00000000000E+00  0.00000000000E+00  0.25025562496E+02  0.25025735299E+02  0.93000000000E-01 0. -1.
          3   -1    0    0  501    0  0.00000000000E+00 -0.00000000000E+00 -0.11050886984E+03  0.11050890897E+03  0.93000000000E-01 0.  1.
         23    2    1    2    0    0  0.00000000000E+00  0.00000000000E+00 -0.85483307342E+02  0.13553464427E+03  0.10517720268E+03 0.  0.
        -11    1    3    3    0    0 -0.79910331662E+01  0.23345973658E+02  0.17102336384E+02  0.30023007963E+02  0.51100000000E-03 0. -1.
         11    1    3    3    0    0  0.79910331662E+01 -0.23345973658E+02 -0.10258564373E+03  0.10551163631E+03  0.51100000000E-03 0.  1.
<mgrwt>
<rscale>  0 0.10517720E+03</rscale>
<asrwt>0</asrwt>
<pdfrwt beam="2">  1        3 0.17001381E-01 0.10517720E+03</pdfrwt>
<pdfrwt beam="1">  1       -3 0.38501029E-02 0.10517720E+03</pdfrwt>
<totfact> 0.21790383E+04</totfact>
</mgrwt>
</event>
<event>
 5    1  0.7431090E-001  0.8939395E+02  0.7818608E-02  0.1304326E+00
          3   -1    0    0  501    0  0.00000000000E+00  0.00000000000E+00  0.35351527760E+02  0.35351650088E+02  0.93000000000E-01 0.  1.
         -3   -1    0    0    0  501 -0.00000000000E+00 -0.00000000000E+00 -0.56512701649E+02  0.56512778172E+02  0.93000000000E-01 0. -1.
         23    2    1    2    0    0  0.00000000000E+00  0.00000000000E+00 -0.21161173889E+02  0.91864428260E+02  0.89393947777E+02 0.  0.
        -11    1    3    3    0    0 -0.12138166087E+02  0.33106495505E+02  0.17645642403E+02  0.39430239875E+02  0.51100000000E-03 0.  1.
         11    1    3    3    0    0  0.12138166087E+02 -0.33106495505E+02 -0.38806816293E+02  0.52434188385E+02  0.51100000000E-03 0. -1.
<mgrwt>
<rscale>  0 0.89393948E+02</rscale>
<asrwt>0</asrwt>
<pdfrwt beam="1">  1        3 0.54387119E-02 0.89393948E+02</pdfrwt>
<pdfrwt beam="2">  1       -3 0.86942771E-02 0.89393948E+02</pdfrwt>
<totfact> 0.37231810E+04</totfact>
</mgrwt>
</event>
<event>
 5    1  0.7431090E-001  0.9206347E+02  0.7818608E-02  0.1297930E+00
         -3   -1    0    0    0  501 -0.00000000000E+00  0.00000000000E+00  0.39273559355E+02  0.39273669467E+02  0.93000000000E-01 0.  1.
          3   -1    0    0  501    0  0.00000000000E+00 -0.00000000000E+00 -0.53952623530E+02  0.53952703684E+02  0.93000000000E-01 0. -1.
         23    2    1    2    0    0  0.00000000000E+00  0.00000000000E+00 -0.14679064175E+02  0.93226373151E+02  0.92063465749E+02 0.  0.
        -11    1    3    3    0    0 -0.13500838228E+02 -0.11677629775E+02  0.35626137973E+02  0.39847978332E+02  0.51100000000E-03 0.  1.
         11    1    3    3    0    0  0.13500838228E+02  0.11677629775E+02 -0.50305202148E+02  0.53378394819E+02  0.51100000000E-03 0. -1.
<mgrwt>
<rscale>  0 0.92063466E+02</rscale>
<asrwt>0</asrwt>
<pdfrwt beam="2">  1        3 0.83004182E-02 0.92063466E+02</pdfrwt>
<pdfrwt beam="1">  1       -3 0.60421007E-02 0.92063466E+02</pdfrwt>
<totfact> 0.34264614E+04</totfact>
</mgrwt>
</event>
<event>
 5    1  0.7431090E-001  0.9169358E+02  0.7818608E-02  0.1298802E+00
         -3   -1    0    0    0  501 -0.00000000000E+00  0.00000000000E+00  0.39764576923E+02  0.39764685676E+02  0.93000000000E-01 0.  1.
          3   -1    0    0  501    0  0.00000000000E+00 -0.00000000000E+00 -0.52859090593E+02  0.52859172405E+02  0.93000000000E-01 0. -1.
         23    2    1    2    0    0  0.00000000000E+00  0.00000000000E+00 -0.13094513669E+02  0.92623858080E+02  0.91693581005E+02 0.  0.
        -11    1    3    3    0    0  0.31113637154E+02  0.13925271517E+02 -0.37517016316E+02  0.50690217175E+02  0.51100000000E-03 0. -1.
         11    1    3    3    0    0 -0.31113637154E+02 -0.13925271517E+02  0.24422502647E+02  0.41933640905E+02  0.51100000000E-03 0.  1.
<mgrwt>
<rscale>  0 0.91693581E+02</rscale>
<asrwt>0</asrwt>
<pdfrwt beam="2">  1        3 0.81321825E-02 0.91693581E+02</pdfrwt>
<pdfrwt beam="1">  1       -3 0.61176419E-02 0.91693581E+02</pdfrwt>
<totfact> 0.34688717E+04</totfact>
</mgrwt>
</event>
<event>
 5    1  0.7431090E-001  0.9144354E+02  0.7818608E-02  0.1299393E+00
          3   -1    0    0  501    0  0.00000000000E+00  0.00000000000E+00  0.60168310788E+02  0.60168382661E+02  0.93000000000E-01 0. -1.
         -3   -1    0    0    0  501 -0.00000000000E+00 -0.00000000000E+00 -0.34743717625E+02  0.34743842093E+02  0.93000000000E-01 0.  1.
         23    2    1    2    0    0  0.00000000000E+00  0.00000000000E+00  0.25424593163E+02  0.94912224754E+02  0.91443537061E+02 0.  0.
        -11    1    3    3    0    0  0.34214329292E+02  0.28564891864E+01  0.44052021193E+02  0.55851234820E+02  0.51100000000E-03 0. -1.
         11    1    3    3    0    0 -0.34214329292E+02 -0.28564891864E+01 -0.18627428030E+02  0.39060989934E+02  0.51100000000E-03 0.  1.
<mgrwt>
<rscale>  0 0.91443537E+02</rscale>
<asrwt>0</asrwt>
<pdfrwt beam="1">  1        3 0.92566783E-02 0.91443537E+02</pdfrwt>
<pdfrwt beam="2">  1       -3 0.53452024E-02 0.91443537E+02</pdfrwt>
<totfact> 0.34774905E+04</totfact>
</mgrwt>
</event>
<event>
 5    1  0.7431090E-001  0.9488059E+02  0.7818608E-02  0.1291445E+00
          3   -1    0    0  501    0  0.00000000000E+00  0.00000000000E+00  0.36321897109E+02  0.36322016169E+02  0.93000000000E-01 0. -1.
         -3   -1    0    0    0  501 -0.00000000000E+00 -0.00000000000E+00 -0.61961863415E+02  0.61961933208E+02  0.93000000000E-01 0.  1.
         23    2    1    2    0    0  0.00000000000E+00  0.00000000000E+00 -0.25639966307E+02  0.98283949377E+02  0.94880592499E+02 0.  0.
        -11    1    3    3    0    0 -0.39818061749E+01  0.30445163913E+02 -0.50280953252E+02  0.58914659010E+02  0.51100000000E-03 0.  1.
         11    1    3    3    0    0  0.39818061749E+01 -0.30445163913E+02  0.24640986945E+02  0.39369290367E+02  0.51100000000E-03 0. -1.
<mgrwt>
<rscale>  0 0.94880592E+02</rscale>
<asrwt>0</asrwt>
<pdfrwt beam="1">  1        3 0.55879987E-02 0.94880592E+02</pdfrwt>
<pdfrwt beam="2">  1       -3 0.95326089E-02 0.94880592E+02</pdfrwt>
<totfact> 0.31212187E+04</totfact>
</mgrwt>
</event>
<event>
 5    1  0.7431090E-001  0.9055721E+02  0.7818608E-02  0.1301508E+00
         -3   -1    0    0    0  501 -0.00000000000E+00  0.00000000000E+00  0.14663264688E+03  0.14663267637E+03  0.93000000000E-01 0.  1.
          3   -1    0    0  501    0  0.00000000000E+00 -0.00000000000E+00 -0.13981367096E+02  0.13981676397E+02  0.93000000000E-01 0. -1.
         23    2    1    2    0    0  0.00000000000E+00  0.00000000000E+00  0.13265127978E+03  0.16061435277E+03  0.90557210022E+02 0.  0.
        -11    1    3    3    0    0  0.20083283568E+02 -0.37923113630E+02  0.91945208256E+02  0.10146635969E+03  0.51100000000E-03 0.  1.
         11    1    3    3    0    0 -0.20083283568E+02  0.37923113630E+02  0.40706071526E+02  0.59147993082E+02  0.51100000000E-03 0. -1.
<mgrwt>
<rscale>  0 0.90557210E+02</rscale>
<asrwt>0</asrwt>
<pdfrwt beam="2">  1        3 0.21510057E-02 0.90557210E+02</pdfrwt>
<pdfrwt beam="1">  1       -3 0.22558894E-01 0.90557210E+02</pdfrwt>
<totfact> 0.31241173E+04</totfact>
</mgrwt>
</event>
<event>
 5    1  0.7431090E-001  0.9194193E+02  0.7818608E-02  0.1298216E+00
         -3   -1    0    0    0  501 -0.00000000000E+00  0.00000000000E+00  0.11070698162E+03  0.11070702068E+03  0.93000000000E-01 0.  1.
          3   -1    0    0  501    0  0.00000000000E+00 -0.00000000000E+00 -0.19089243065E+02  0.19089469605E+02  0.93000000000E-01 0. -1.
         23    2    1    2    0    0  0.00000000000E+00  0.00000000000E+00  0.91617738552E+02  0.12979649029E+03  0.91941932071E+02 0.  0.
        -11    1    3    3    0    0  0.27055357075E+02  0.10570312092E+02  0.96110699254E+02  0.10040413515E+03  0.51100000000E-03 0.  1.
         11    1    3    3    0    0 -0.27055357075E+02 -0.10570312092E+02 -0.44929607017E+01  0.29392355134E+02  0.51100000000E-03 0. -1.
<mgrwt>
<rscale>  0 0.91941932E+02</rscale>
<asrwt>0</asrwt>
<pdfrwt beam="2">  1        3 0.29368271E-02 0.91941932E+02</pdfrwt>
<pdfrwt beam="1">  1       -3 0.17031864E-01 0.91941932E+02</pdfrwt>
<totfact> 0.31858785E+04</totfact>
</mgrwt>
</event>
<event>
 5    1  0.7431090E-001  0.9216662E+02  0.7818608E-02  0.1297688E+00
          3   -1    0    0  501    0  0.00000000000E+00  0.00000000000E+00  0.24498373221E+02  0.24498549742E+02  0.93000000000E-01 0.  1.
         -3   -1    0    0    0  501 -0.00000000000E+00 -0.00000000000E+00 -0.86685704944E+02  0.86685754831E+02  0.93000000000E-01 0. -1.
         23    2    1    2    0    0  0.00000000000E+00  0.00000000000E+00 -0.62187331723E+02  0.11118430457E+03  0.92166617365E+02 0.  0.
        -11    1    3    3    0    0 -0.12861357347E+02 -0.37494610278E+02 -0.27405361513E+01  0.39733749525E+02  0.51100000000E-03 0.  1.
         11    1    3    3    0    0  0.12861357347E+02  0.37494610278E+02 -0.59446795572E+02  0.71450555048E+02  0.51100000000E-03 0. -1.
<mgrwt>
<rscale>  0 0.92166617E+02</rscale>
<asrwt>0</asrwt>
<pdfrwt beam="1">  1        3 0.37689979E-02 0.92166617E+02</pdfrwt>
<pdfrwt beam="2">  1       -3 0.13336280E-01 0.92166617E+02</pdfrwt>
<totfact> 0.32880645E+04</totfact>
</mgrwt>
</event>
<event>
 5    1  0.7431090E-001  0.9298154E+02  0.7818608E-02  0.1295788E+00
          3   -1    0    0  501    0  0.00000000000E+00  0.00000000000E+00  0.15681992515E+02  0.15682268275E+02  0.93000000000E-01 0. -1.
         -3   -1    0    0    0  501 -0.00000000000E+00 -0.00000000000E+00 -0.13782484219E+03  0.13782487356E+03  0.93000000000E-01 0.  1.
         23    2    1    2    0    0  0.00000000000E+00  0.00000000000E+00 -0.12214284967E+03  0.15350714184E+03  0.92981540476E+02 0.  0.
        -11    1    3    3    0    0  0.31642639442E+02 -0.10817988245E+02 -0.11439215836E+03  0.11917991188E+03  0.51100000000E-03 0.  1.
         11    1    3    3    0    0 -0.31642639442E+02  0.10817988245E+02 -0.77506913075E+01  0.34327229957E+02  0.51100000000E-03 0. -1.
<mgrwt>
<rscale>  0 0.92981540E+02</rscale>
<asrwt>0</asrwt>
<pdfrwt beam="1">  1        3 0.24126379E-02 0.92981540E+02</pdfrwt>
<pdfrwt beam="2">  1       -3 0.21203845E-01 0.92981540E+02</pdfrwt>
<totfact> 0.29483625E+04</totfact>
</mgrwt>
</event>
<event>
 5    1  0.7431090E-001  0.9112945E+02  0.7818608E-02  0.1300139E+00
         -3   -1    0    0    0  501 -0.00000000000E+00  0.00000000000E+00  0.82443704581E+01  0.82448949811E+01  0.93000000000E-01 0.  1.
          3   -1    0    0  501    0  0.00000000000E+00 -0.00000000000E+00 -0.25181715128E+03  0.25181716846E+03  0.93000000000E-01 0. -1.
         23    2    1    2    0    0  0.00000000000E+00  0.00000000000E+00 -0.24357278083E+03  0.26006206344E+03  0.91129453419E+02 0.  0.
        -11    1    3    3    0    0 -0.25404144249E+02 -0.26396025544E+02 -0.19910308045E+03  0.20244544291E+03  0.51100000000E-03 0. -1.
         11    1    3    3    0    0  0.25404144249E+02  0.26396025544E+02 -0.44469700378E+02  0.57616620532E+02  0.51100000000E-03 0.  1.
<mgrwt>
<rscale>  0 0.91129453E+02</rscale>
<asrwt>0</asrwt>
<pdfrwt beam="2">  1        3 0.38741136E-01 0.91129453E+02</pdfrwt>
<pdfrwt beam="1">  1       -3 0.12684065E-02 0.91129453E+02</pdfrwt>
<totfact> 0.25699281E+04</totfact>
</mgrwt>
</event>
<event>
 5    1  0.7431090E-001  0.9269836E+02  0.7818608E-02  0.1296446E+00
          3   -1    0    0  501    0  0.00000000000E+00  0.00000000000E+00  0.93510154562E+02  0.93510200809E+02  0.93000000000E-01 0. -1.
         -3   -1    0    0    0  501 -0.00000000000E+00 -0.00000000000E+00 -0.22973258018E+02  0.22973446257E+02  0.93000000000E-01 0.  1.
         23    2    1    2    0    0  0.00000000000E+00  0.00000000000E+00  0.70536896545E+02  0.11648364707E+03  0.92698361688E+02 0.  0.
        -11    1    3    3    0    0 -0.96068833280E+01 -0.38908553149E+02  0.60118295248E+01  0.40525421773E+02  0.51100000000E-03 0.  1.
         11    1    3    3    0    0  0.96068833280E+01  0.38908553149E+02  0.64525067020E+02  0.75958225293E+02  0.51100000000E-03 0. -1.
<mgrwt>
<rscale>  0 0.92698362E+02</rscale>
<asrwt>0</asrwt>
<pdfrwt beam="1">  1        3 0.14386196E-01 0.92698362E+02</pdfrwt>
<pdfrwt beam="2">  1       -3 0.35343655E-02 0.92698362E+02</pdfrwt>
<totfact> 0.32012515E+04</totfact>
</mgrwt>
</event>
<event>
 5    1  0.7431090E-001  0.9097066E+02  0.7818608E-02  0.1300518E+00
         -3   -1    0    0    0  501 -0.00000000000E+00  0.00000000000E+00  0.16495409179E+02  0.16495671341E+02  0.93000000000E-01 0.  1.
          3   -1    0    0  501    0  0.00000000000E+00 -0.00000000000E+00 -0.12542241421E+03  0.12542244869E+03  0.93000000000E-01 0. -1.
         23    2    1    2    0    0  0.00000000000E+00  0.00000000000E+00 -0.10892700503E+03  0.14191812003E+03  0.90970656633E+02 0.  0.
        -11    1    3    3    0    0  0.35616653828E+02  0.26659404779E+02 -0.69234167137E+02  0.82296049677E+02  0.51100000000E-03 0. -1.
         11    1    3    3    0    0 -0.35616653828E+02 -0.26659404779E+02 -0.39692837897E+02  0.59622070357E+02  0.51100000000E-03 0.  1.
<mgrwt>
<rscale>  0 0.90970657E+02</rscale>
<asrwt>0</asrwt>
<pdfrwt beam="2">  1        3 0.19295778E-01 0.90970657E+02</pdfrwt>
<pdfrwt beam="1">  1       -3 0.25377782E-02 0.90970657E+02</pdfrwt>
<totfact> 0.32004686E+04</totfact>
</mgrwt>
</event>
<event>
 5    1  0.7431090E-001  0.9003546E+02  0.7818608E-02  0.1302766E+00
          3   -1    0    0  501    0  0.00000000000E+00  0.00000000000E+00  0.47315833553E+02  0.47315924949E+02  0.93000000000E-01 0. -1.
         -3   -1    0    0    0  501 -0.00000000000E+00 -0.00000000000E+00 -0.42831056883E+02  0.42831157849E+02  0.93000000000E-01 0.  1.
         23    2    1    2    0    0  0.00000000000E+00  0.00000000000E+00  0.44847766696E+01  0.90147082799E+02  0.90035455879E+02 0.  0.
        -11    1    3    3    0    0 -0.12139920915E+02 -0.58034531237E+01 -0.40770599856E+02  0.42933664656E+02  0.51100000000E-03 0.  1.
         11    1    3    3    0    0  0.12139920915E+02  0.58034531237E+01  0.45255376525E+02  0.47213418142E+02  0.51100000000E-03 0. -1.
<mgrwt>
<rscale>  0 0.90035456E+02</rscale>
<asrwt>0</asrwt>
<pdfrwt beam="1">  1        3 0.72793738E-02 0.90035456E+02</pdfrwt>
<pdfrwt beam="2">  1       -3 0.65894082E-02 0.90035456E+02</pdfrwt>
<totfact> 0.36652417E+04</totfact>
</mgrwt>
</event>
<event>
 5    1  0.7431090E-001  0.9232064E+02  0.7818608E-02  0.1297327E+00
         -3   -1    0    0    0  501 -0.00000000000E+00  0.00000000000E+00  0.39842753301E+02  0.39842861840E+02  0.93000000000E-01 0.  1.
          3   -1    0    0  501    0  0.00000000000E+00 -0.00000000000E+00 -0.53479389164E+02  0.53479470027E+02  0.93000000000E-01 0. -1.
         23    2    1    2    0    0  0.00000000000E+00  0.00000000000E+00 -0.13636635863E+02  0.93322331867E+02  0.92320635762E+02 0.  0.
        -11    1    3    3    0    0 -0.27433060577E+02  0.17082608188E+02  0.26499688055E+02  0.41792604398E+02  0.51100000000E-03 0.  1.
         11    1    3    3    0    0  0.27433060577E+02 -0.17082608188E+02 -0.40136323918E+02  0.51529727469E+02  0.51100000000E-03 0. -1.
<mgrwt>
<rscale>  0 0.92320636E+02</rscale>
<asrwt>0</asrwt>
<pdfrwt beam="2">  1        3 0.82276129E-02 0.92320636E+02</pdfrwt>
<pdfrwt beam="1">  1       -3 0.61296689E-02 0.92320636E+02</pdfrwt>
<totfact> 0.33997496E+04</totfact>
</mgrwt>
</event>
<event>
 5    1  0.7431090E-001  0.9146670E+02  0.7818608E-02  0.1299338E+00
         -3   -1    0    0    0  501 -0.00000000000E+00  0.00000000000E+00  0.29769090825E+02  0.29769236093E+02  0.93000000000E-01 0.  1.
          3   -1    0    0  501    0  0.00000000000E+00 -0.00000000000E+00 -0.70258412435E+02  0.70258473986E+02  0.93000000000E-01 0. -1.
         23    2    1    2    0    0  0.00000000000E+00  0.00000000000E+00 -0.40489321610E+02  0.10002771008E+03  0.91466702244E+02 0.  0.
        -11    1    3    3    0    0 -0.36525445928E+02 -0.18005509059E+02 -0.43007057836E+02  0.59227642032E+02  0.51100000000E-03 0. -1.
         11    1    3    3    0    0  0.36525445928E+02  0.18005509059E+02  0.25177362267E+01  0.40800068047E+02  0.51100000000E-03 0.  1.
<mgrwt>
<rscale>  0 0.91466702E+02</rscale>
<asrwt>0</asrwt>
<pdfrwt beam="2">  1        3 0.10809002E-01 0.91466702E+02</pdfrwt>
<pdfrwt beam="1">  1       -3 0.45798761E-02 0.91466702E+02</pdfrwt>
<totfact> 0.34370164E+04</totfact>
</mgrwt>
</event>
<event>
 5    1  0.7431090E-001  0.9098833E+02  0.7818608E-02  0.1300476E+00
         -3   -1    0    0    0  501 -0.00000000000E+00  0.00000000000E+00  0.15412862870E+02  0.15413143445E+02  0.93000000000E-01 0.  1.
          3   -1    0    0  501    0  0.00000000000E+00 -0.00000000000E+00 -0.13428367336E+03  0.13428370557E+03  0.93000000000E-01 0. -1.
         23    2    1    2    0    0  0.00000000000E+00  0.00000000000E+00 -0.11887081049E+03  0.14969684901E+03  0.90988334510E+02 0.  0.
        -11    1    3    3    0    0  0.15557125514E+02  0.39570614207E+02 -0.86058764003E+02  0.95989418818E+02  0.51100000000E-03 0. -1.
         11    1    3    3    0    0 -0.15557125514E+02 -0.39570614207E+02 -0.32812046490E+02  0.53707430194E+02  0.51100000000E-03 0.  1.
<mgrwt>
<rscale>  0 0.90988335E+02</rscale>
<asrwt>0</asrwt>
<pdfrwt beam="2">  1        3 0.20659050E-01 0.90988335E+02</pdfrwt>
<pdfrwt beam="1">  1       -3 0.23712338E-02 0.90988335E+02</pdfrwt>
<totfact> 0.31501752E+04</totfact>
</mgrwt>
</event>
<event>
 5    1  0.7431090E-001  0.8986446E+02  0.7818608E-02  0.1303180E+00
          3   -1    0    0  501    0  0.00000000000E+00  0.00000000000E+00  0.83483395367E+02  0.83483447168E+02  0.93000000000E-01 0. -1.
         -3   -1    0    0    0  501 -0.00000000000E+00 -0.00000000000E+00 -0.24183167600E+02  0.24183346422E+02  0.93000000000E-01 0.  1.
         23    2    1    2    0    0  0.00000000000E+00  0.00000000000E+00  0.59300227767E+02  0.10766679359E+03  0.89864461434E+02 0.  0.
        -11    1    3    3    0    0  0.27087414231E+02 -0.12723186015E+02 -0.10505038123E+02  0.31716924477E+02  0.51100000000E-03 0.  1.
         11    1    3    3    0    0 -0.27087414231E+02  0.12723186015E+02  0.69805265890E+02  0.75949869113E+02  0.51100000000E-03 0. -1.
<mgrwt>
<rscale>  0 0.89864461E+02</rscale>
<asrwt>0</asrwt>
<pdfrwt beam="1">  1        3 0.12843617E-01 0.89864461E+02</pdfrwt>
<pdfrwt beam="2">  1       -3 0.37205050E-02 0.89864461E+02</pdfrwt>
<totfact> 0.35480327E+04</totfact>
</mgrwt>
</event>
<event>
 5    1  0.7431090E-001  0.9224368E+02  0.7818608E-02  0.1297507E+00
         -3   -1    0    0    0  501 -0.00000000000E+00  0.00000000000E+00  0.12265187338E+03  0.12265190864E+03  0.93000000000E-01 0.  1.
          3   -1    0    0  501    0  0.00000000000E+00 -0.00000000000E+00 -0.17343430650E+02  0.17343679994E+02  0.93000000000E-01 0. -1.
         23    2    1    2    0    0  0.00000000000E+00  0.00000000000E+00  0.10530844273E+03  0.13999558864E+03  0.92243681228E+02 0.  0.
        -11    1    3    3    0    0  0.23793160704E+02 -0.16680982702E+02  0.10701259142E+03  0.11088762060E+03  0.51100000000E-03 0.  1.
         11    1    3    3    0    0 -0.23793160704E+02  0.16680982702E+02 -0.17041486836E+01  0.29107968036E+02  0.51100000000E-03 0. -1.
<mgrwt>
<rscale>  0 0.92243681E+02</rscale>
<asrwt>0</asrwt>
<pdfrwt beam="2">  1        3 0.26682419E-02 0.92243681E+02</pdfrwt>
<pdfrwt beam="1">  1       -3 0.18869542E-01 0.92243681E+02</pdfrwt>
<totfact> 0.30938616E+04</totfact>
</mgrwt>
</event>
<event>
 5    1  0.7431090E-001  0.9213108E+02  0.7818608E-02  0.1297772E+00
         -3   -1    0    0    0  501 -0.00000000000E+00  0.00000000000E+00  0.16185496930E+02  0.16185764112E+02  0.93000000000E-01 0.  1.
          3   -1    0    0  501    0  0.00000000000E+00 -0.00000000000E+00 -0.13110575004E+03  0.13110578302E+03  0.93000000000E-01 0. -1.
         23    2    1    2    0    0  0.00000000000E+00  0.00000000000E+00 -0.11492025311E+03  0.14729154713E+03  0.92131076640E+02 0.  0.
        -11    1    3    3    0    0 -0.47315897925E+01  0.20198997694E+02 -0.12321477623E+03  0.12494906375E+03  0.51100000000E-03 0. -1.
         11    1    3    3    0    0  0.47315897925E+01 -0.20198997694E+02  0.82945231218E+01  0.22342483387E+02  0.51100000000E-03 0.  1.
<mgrwt>
<rscale>  0 0.92131077E+02</rscale>
<asrwt>0</asrwt>
<pdfrwt beam="2">  1        3 0.20170138E-01 0.92131077E+02</pdfrwt>
<pdfrwt beam="1">  1       -3 0.24900996E-02 0.92131077E+02</pdfrwt>
<totfact> 0.30596461E+04</totfact>
</mgrwt>
</event>
<event>
 5    1  0.7431090E-001  0.8646029E+02  0.7818608E-02  0.1311657E+00
         -3   -1    0    0    0  501 -0.00000000000E+00  0.00000000000E+00  0.92340857568E+02  0.92340904400E+02  0.93000000000E-01 0.  1.
          3   -1    0    0  501    0  0.00000000000E+00 -0.00000000000E+00 -0.20238395977E+02  0.20238609654E+02  0.93000000000E-01 0. -1.
         23    2    1    2    0    0  0.00000000000E+00  0.00000000000E+00  0.72102461591E+02  0.11257951405E+03  0.86460291563E+02 0.  0.
        -11    1    3    3    0    0 -0.28425325991E+02 -0.31600692805E+02  0.46323973233E+02  0.62869018123E+02  0.51100000000E-03 0. -1.
         11    1    3    3    0    0  0.28425325991E+02  0.31600692805E+02  0.25778488358E+02  0.49710495931E+02  0.51100000000E-03 0.  1.
<mgrwt>
<rscale>  0 0.86460292E+02</rscale>
<asrwt>0</asrwt>
<pdfrwt beam="2">  1        3 0.31136194E-02 0.86460292E+02</pdfrwt>
<pdfrwt beam="1">  1       -3 0.14206306E-01 0.86460292E+02</pdfrwt>
<totfact> 0.38981226E+04</totfact>
</mgrwt>
</event>
<event>
 5    1  0.7431090E-001  0.9348230E+02  0.7818608E-02  0.1294631E+00
          3   -1    0    0  501    0  0.00000000000E+00  0.00000000000E+00  0.31193251521E+02  0.31193390157E+02  0.93000000000E-01 0. -1.
         -3   -1    0    0    0  501 -0.00000000000E+00 -0.00000000000E+00 -0.70038388742E+02  0.70038450487E+02  0.93000000000E-01 0.  1.
         23    2    1    2    0    0  0.00000000000E+00  0.00000000000E+00 -0.38845137221E+02  0.10123184064E+03  0.93482302466E+02 0.  0.
        -11    1    3    3    0    0  0.20026625099E+02  0.52277046353E+01  0.25960316795E+02  0.33201395407E+02  0.51100000000E-03 0. -1.
         11    1    3    3    0    0 -0.20026625099E+02 -0.52277046353E+01 -0.64805454016E+02  0.68030445237E+02  0.51100000000E-03 0.  1.
<mgrwt>
<rscale>  0 0.93482302E+02</rscale>
<asrwt>0</asrwt>
<pdfrwt beam="1">  1        3 0.47989772E-02 0.93482302E+02</pdfrwt>
<pdfrwt beam="2">  1       -3 0.10775152E-01 0.93482302E+02</pdfrwt>
<totfact> 0.32302382E+04</totfact>
</mgrwt>
</event>
<event>
 5    1  0.7431090E-001  0.8967677E+02  0.7818608E-02  0.1303636E+00
          3   -1    0    0  501    0  0.00000000000E+00  0.00000000000E+00  0.24395609646E+02  0.24395786911E+02  0.93000000000E-01 0.  1.
         -3   -1    0    0    0  501 -0.00000000000E+00 -0.00000000000E+00 -0.82411077054E+02  0.82411129528E+02  0.93000000000E-01 0. -1.
         23    2    1    2    0    0  0.00000000000E+00  0.00000000000E+00 -0.58015467407E+02  0.10680691644E+03  0.89676769237E+02 0.  0.
        -11    1    3    3    0    0  0.25940010238E+02  0.35647936187E+02 -0.38743647485E+02  0.58691819755E+02  0.51100000000E-03 0.  1.
         11    1    3    3    0    0 -0.25940010238E+02 -0.35647936187E+02 -0.19271819922E+02  0.48115096684E+02  0.51100000000E-03 0. -1.
<mgrwt>
<rscale>  0 0.89676769E+02</rscale>
<asrwt>0</asrwt>
<pdfrwt beam="1">  1        3 0.37531884E-02 0.89676769E+02</pdfrwt>
<pdfrwt beam="2">  1       -3 0.12678645E-01 0.89676769E+02</pdfrwt>
<totfact> 0.35748500E+04</totfact>
</mgrwt>
</event>
<event>
 5    1  0.7431090E-001  0.8883512E+02  0.7818608E-02  0.1305697E+00
          3   -1    0    0  501    0  0.00000000000E+00  0.00000000000E+00  0.16206461806E+03  0.16206464474E+03  0.93000000000E-01 0. -1.
         -3   -1    0    0    0  501 -0.00000000000E+00 -0.00000000000E+00 -0.12173456370E+02  0.12173811605E+02  0.93000000000E-01 0.  1.
         23    2    1    2    0    0  0.00000000000E+00  0.00000000000E+00  0.14989116169E+03  0.17423845635E+03  0.88835124349E+02 0.  0.
        -11    1    3    3    0    0 -0.19764713581E+02 -0.34504260277E+02  0.36125735851E+02  0.53723892927E+02  0.51100000000E-03 0.  1.
         11    1    3    3    0    0  0.19764713581E+02  0.34504260277E+02  0.11376542584E+03  0.12051456342E+03  0.51100000000E-03 0. -1.
<mgrwt>
<rscale>  0 0.88835124E+02</rscale>
<asrwt>0</asrwt>
<pdfrwt beam="1">  1        3 0.24933048E-01 0.88835124E+02</pdfrwt>
<pdfrwt beam="2">  1       -3 0.18728688E-02 0.88835124E+02</pdfrwt>
<totfact> 0.32057330E+04</totfact>
</mgrwt>
</event>
<event>
 5    1  0.7431090E-001  0.9991999E+02  0.7818608E-02  0.1280464E+00
          3   -1    0    0  501    0  0.00000000000E+00  0.00000000000E+00  0.10069210410E+03  0.10069214704E+03  0.93000000000E-01 0. -1.
         -3   -1    0    0    0  501 -0.00000000000E+00 -0.00000000000E+00 -0.24788313501E+02  0.24788487957E+02  0.93000000000E-01 0.  1.
         23    2    1    2    0    0  0.00000000000E+00  0.00000000000E+00  0.75903790594E+02  0.12548063500E+03  0.99919989659E+02 0.  0.
        -11    1    3    3    0    0  0.26135981957E+01 -0.45815957902E+02  0.13149444634E+02  0.47737205495E+02  0.51100000000E-03 0.  1.
         11    1    3    3    0    0 -0.26135981957E+01  0.45815957902E+02  0.62754345961E+02  0.77743429505E+02  0.51100000000E-03 0. -1.
<mgrwt>
<rscale>  0 0.99919990E+02</rscale>
<asrwt>0</asrwt>
<pdfrwt beam="1">  1        3 0.15491110E-01 0.99919990E+02</pdfrwt>
<pdfrwt beam="2">  1       -3 0.38136034E-02 0.99919990E+02</pdfrwt>
<totfact> 0.25598726E+04</totfact>
</mgrwt>
</event>
<event>
 5    1  0.7431090E-001  0.8792140E+02  0.7818608E-02  0.1307965E+00
          3   -1    0    0  501    0  0.00000000000E+00  0.00000000000E+00  0.14134810011E+02  0.14135115954E+02  0.93000000000E-01 0. -1.
         -3   -1    0    0    0  501 -0.00000000000E+00 -0.00000000000E+00 -0.13672046458E+03  0.13672049621E+03  0.93000000000E-01 0.  1.
         23    2    1    2    0    0  0.00000000000E+00  0.00000000000E+00 -0.12258565457E+03  0.15085561217E+03  0.87921402489E+02 0.  0.
        -11    1    3    3    0    0  0.13659652149E+02  0.35496690314E+02 -0.23469551231E+02  0.44692515652E+02  0.51100000000E-03 0. -1.
         11    1    3    3    0    0 -0.13659652149E+02 -0.35496690314E+02 -0.99116103339E+02  0.10616309651E+03  0.51100000000E-03 0.  1.
<mgrwt>
<rscale>  0 0.87921402E+02</rscale>
<asrwt>0</asrwt>
<pdfrwt beam="1">  1        3 0.21746122E-02 0.87921402E+02</pdfrwt>
<pdfrwt beam="2">  1       -3 0.21033943E-01 0.87921402E+02</pdfrwt>
<totfact> 0.34477605E+04</totfact>
</mgrwt>
</event>
<event>
 5    1  0.7431090E-001  0.9327753E+02  0.7818608E-02  0.1295103E+00
         -3   -1    0    0    0  501 -0.00000000000E+00  0.00000000000E+00  0.14256130460E+03  0.14256133493E+03  0.93000000000E-01 0.  1.
          3   -1    0    0  501    0  0.00000000000E+00 -0.00000000000E+00 -0.15257644412E+02  0.15257927841E+02  0.93000000000E-01 0. -1.
         23    2    1    2    0    0  0.00000000000E+00  0.00000000000E+00  0.12730366019E+03  0.15781926277E+03  0.93277531087E+02 0.  0.
        -11    1    3    3    0    0  0.16887050811E+02 -0.42630063539E+02  0.49227708408E+02  0.67274527704E+02  0.51100000000E-03 0.  1.
         11    1    3    3    0    0 -0.16887050811E+02  0.42630063539E+02  0.78075951779E+02  0.90544735070E+02  0.51100000000E-03 0. -1.
<mgrwt>
<rscale>  0 0.93277531E+02</rscale>
<asrwt>0</asrwt>
<pdfrwt beam="2">  1        3 0.23473540E-02 0.93277531E+02</pdfrwt>
<pdfrwt beam="1">  1       -3 0.21932533E-01 0.93277531E+02</pdfrwt>
<totfact> 0.28987582E+04</totfact>
</mgrwt>
</event>
<event>
 5    1  0.7431090E-001  0.9086924E+02  0.7818608E-02  0.1300760E+00
          3   -1    0    0  501    0  0.00000000000E+00  0.00000000000E+00  0.29719453442E+03  0.29719454897E+03  0.93000000000E-01 0. -1.
         -3   -1    0    0    0  501 -0.00000000000E+00 -0.00000000000E+00 -0.69456457729E+01  0.69462683653E+01  0.93000000000E-01 0.  1.
         23    2    1    2    0    0  0.00000000000E+00  0.00000000000E+00  0.29024888865E+03  0.30414081734E+03  0.90869243472E+02 0.  0.
        -11    1    3    3    0    0  0.10846004791E+01 -0.38861564145E+02  0.66422770583E+02  0.76963510693E+02  0.51100000000E-03 0.  1.
         11    1    3    3    0    0 -0.10846004791E+01  0.38861564145E+02  0.22382611807E+03  0.22717730665E+03  0.51100000000E-03 0. -1.
<mgrwt>
<rscale>  0 0.90869243E+02</rscale>
<asrwt>0</asrwt>
<pdfrwt beam="1">  1        3 0.45722277E-01 0.90869243E+02</pdfrwt>
<pdfrwt beam="2">  1       -3 0.10686101E-02 0.90869243E+02</pdfrwt>
<totfact> 0.24089310E+04</totfact>
</mgrwt>
</event>
<event>
 5    1  0.7431090E-001  0.8816982E+02  0.7818608E-02  0.1307345E+00
         -3   -1    0    0    0  501 -0.00000000000E+00  0.00000000000E+00  0.20914920994E+02  0.20915127759E+02  0.93000000000E-01 0.  1.
          3   -1    0    0  501    0  0.00000000000E+00 -0.00000000000E+00 -0.92922406625E+02  0.92922453164E+02  0.93000000000E-01 0. -1.
         23    2    1    2    0    0  0.00000000000E+00  0.00000000000E+00 -0.72007485631E+02  0.11383758092E+03  0.88169818212E+02 0.  0.
        -11    1    3    3    0    0 -0.33086846787E+02  0.28702512270E+02 -0.29560359722E+02  0.52843055439E+02  0.51100000000E-03 0.  1.
         11    1    3    3    0    0  0.33086846787E+02 -0.28702512270E+02 -0.42447125909E+02  0.60994525485E+02  0.51100000000E-03 0. -1.
<mgrwt>
<rscale>  0 0.88169818E+02</rscale>
<asrwt>0</asrwt>
<pdfrwt beam="2">  1        3 0.14295774E-01 0.88169818E+02</pdfrwt>
<pdfrwt beam="1">  1       -3 0.32176997E-02 0.88169818E+02</pdfrwt>
<totfact> 0.36874411E+04</totfact>
</mgrwt>
</event>
<event>
 5    1  0.7431090E-001  0.9178028E+02  0.7818608E-02  0.1298597E+00
         -3   -1    0    0    0  501 -0.00000000000E+00  0.00000000000E+00  0.35621407041E+02  0.35621528442E+02  0.93000000000E-01 0.  1.
          3   -1    0    0  501    0  0.00000000000E+00 -0.00000000000E+00 -0.59118826658E+02  0.59118899808E+02  0.93000000000E-01 0. -1.
         23    2    1    2    0    0  0.00000000000E+00  0.00000000000E+00 -0.23497419618E+02  0.94740428250E+02  0.91780281195E+02 0.  0.
        -11    1    3    3    0    0 -0.21275997391E+02 -0.35377134750E+00  0.30221106702E+02  0.36960905152E+02  0.51100000000E-03 0.  1.
         11    1    3    3    0    0  0.21275997391E+02  0.35377134750E+00 -0.53718526320E+02  0.57779523097E+02  0.51100000000E-03 0. -1.
<mgrwt>
<rscale>  0 0.91780281E+02</rscale>
<asrwt>0</asrwt>
<pdfrwt beam="2">  1        3 0.90952191E-02 0.91780281E+02</pdfrwt>
<pdfrwt beam="1">  1       -3 0.54802314E-02 0.91780281E+02</pdfrwt>
<totfact> 0.34440764E+04</totfact>
</mgrwt>
</event>
<event>
 5    1  0.7431090E-001  0.9072968E+02  0.7818608E-02  0.1301094E+00
          3   -1    0    0  501    0  0.00000000000E+00  0.00000000000E+00  0.13669475764E+03  0.13669478928E+03  0.93000000000E-01 0. -1.
         -3   -1    0    0    0  501 -0.00000000000E+00 -0.00000000000E+00 -0.15055035810E+02  0.15055323053E+02  0.93000000000E-01 0.  1.
         23    2    1    2    0    0  0.00000000000E+00  0.00000000000E+00  0.12163972183E+03  0.15175011233E+03  0.90729679076E+02 0.  0.
        -11    1    3    3    0    0 -0.28076249157E+02 -0.21746477424E+02  0.10803158333E+03  0.11371898717E+03  0.51100000000E-03 0. -1.
         11    1    3    3    0    0  0.28076249157E+02  0.21746477424E+02  0.13608138506E+02  0.38031125160E+02  0.51100000000E-03 0.  1.
<mgrwt>
<rscale>  0 0.90729679E+02</rscale>
<asrwt>0</asrwt>
<pdfrwt beam="1">  1        3 0.21029986E-01 0.90729679E+02</pdfrwt>
<pdfrwt beam="2">  1       -3 0.23161840E-02 0.90729679E+02</pdfrwt>
<totfact> 0.31618009E+04</totfact>
</mgrwt>
</event>
<event>
 5    1  0.7431090E-001  0.9325431E+02  0.7818608E-02  0.1295157E+00
         -3   -1    0    0    0  501 -0.00000000000E+00  0.00000000000E+00  0.16277420135E+02  0.16277685807E+02  0.93000000000E-01 0.  1.
          3   -1    0    0  501    0  0.00000000000E+00 -0.00000000000E+00 -0.13356349554E+03  0.13356352792E+03  0.93000000000E-01 0. -1.
         23    2    1    2    0    0  0.00000000000E+00  0.00000000000E+00 -0.11728607541E+03  0.14984121373E+03  0.93254307391E+02 0.  0.
        -11    1    3    3    0    0 -0.27747249369E+02 -0.67018088577E+01  0.59693195285E+00  0.28551364548E+02  0.51100000000E-03 0.  1.
         11    1    3    3    0    0  0.27747249369E+02  0.67018088577E+01 -0.11788300736E+03  0.12128984918E+03  0.51100000000E-03 0. -1.
<mgrwt>
<rscale>  0 0.93254307E+02</rscale>
<asrwt>0</asrwt>
<pdfrwt beam="2">  1        3 0.20548252E-01 0.93254307E+02</pdfrwt>
<pdfrwt beam="1">  1       -3 0.25042415E-02 0.93254307E+02</pdfrwt>
<totfact> 0.29458104E+04</totfact>
</mgrwt>
</event>
<event>
 5    1  0.7431090E-001  0.9025758E+02  0.7818608E-02  0.1302229E+00
          3   -1    0    0  501    0  0.00000000000E+00  0.00000000000E+00  0.19682097549E+03  0.19682099747E+03  0.93000000000E-01 0. -1.
         -3   -1    0    0    0  501 -0.00000000000E+00 -0.00000000000E+00 -0.10347282278E+02  0.10347700205E+02  0.93000000000E-01 0.  1.
         23    2    1    2    0    0  0.00000000000E+00  0.00000000000E+00  0.18647369322E+03  0.20716869767E+03  0.90257581582E+02 0.  0.
        -11    1    3    3    0    0  0.29455031166E+02  0.30865145667E+02  0.59475436357E+02  0.73195516311E+02  0.51100000000E-03 0.  1.
         11    1    3    3    0    0 -0.29455031166E+02 -0.30865145667E+02  0.12699825686E+03  0.13397318136E+03  0.51100000000E-03 0. -1.
<mgrwt>
<rscale>  0 0.90257582E+02</rscale>
<asrwt>0</asrwt>
<pdfrwt beam="1">  1        3 0.30280180E-01 0.90257582E+02</pdfrwt>
<pdfrwt beam="2">  1       -3 0.15919236E-02 0.90257582E+02</pdfrwt>
<totfact> 0.28910138E+04</totfact>
</mgrwt>
</event>
<event>
 5    1  0.7431090E-001  0.9193530E+02  0.7818608E-02  0.1298232E+00
         -3   -1    0    0    0  501 -0.00000000000E+00  0.00000000000E+00  0.93151521149E+02  0.93151567573E+02  0.93000000000E-01 0.  1.
          3   -1    0    0  501    0  0.00000000000E+00 -0.00000000000E+00 -0.22683590531E+02  0.22683781174E+02  0.93000000000E-01 0. -1.
         23    2    1    2    0    0  0.00000000000E+00  0.00000000000E+00  0.70467930618E+02  0.11583534875E+03  0.91935296671E+02 0.  0.
        -11    1    3    3    0    0 -0.85357214448E+01  0.21271311723E+02  0.85438471802E+02  0.88459367549E+02  0.51100000000E-03 0. -1.
         11    1    3    3    0    0  0.85357214448E+01 -0.21271311723E+02 -0.14970541184E+02  0.27375981199E+02  0.51100000000E-03 0.  1.
<mgrwt>
<rscale>  0 0.91935297E+02</rscale>
<asrwt>0</asrwt>
<pdfrwt beam="2">  1        3 0.34898015E-02 0.91935297E+02</pdfrwt>
<pdfrwt beam="1">  1       -3 0.14331021E-01 0.91935297E+02</pdfrwt>
<totfact> 0.32787367E+04</totfact>
</mgrwt>
</event>
<event>
 5    1  0.7431090E-001  0.9719927E+02  0.7818608E-02  0.1286298E+00
          3   -1    0    0  501    0  0.00000000000E+00  0.00000000000E+00  0.44988984130E+02  0.44989080253E+02  0.93000000000E-01 0. -1.
         -3   -1    0    0    0  501 -0.00000000000E+00 -0.00000000000E+00 -0.52499875312E+02  0.52499957684E+02  0.93000000000E-01 0.  1.
         23    2    1    2    0    0  0.00000000000E+00  0.00000000000E+00 -0.75108911823E+01  0.97489037937E+02  0.97199274851E+02 0.  0.
        -11    1    3    3    0    0 -0.12961985137E+02 -0.74956411975E+01 -0.50128840106E+02  0.52317284967E+02  0.51100000000E-03 0.  1.
         11    1    3    3    0    0  0.12961985137E+02  0.74956411975E+01  0.42617948924E+02  0.45171752970E+02  0.51100000000E-03 0. -1.
<mgrwt>
<rscale>  0 0.97199275E+02</rscale>
<asrwt>0</asrwt>
<pdfrwt beam="1">  1        3 0.69213959E-02 0.97199275E+02</pdfrwt>
<pdfrwt beam="2">  1       -3 0.80769176E-02 0.97199275E+02</pdfrwt>
<totfact> 0.29261603E+04</totfact>
</mgrwt>
</event>
<event>
 5    1  0.7431090E-001  0.7852754E+02  0.7818608E-02  0.1333283E+00
          3   -1    0    0  501    0  0.00000000000E+00  0.00000000000E+00  0.42103827248E+02  0.42103929959E+02  0.93000000000E-01 0. -1.
         -3   -1    0    0    0  501 -0.00000000000E+00 -0.00000000000E+00 -0.36615081384E+02  0.36615199491E+02  0.93000000000E-01 0.  1.
         23    2    1    2    0    0  0.00000000000E+00  0.00000000000E+00  0.54887458639E+01  0.78719129450E+02  0.78527543004E+02 0.  0.
        -11    1    3    3    0    0 -0.38913574778E+02 -0.13818717222E+01  0.78032564261E+01  0.39712298883E+02  0.51100000000E-03 0. -1.
         11    1    3    3    0    0  0.38913574778E+02  0.13818717222E+01 -0.23145105622E+01  0.39006830567E+02  0.51100000000E-03 0.  1.
<mgrwt>
<rscale>  0 0.78527543E+02</rscale>
<asrwt>0</asrwt>
<pdfrwt beam="1">  1        3 0.64775289E-02 0.78527543E+02</pdfrwt>
<pdfrwt beam="2">  1       -3 0.56331064E-02 0.78527543E+02</pdfrwt>
<totfact> 0.54383317E+04</totfact>
</mgrwt>
</event>
<event>
 5    1  0.7431090E-001  0.8925805E+02  0.7818608E-02  0.1304658E+00
          3   -1    0    0  501    0  0.00000000000E+00  0.00000000000E+00  0.65712994665E+02  0.65713060474E+02  0.93000000000E-01 0. -1.
         -3   -1    0    0    0  501 -0.00000000000E+00 -0.00000000000E+00 -0.30309680164E+02  0.30309822840E+02  0.93000000000E-01 0.  1.
         23    2    1    2    0    0  0.00000000000E+00  0.00000000000E+00  0.35403314501E+02  0.96022883314E+02  0.89258049734E+02 0.  0.
        -11    1    3    3    0    0  0.24725887939E+02 -0.17296585712E+02  0.53075485633E+02  0.61053653348E+02  0.51100000000E-03 0. -1.
         11    1    3    3    0    0 -0.24725887939E+02  0.17296585712E+02 -0.17672171131E+02  0.34969229966E+02  0.51100000000E-03 0.  1.
<mgrwt>
<rscale>  0 0.89258050E+02</rscale>
<asrwt>0</asrwt>
<pdfrwt beam="1">  1        3 0.10109708E-01 0.89258050E+02</pdfrwt>
<pdfrwt beam="2">  1       -3 0.46630438E-02 0.89258050E+02</pdfrwt>
<totfact> 0.37047754E+04</totfact>
</mgrwt>
</event>
<event>
 5    1  0.7431090E-001  0.9123554E+02  0.7818608E-02  0.1299887E+00
         -3   -1    0    0    0  501 -0.00000000000E+00  0.00000000000E+00  0.68413942602E+02  0.68414005812E+02  0.93000000000E-01 0.  1.
          3   -1    0    0  501    0  0.00000000000E+00 -0.00000000000E+00 -0.30417351386E+02  0.30417493558E+02  0.93000000000E-01 0. -1.
         23    2    1    2    0    0  0.00000000000E+00  0.00000000000E+00  0.37996591215E+02  0.98831499371E+02  0.91235543095E+02 0.  0.
        -11    1    3    3    0    0 -0.27807559298E+02  0.20954004536E+02  0.50924981506E+02  0.61690229387E+02  0.51100000000E-03 0.  1.
         11    1    3    3    0    0  0.27807559298E+02 -0.20954004536E+02 -0.12928390290E+02  0.37141269983E+02  0.51100000000E-03 0. -1.
<mgrwt>
<rscale>  0 0.91235543E+02</rscale>
<asrwt>0</asrwt>
<pdfrwt beam="2">  1        3 0.46796083E-02 0.91235543E+02</pdfrwt>
<pdfrwt beam="1">  1       -3 0.10525238E-01 0.91235543E+02</pdfrwt>
<totfact> 0.34698169E+04</totfact>
</mgrwt>
</event>
<event>
 5    1  0.7431090E-001  0.8743295E+02  0.7818608E-02  0.1309190E+00
          3   -1    0    0  501    0  0.00000000000E+00  0.00000000000E+00  0.38977422926E+01  0.38988516231E+01  0.93000000000E-01 0. -1.
         -3   -1    0    0    0  501 -0.00000000000E+00 -0.00000000000E+00 -0.49024631632E+03  0.49024632514E+03  0.93000000000E-01 0.  1.
         23    2    1    2    0    0  0.00000000000E+00  0.00000000000E+00 -0.48634857403E+03  0.49414517676E+03  0.87432947227E+02 0.  0.
        -11    1    3    3    0    0  0.87391508781E+01 -0.42815628208E+02 -0.25027676856E+03  0.25406300726E+03  0.51100000000E-03 0.  1.
         11    1    3    3    0    0 -0.87391508781E+01  0.42815628208E+02 -0.23607180547E+03  0.24008216950E+03  0.51100000000E-03 0. -1.
<mgrwt>
<rscale>  0 0.87432947E+02</rscale>
<asrwt>0</asrwt>
<pdfrwt beam="1">  1        3 0.59973906E-03 0.87432947E+02</pdfrwt>
<pdfrwt beam="2">  1       -3 0.75422547E-01 0.87432947E+02</pdfrwt>
<totfact> 0.20161150E+04</totfact>
</mgrwt>
</event>
<event>
 5    1  0.7431090E-001  0.9136392E+02  0.7818608E-02  0.1299582E+00
          3   -1    0    0  501    0  0.00000000000E+00  0.00000000000E+00  0.24945633096E+02  0.24945806452E+02  0.93000000000E-01 0. -1.
         -3   -1    0    0    0  501 -0.00000000000E+00 -0.00000000000E+00 -0.83655092695E+02  0.83655144389E+02  0.93000000000E-01 0.  1.
         23    2    1    2    0    0  0.00000000000E+00  0.00000000000E+00 -0.58709459599E+02  0.10860095084E+03  0.91363919997E+02 0.  0.
        -11    1    3    3    0    0 -0.48181155538E+01  0.45346310305E+02 -0.26134488690E+02  0.52559619435E+02  0.51100000000E-03 0.  1.
         11    1    3    3    0    0  0.48181155538E+01 -0.45346310305E+02 -0.32574970909E+02  0.56041331406E+02  0.51100000000E-03 0. -1.
<mgrwt>
<rscale>  0 0.91363920E+02</rscale>
<asrwt>0</asrwt>
<pdfrwt beam="1">  1        3 0.38378070E-02 0.91363920E+02</pdfrwt>
<pdfrwt beam="2">  1       -3 0.12870031E-01 0.91363920E+02</pdfrwt>
<totfact> 0.33856909E+04</totfact>
</mgrwt>
</event>
<event>
 5    1  0.7431090E-001  0.9189164E+02  0.7818608E-02  0.1298334E+00
         -3   -1    0    0    0  501 -0.00000000000E+00  0.00000000000E+00  0.57399334194E+02  0.57399409534E+02  0.93000000000E-01 0.  1.
          3   -1    0    0  501    0  0.00000000000E+00 -0.00000000000E+00 -0.36777595336E+02  0.36777712921E+02  0.93000000000E-01 0. -1.
         23    2    1    2    0    0  0.00000000000E+00  0.00000000000E+00  0.20621738858E+02  0.94177122455E+02  0.91891644236E+02 0.  0.
        -11    1    3    3    0    0  0.19217585444E+02  0.38739036689E+02 -0.55990844000E+01  0.43604796757E+02  0.51100000000E-03 0.  1.
         11    1    3    3    0    0 -0.19217585444E+02 -0.38739036689E+02  0.26220823258E+02  0.50572325698E+02  0.51100000000E-03 0. -1.
<mgrwt>
<rscale>  0 0.91891644E+02</rscale>
<asrwt>0</asrwt>
<pdfrwt beam="2">  1        3 0.56581065E-02 0.91891644E+02</pdfrwt>
<pdfrwt beam="1">  1       -3 0.88306816E-02 0.91891644E+02</pdfrwt>
<totfact> 0.34369738E+04</totfact>
</mgrwt>
</event>
<event>
 5    1  0.7431090E-001  0.8981599E+02  0.7818608E-02  0.1303298E+00
          3   -1    0    0  501    0  0.00000000000E+00  0.00000000000E+00  0.89824154959E+01  0.89828969236E+01  0.93000000000E-01 0. -1.
         -3   -1    0    0    0  501 -0.00000000000E+00 -0.00000000000E+00 -0.22451307129E+03  0.22451309055E+03  0.93000000000E-01 0.  1.
         23    2    1    2    0    0  0.00000000000E+00  0.00000000000E+00 -0.21553065579E+03  0.23349598747E+03  0.89815992897E+02 0.  0.
        -11    1    3    3    0    0  0.23050734901E+02  0.37309894085E+02 -0.82645626755E+02  0.93561018582E+02  0.51100000000E-03 0. -1.
         11    1    3    3    0    0 -0.23050734901E+02 -0.37309894085E+02 -0.13288502904E+03  0.13993496889E+03  0.51100000000E-03 0.  1.
<mgrwt>
<rscale>  0 0.89815993E+02</rscale>
<asrwt>0</asrwt>
<pdfrwt beam="1">  1        3 0.13819488E-02 0.89815993E+02</pdfrwt>
<pdfrwt beam="2">  1       -3 0.34540507E-01 0.89815993E+02</pdfrwt>
<totfact> 0.27958634E+04</totfact>
</mgrwt>
</event>
<event>
 5    1  0.7431090E-001  0.9227357E+02  0.7818608E-02  0.1297437E+00
          3   -1    0    0  501    0  0.00000000000E+00  0.00000000000E+00  0.35868083144E+02  0.35868203711E+02  0.93000000000E-01 0. -1.
         -3   -1    0    0    0  501 -0.00000000000E+00 -0.00000000000E+00 -0.59345061925E+02  0.59345134796E+02  0.93000000000E-01 0.  1.
         23    2    1    2    0    0  0.00000000000E+00  0.00000000000E+00 -0.23476978781E+02  0.95213338506E+02  0.92273567704E+02 0.  0.
        -11    1    3    3    0    0  0.12097824692E+02  0.77846527598E+01 -0.56971658937E+02  0.58759919190E+02  0.51100000000E-03 0.  1.
         11    1    3    3    0    0 -0.12097824692E+02 -0.77846527598E+01  0.33494680156E+02  0.36453419317E+02  0.51100000000E-03 0. -1.
<mgrwt>
<rscale>  0 0.92273568E+02</rscale>
<asrwt>0</asrwt>
<pdfrwt beam="1">  1        3 0.55181815E-02 0.92273568E+02</pdfrwt>
<pdfrwt beam="2">  1       -3 0.91300244E-02 0.92273568E+02</pdfrwt>
<totfact> 0.33906470E+04</totfact>
</mgrwt>
</event>
<event>
 5    1  0.7431090E-001  0.9003177E+02  0.7818608E-02  0.1302775E+00
         -3   -1    0    0    0  501 -0.00000000000E+00  0.00000000000E+00  0.55165144548E+02  0.55165222940E+02  0.93000000000E-01 0.  1.
          3   -1    0    0  501    0  0.00000000000E+00 -0.00000000000E+00 -0.36733716003E+02  0.36733833729E+02  0.93000000000E-01 0. -1.
         23    2    1    2    0    0  0.00000000000E+00  0.00000000000E+00  0.18431428545E+02  0.91899056669E+02  0.90031766940E+02 0.  0.
        -11    1    3    3    0    0 -0.38342909842E+02 -0.48742685914E+00  0.33284707585E+02  0.50776845899E+02  0.51100000000E-03 0.  1.
         11    1    3    3    0    0  0.38342909842E+02  0.48742685914E+00 -0.14853279040E+02  0.41122210770E+02  0.51100000000E-03 0. -1.
<mgrwt>
<rscale>  0 0.90031767E+02</rscale>
<asrwt>0</asrwt>
<pdfrwt beam="2">  1        3 0.56513560E-02 0.90031767E+02</pdfrwt>
<pdfrwt beam="1">  1       -3 0.84869604E-02 0.90031767E+02</pdfrwt>
<totfact> 0.36517312E+04</totfact>
</mgrwt>
</event>
<event>
 5    1  0.7431090E-001  0.9121596E+02  0.7818608E-02  0.1299934E+00
          3   -1    0    0  501    0  0.00000000000E+00  0.00000000000E+00  0.14070066926E+02  0.14070374277E+02  0.93000000000E-01 0. -1.
         -3   -1    0    0    0  501 -0.00000000000E+00 -0.00000000000E+00 -0.14783586510E+03  0.14783589435E+03  0.93000000000E-01 0.  1.
         23    2    1    2    0    0  0.00000000000E+00  0.00000000000E+00 -0.13376579817E+03  0.16190626863E+03  0.91215958363E+02 0.  0.
        -11    1    3    3    0    0 -0.40331012925E+02 -0.11139707648E+02 -0.99097838733E+02  0.10756888645E+03  0.51100000000E-03 0.  1.
         11    1    3    3    0    0  0.40331012925E+02  0.11139707648E+02 -0.34667959437E+02  0.54337382177E+02  0.51100000000E-03 0. -1.
<mgrwt>
<rscale>  0 0.91215958E+02</rscale>
<asrwt>0</asrwt>
<pdfrwt beam="1">  1        3 0.21646517E-02 0.91215958E+02</pdfrwt>
<pdfrwt beam="2">  1       -3 0.22744004E-01 0.91215958E+02</pdfrwt>
<totfact> 0.30559273E+04</totfact>
</mgrwt>
</event>
<event>
 5    1  0.7431090E-001  0.9214513E+02  0.7818608E-02  0.1297739E+00
         -3   -1    0    0    0  501 -0.00000000000E+00  0.00000000000E+00  0.33464091668E+03  0.33464092960E+03  0.93000000000E-01 0.  1.
          3   -1    0    0  501    0  0.00000000000E+00 -0.00000000000E+00 -0.63428070527E+01  0.63434888120E+01  0.93000000000E-01 0. -1.
         23    2    1    2    0    0  0.00000000000E+00  0.00000000000E+00  0.32829810963E+03  0.34098441841E+03  0.92145129099E+02 0.  0.
        -11    1    3    3    0    0  0.13128109715E+02 -0.39944709249E+02  0.94450160487E+02  0.10338645887E+03  0.51100000000E-03 0. -1.
         11    1    3    3    0    0 -0.13128109715E+02  0.39944709249E+02  0.23384794914E+03  0.23759795954E+03  0.51100000000E-03 0.  1.
<mgrwt>
<rscale>  0 0.92145129E+02</rscale>
<asrwt>0</asrwt>
<pdfrwt beam="2">  1        3 0.97586945E-03 0.92145129E+02</pdfrwt>
<pdfrwt beam="1">  1       -3 0.51483295E-01 0.92145129E+02</pdfrwt>
<totfact> 0.21887314E+04</totfact>
</mgrwt>
</event>
<event>
 5    1  0.7431090E-001  0.9171194E+02  0.7818608E-02  0.1298758E+00
          3   -1    0    0  501    0  0.00000000000E+00  0.00000000000E+00  0.48050373591E+02  0.48050463590E+02  0.93000000000E-01 0. -1.
         -3   -1    0    0    0  501 -0.00000000000E+00 -0.00000000000E+00 -0.43761602080E+02  0.43761700899E+02  0.93000000000E-01 0.  1.
         23    2    1    2    0    0  0.00000000000E+00  0.00000000000E+00  0.42887715112E+01  0.91812164489E+02  0.91711940265E+02 0.  0.
        -11    1    3    3    0    0  0.17920780934E+02  0.15069929524E+02 -0.37326011748E+02  0.44062323116E+02  0.51100000000E-03 0.  1.
         11    1    3    3    0    0 -0.17920780934E+02 -0.15069929524E+02  0.41614783259E+02  0.47749841373E+02  0.51100000000E-03 0. -1.
<mgrwt>
<rscale>  0 0.91711940E+02</rscale>
<asrwt>0</asrwt>
<pdfrwt beam="1">  1        3 0.73923797E-02 0.91711940E+02</pdfrwt>
<pdfrwt beam="2">  1       -3 0.67325687E-02 0.91711940E+02</pdfrwt>
<totfact> 0.34730405E+04</totfact>
</mgrwt>
</event>
<event>
 5    1  0.7431090E-001  0.8888835E+02  0.7818608E-02  0.1305566E+00
          3   -1    0    0  501    0  0.00000000000E+00  0.00000000000E+00  0.40879455055E+02  0.40879560842E+02  0.93000000000E-01 0. -1.
         -3   -1    0    0    0  501 -0.00000000000E+00 -0.00000000000E+00 -0.48319526854E+02  0.48319616352E+02  0.93000000000E-01 0.  1.
         23    2    1    2    0    0  0.00000000000E+00  0.00000000000E+00 -0.74400717985E+01  0.89199177194E+02  0.88888348751E+02 0.  0.
        -11    1    3    3    0    0 -0.13398237433E+02 -0.24234601467E+02 -0.38604449256E+02  0.47509285168E+02  0.51100000000E-03 0.  1.
         11    1    3    3    0    0  0.13398237433E+02  0.24234601467E+02  0.31164377457E+02  0.41689892026E+02  0.51100000000E-03 0. -1.
<mgrwt>
<rscale>  0 0.88888349E+02</rscale>
<asrwt>0</asrwt>
<pdfrwt beam="1">  1        3 0.62891620E-02 0.88888349E+02</pdfrwt>
<pdfrwt beam="2">  1       -3 0.74337884E-02 0.88888349E+02</pdfrwt>
<totfact> 0.38030085E+04</totfact>
</mgrwt>
</event>
<event>
 5    1  0.7431090E-001  0.9207704E+02  0.7818608E-02  0.1297898E+00
          3   -1    0    0  501    0  0.00000000000E+00  0.00000000000E+00  0.13885713283E+02  0.13886024715E+02  0.93000000000E-01 0. -1.
         -3   -1    0    0    0  501 -0.00000000000E+00 -0.00000000000E+00 -0.15264014306E+03  0.15264017139E+03  0.93000000000E-01 0.  1.
         23    2    1    2    0    0  0.00000000000E+00  0.00000000000E+00 -0.13875442978E+03  0.16652619610E+03  0.92077044950E+02 0.  0.
        -11    1    3    3    0    0 -0.33239008489E+02 -0.12756735756E+02 -0.12216649947E+03  0.12724865259E+03  0.51100000000E-03 0.  1.
         11    1    3    3    0    0  0.33239008489E+02  0.12756735756E+02 -0.16587930303E+02  0.39277543514E+02  0.51100000000E-03 0. -1.
<mgrwt>
<rscale>  0 0.92077045E+02</rscale>
<asrwt>0</asrwt>
<pdfrwt beam="1">  1        3 0.21362898E-02 0.92077045E+02</pdfrwt>
<pdfrwt beam="2">  1       -3 0.23483124E-01 0.92077045E+02</pdfrwt>
<totfact> 0.29529172E+04</totfact>
</mgrwt>
</event>
<event>
 5    1  0.7431090E-001  0.9287914E+02  0.7818608E-02  0.1296026E+00
         -3   -1    0    0    0  501 -0.00000000000E+00  0.00000000000E+00  0.15177516718E+02  0.15177801643E+02  0.93000000000E-01 0.  1.
          3   -1    0    0  501    0  0.00000000000E+00 -0.00000000000E+00 -0.14209234369E+03  0.14209237412E+03  0.93000000000E-01 0. -1.
         23    2    1    2    0    0  0.00000000000E+00  0.00000000000E+00 -0.12691482697E+03  0.15727017577E+03  0.92879141257E+02 0.  0.
        -11    1    3    3    0    0 -0.44565247198E+02  0.81814970999E+01 -0.80695243559E+02  0.92545775085E+02  0.51100000000E-03 0.  1.
         11    1    3    3    0    0  0.44565247198E+02 -0.81814970999E+01 -0.46219583413E+02  0.64724400683E+02  0.51100000000E-03 0. -1.
<mgrwt>
<rscale>  0 0.92879141E+02</rscale>
<asrwt>0</asrwt>
<pdfrwt beam="2">  1        3 0.21860384E-01 0.92879141E+02</pdfrwt>
<pdfrwt beam="1">  1       -3 0.23350269E-02 0.92879141E+02</pdfrwt>
<totfact> 0.29356914E+04</totfact>
</mgrwt>
</event>
<event>
 5    1  0.7431090E-001  0.9307121E+02  0.7818608E-02  0.1295580E+00
         -3   -1    0    0    0  501 -0.00000000000E+00  0.00000000000E+00  0.67942178240E+02  0.67942241890E+02  0.93000000000E-01 0.  1.
          3   -1    0    0  501    0  0.00000000000E+00 -0.00000000000E+00 -0.31873466176E+02  0.31873601852E+02  0.93000000000E-01 0. -1.
         23    2    1    2    0    0  0.00000000000E+00  0.00000000000E+00  0.36068712065E+02  0.99815843743E+02  0.93071212907E+02 0.  0.
        -11    1    3    3    0    0 -0.25340149994E+02 -0.33131972679E+02  0.40162346689E+02  0.57903928253E+02  0.51100000000E-03 0.  1.
         11    1    3    3    0    0  0.25340149994E+02  0.33131972679E+02 -0.40936346244E+01  0.41911915489E+02  0.51100000000E-03 0. -1.
<mgrwt>
<rscale>  0 0.93071213E+02</rscale>
<asrwt>0</asrwt>
<pdfrwt beam="2">  1        3 0.49036256E-02 0.93071213E+02</pdfrwt>
<pdfrwt beam="1">  1       -3 0.10452658E-01 0.93071213E+02</pdfrwt>
<totfact> 0.32792514E+04</totfact>
</mgrwt>
</event>
<event>
 5    1  0.7431090E-001  0.9285988E+02  0.7818608E-02  0.1296070E+00
         -3   -1    0    0    0  501 -0.00000000000E+00  0.00000000000E+00  0.11852585854E+03  0.11852589503E+03  0.93000000000E-01 0.  1.
          3   -1    0    0  501    0  0.00000000000E+00 -0.00000000000E+00 -0.18187766063E+02  0.18188003831E+02  0.93000000000E-01 0. -1.
         23    2    1    2    0    0  0.00000000000E+00  0.00000000000E+00  0.10033809248E+03  0.13671389886E+03  0.92859880137E+02 0.  0.
        -11    1    3    3    0    0 -0.40816945408E+02  0.22064900496E+02  0.52657326203E+02  0.70183166568E+02  0.51100000000E-03 0. -1.
         11    1    3    3    0    0  0.40816945408E+02 -0.22064900496E+02  0.47680766277E+02  0.66530732292E+02  0.51100000000E-03 0.  1.
<mgrwt>
<rscale>  0 0.92859880E+02</rscale>
<asrwt>0</asrwt>
<pdfrwt beam="2">  1        3 0.27981390E-02 0.92859880E+02</pdfrwt>
<pdfrwt beam="1">  1       -3 0.18234768E-01 0.92859880E+02</pdfrwt>
<totfact> 0.30582257E+04</totfact>
</mgrwt>
</event>
<event>
 5    1  0.7431090E-001  0.9173624E+02  0.7818608E-02  0.1298701E+00
          3   -1    0    0  501    0  0.00000000000E+00  0.00000000000E+00  0.30816381150E+03  0.30816382554E+03  0.93000000000E-01 0. -1.
         -3   -1    0    0    0  501 -0.00000000000E+00 -0.00000000000E+00 -0.68268316216E+01  0.68274650485E+01  0.93000000000E-01 0.  1.
         23    2    1    2    0    0  0.00000000000E+00  0.00000000000E+00  0.30133697988E+03  0.31499129059E+03  0.91736239841E+02 0.  0.
        -11    1    3    3    0    0 -0.94614555318E-01  0.45467064801E+02  0.17144753684E+03  0.17737395757E+03  0.51100000000E-03 0. -1.
         11    1    3    3    0    0  0.94614555318E-01 -0.45467064801E+02  0.12988944304E+03  0.13761733302E+03  0.51100000000E-03 0.  1.
<mgrwt>
<rscale>  0 0.91736240E+02</rscale>
<asrwt>0</asrwt>
<pdfrwt beam="1">  1        3 0.47409861E-01 0.91736240E+02</pdfrwt>
<pdfrwt beam="2">  1       -3 0.10503317E-02 0.91736240E+02</pdfrwt>
<totfact> 0.23080149E+04</totfact>
</mgrwt>
</event>
<event>
 5    1  0.7431090E-001  0.9104424E+02  0.7818608E-02  0.1300342E+00
          3   -1    0    0  501    0  0.00000000000E+00  0.00000000000E+00  0.38126021744E+02  0.38126135171E+02  0.93000000000E-01 0. -1.
         -3   -1    0    0    0  501 -0.00000000000E+00 -0.00000000000E+00 -0.54352757860E+02  0.54352837423E+02  0.93000000000E-01 0.  1.
         23    2    1    2    0    0  0.00000000000E+00  0.00000000000E+00 -0.16226736115E+02  0.92478972594E+02  0.91044238736E+02 0.  0.
        -11    1    3    3    0    0  0.46795922208E+01 -0.15821090362E+02  0.34982314229E+02  0.38677742859E+02  0.51100000000E-03 0. -1.
         11    1    3    3    0    0 -0.46795922208E+01  0.15821090362E+02 -0.51209050344E+02  0.53801229735E+02  0.51100000000E-03 0.  1.
<mgrwt>
<rscale>  0 0.91044239E+02</rscale>
<asrwt>0</asrwt>
<pdfrwt beam="1">  1        3 0.58655566E-02 0.91044239E+02</pdfrwt>
<pdfrwt beam="2">  1       -3 0.83619776E-02 0.91044239E+02</pdfrwt>
<totfact> 0.35379720E+04</totfact>
</mgrwt>
</event>
<event>
 5    1  0.7431090E-001  0.9075324E+02  0.7818608E-02  0.1301038E+00
          3   -1    0    0  501    0  0.00000000000E+00  0.00000000000E+00  0.17996317600E+03  0.17996320003E+03  0.93000000000E-01 0. -1.
         -3   -1    0    0    0  501 -0.00000000000E+00 -0.00000000000E+00 -0.11441225350E+02  0.11441603319E+02  0.93000000000E-01 0.  1.
         23    2    1    2    0    0  0.00000000000E+00  0.00000000000E+00  0.16852195065E+03  0.19140480335E+03  0.90753241783E+02 0.  0.
        -11    1    3    3    0    0  0.98016362988E+01 -0.38305893003E+02  0.13121436401E+03  0.13704241254E+03  0.51100000000E-03 0. -1.
         11    1    3    3    0    0 -0.98016362988E+01  0.38305893003E+02  0.37307586639E+02  0.54362390805E+02  0.51100000000E-03 0.  1.
<mgrwt>
<rscale>  0 0.90753242E+02</rscale>
<asrwt>0</asrwt>
<pdfrwt beam="1">  1        3 0.27686672E-01 0.90753242E+02</pdfrwt>
<pdfrwt beam="2">  1       -3 0.17602195E-02 0.90753242E+02</pdfrwt>
<totfact> 0.29315014E+04</totfact>
</mgrwt>
</event>
<event>
 5    1  0.7431090E-001  0.9135179E+02  0.7818608E-02  0.1299611E+00
          3   -1    0    0  501    0  0.00000000000E+00  0.00000000000E+00  0.24066912795E+02  0.24067092481E+02  0.93000000000E-01 0. -1.
         -3   -1    0    0    0  501 -0.00000000000E+00 -0.00000000000E+00 -0.86686421334E+02  0.86686471221E+02  0.93000000000E-01 0.  1.
         23    2    1    2    0    0  0.00000000000E+00  0.00000000000E+00 -0.62619508539E+02  0.11075356370E+03  0.91351787190E+02 0.  0.
        -11    1    3    3    0    0  0.35730525796E+02 -0.99146917065E+01 -0.63644678620E+02  0.73658785642E+02  0.51100000000E-03 0.  1.
         11    1    3    3    0    0 -0.35730525796E+02  0.99146917065E+01  0.10251700811E+01  0.37094778059E+02  0.51100000000E-03 0. -1.
<mgrwt>
<rscale>  0 0.91351787E+02</rscale>
<asrwt>0</asrwt>
<pdfrwt beam="1">  1        3 0.37026197E-02 0.91351787E+02</pdfrwt>
<pdfrwt beam="2">  1       -3 0.13336390E-01 0.91351787E+02</pdfrwt>
<totfact> 0.33716288E+04</totfact>
</mgrwt>
</event>
<event>
 5    1  0.7431090E-001  0.8859447E+02  0.7818608E-02  0.1306292E+00
         -3   -1    0    0    0  501 -0.00000000000E+00  0.00000000000E+00  0.16903279470E+03  0.16903282028E+03  0.93000000000E-01 0.  1.
          3   -1    0    0  501    0  0.00000000000E+00 -0.00000000000E+00 -0.11608452964E+02  0.11608825488E+02  0.93000000000E-01 0. -1.
         23    2    1    2    0    0  0.00000000000E+00  0.00000000000E+00  0.15742434174E+03  0.18064164577E+03  0.88594473960E+02 0.  0.
        -11    1    3    3    0    0 -0.40817941369E+02 -0.26848581900E+01  0.44053702049E+02  0.60116898336E+02  0.51100000000E-03 0. -1.
         11    1    3    3    0    0  0.40817941369E+02  0.26848581900E+01  0.11337063969E+03  0.12052474744E+03  0.51100000000E-03 0.  1.
<mgrwt>
<rscale>  0 0.88594474E+02</rscale>
<asrwt>0</asrwt>
<pdfrwt beam="2">  1        3 0.17859466E-02 0.88594474E+02</pdfrwt>
<pdfrwt beam="1">  1       -3 0.26005074E-01 0.88594474E+02</pdfrwt>
<totfact> 0.31906289E+04</totfact>
</mgrwt>
</event>
<event>
 5    1  0.7431090E-001  0.9059012E+02  0.7818608E-02  0.1301429E+00
         -3   -1    0    0    0  501 -0.00000000000E+00  0.00000000000E+00  0.32461783688E+03  0.32461785020E+03  0.93000000000E-01 0.  1.
          3   -1    0    0  501    0  0.00000000000E+00 -0.00000000000E+00 -0.63198225763E+01  0.63205068148E+01  0.93000000000E-01 0. -1.
         23    2    1    2    0    0  0.00000000000E+00  0.00000000000E+00  0.31829801430E+03  0.33093835701E+03  0.90590122172E+02 0.  0.
        -11    1    3    3    0    0 -0.23223874742E+02 -0.35517375273E+02  0.21700374170E+03  0.22111412487E+03  0.51100000000E-03 0.  1.
         11    1    3    3    0    0  0.23223874742E+02  0.35517375273E+02  0.10129427260E+03  0.10982423214E+03  0.51100000000E-03 0. -1.
<mgrwt>
<rscale>  0 0.90590122E+02</rscale>
<asrwt>0</asrwt>
<pdfrwt beam="2">  1        3 0.97233413E-03 0.90590122E+02</pdfrwt>
<pdfrwt beam="1">  1       -3 0.49941256E-01 0.90590122E+02</pdfrwt>
<totfact> 0.23270592E+04</totfact>
</mgrwt>
</event>
<event>
 5    1  0.7431090E-001  0.8290712E+02  0.7818608E-02  0.1320998E+00
         -3   -1    0    0    0  501 -0.00000000000E+00  0.00000000000E+00  0.27879669349E+02  0.27879824462E+02  0.93000000000E-01 0.  1.
          3   -1    0    0  501    0  0.00000000000E+00 -0.00000000000E+00 -0.61635860412E+02  0.61635930574E+02  0.93000000000E-01 0. -1.
         23    2    1    2    0    0  0.00000000000E+00  0.00000000000E+00 -0.33756191063E+02  0.89515755036E+02  0.82907116489E+02 0.  0.
        -11    1    3    3    0    0  0.29967380231E+02  0.20188148658E+02  0.50587130072E+01  0.36485556070E+02  0.51100000000E-03 0.  1.
         11    1    3    3    0    0 -0.29967380231E+02 -0.20188148658E+02 -0.38814904070E+02  0.53030198966E+02  0.51100000000E-03 0. -1.
<mgrwt>
<rscale>  0 0.82907116E+02</rscale>
<asrwt>0</asrwt>
<pdfrwt beam="2">  1        3 0.94824573E-02 0.82907116E+02</pdfrwt>
<pdfrwt beam="1">  1       -3 0.42891973E-02 0.82907116E+02</pdfrwt>
<totfact> 0.45874652E+04</totfact>
</mgrwt>
</event>
<event>
 5    1  0.7431090E-001  0.7103279E+02  0.7818608E-02  0.1356616E+00
         -3   -1    0    0    0  501 -0.00000000000E+00  0.00000000000E+00  0.53892820740E+02  0.53892900982E+02  0.93000000000E-01 0. -1.
          3   -1    0    0  501    0  0.00000000000E+00 -0.00000000000E+00 -0.23405790973E+02  0.23405975734E+02  0.93000000000E-01 0.  1.
         23    2    1    2    0    0  0.00000000000E+00  0.00000000000E+00  0.30487029767E+02  0.77298876716E+02  0.71032790721E+02 0.  0.
        -11    1    3    3    0    0  0.31039554208E+02 -0.17214516932E+02  0.16628935877E+02  0.39195854721E+02  0.51100000000E-03 0.  1.
         11    1    3    3    0    0 -0.31039554208E+02  0.17214516932E+02  0.13858093891E+02  0.38103021995E+02  0.51100000000E-03 0. -1.
<mgrwt>
<rscale>  0 0.71032791E+02</rscale>
<asrwt>0</asrwt>
<pdfrwt beam="2">  1        3 0.36009113E-02 0.71032791E+02</pdfrwt>
<pdfrwt beam="1">  1       -3 0.82912236E-02 0.71032791E+02</pdfrwt>
<totfact> 0.71243057E+04</totfact>
</mgrwt>
</event>
<event>
 5    1  0.7431090E-001  0.9302410E+02  0.7818608E-02  0.1295689E+00
          3   -1    0    0  501    0  0.00000000000E+00  0.00000000000E+00  0.54299069561E+02  0.54299149203E+02  0.93000000000E-01 0. -1.
         -3   -1    0    0    0  501 -0.00000000000E+00 -0.00000000000E+00 -0.39841599129E+02  0.39841707671E+02  0.93000000000E-01 0.  1.
         23    2    1    2    0    0  0.00000000000E+00  0.00000000000E+00  0.14457470432E+02  0.94140856874E+02  0.93024096242E+02 0.  0.
        -11    1    3    3    0    0  0.37727261947E+02  0.14030461089E+02  0.30814543832E+02  0.50692565966E+02  0.51100000000E-03 0. -1.
         11    1    3    3    0    0 -0.37727261947E+02 -0.14030461089E+02 -0.16357073400E+02  0.43448290908E+02  0.51100000000E-03 0.  1.
<mgrwt>
<rscale>  0 0.93024096E+02</rscale>
<asrwt>0</asrwt>
<pdfrwt beam="1">  1        3 0.83537175E-02 0.93024096E+02</pdfrwt>
<pdfrwt beam="2">  1       -3 0.61294913E-02 0.93024096E+02</pdfrwt>
<totfact> 0.33240587E+04</totfact>
</mgrwt>
</event>
<event>
 5    1  0.7431090E-001  0.9216512E+02  0.7818608E-02  0.1297692E+00
         -3   -1    0    0    0  501 -0.00000000000E+00  0.00000000000E+00  0.21776516662E+02  0.21776715247E+02  0.93000000000E-01 0.  1.
          3   -1    0    0  501    0  0.00000000000E+00 -0.00000000000E+00 -0.97517329342E+02  0.97517373688E+02  0.93000000000E-01 0. -1.
         23    2    1    2    0    0  0.00000000000E+00  0.00000000000E+00 -0.75740812680E+02  0.11929408893E+03  0.92165117856E+02 0.  0.
        -11    1    3    3    0    0 -0.37373615028E+02 -0.14289512149E+02 -0.82802388309E+01  0.40860000159E+02  0.51100000000E-03 0.  1.
         11    1    3    3    0    0  0.37373615028E+02  0.14289512149E+02 -0.67460573849E+02  0.78434088775E+02  0.51100000000E-03 0. -1.
<mgrwt>
<rscale>  0 0.92165118E+02</rscale>
<asrwt>0</asrwt>
<pdfrwt beam="2">  1        3 0.15002685E-01 0.92165118E+02</pdfrwt>
<pdfrwt beam="1">  1       -3 0.33502521E-02 0.92165118E+02</pdfrwt>
<totfact> 0.32331730E+04</totfact>
</mgrwt>
</event>
<event>
 5    1  0.7431090E-001  0.9451255E+02  0.7818608E-02  0.1292278E+00
         -3   -1    0    0    0  501 -0.00000000000E+00  0.00000000000E+00  0.62366957311E+02  0.62367026651E+02  0.93000000000E-01 0.  1.
          3   -1    0    0  501    0  0.00000000000E+00 -0.00000000000E+00 -0.35806561410E+02  0.35806682183E+02  0.93000000000E-01 0. -1.
         23    2    1    2    0    0  0.00000000000E+00  0.00000000000E+00  0.26560395902E+02  0.98173708834E+02  0.94512551949E+02 0.  0.
        -11    1    3    3    0    0  0.30203838562E+02  0.61193370407E+01  0.50493059354E+02  0.59154604156E+02  0.51100000000E-03 0.  1.
         11    1    3    3    0    0 -0.30203838562E+02 -0.61193370407E+01 -0.23932663453E+02  0.39019104678E+02  0.51100000000E-03 0. -1.
<mgrwt>
<rscale>  0 0.94512552E+02</rscale>
<asrwt>0</asrwt>
<pdfrwt beam="2">  1        3 0.55087164E-02 0.94512552E+02</pdfrwt>
<pdfrwt beam="1">  1       -3 0.95949311E-02 0.94512552E+02</pdfrwt>
<totfact> 0.31553469E+04</totfact>
</mgrwt>
</event>
<event>
 5    1  0.7431090E-001  0.8995713E+02  0.7818608E-02  0.1302956E+00
          3   -1    0    0  501    0  0.00000000000E+00  0.00000000000E+00  0.32520835656E+02  0.32520968632E+02  0.93000000000E-01 0. -1.
         -3   -1    0    0    0  501 -0.00000000000E+00 -0.00000000000E+00 -0.62208172377E+02  0.62208241894E+02  0.93000000000E-01 0.  1.
         23    2    1    2    0    0  0.00000000000E+00  0.00000000000E+00 -0.29687336721E+02  0.94729210525E+02  0.89957130708E+02 0.  0.
        -11    1    3    3    0    0 -0.29947215893E+02 -0.18629104358E+02  0.14551136798E+02  0.38152520904E+02  0.51100000000E-03 0. -1.
         11    1    3    3    0    0  0.29947215893E+02  0.18629104358E+02 -0.44238473520E+02  0.56576689622E+02  0.51100000000E-03 0.  1.
<mgrwt>
<rscale>  0 0.89957131E+02</rscale>
<asrwt>0</asrwt>
<pdfrwt beam="1">  1        3 0.50032211E-02 0.89957131E+02</pdfrwt>
<pdfrwt beam="2">  1       -3 0.95705036E-02 0.89957131E+02</pdfrwt>
<totfact> 0.36374952E+04</totfact>
</mgrwt>
</event>
<event>
 5    1  0.7431090E-001  0.9024937E+02  0.7818608E-02  0.1302249E+00
         -3   -1    0    0    0  501 -0.00000000000E+00  0.00000000000E+00  0.14531159504E+02  0.14531457103E+02  0.93000000000E-01 0.  1.
          3   -1    0    0  501    0  0.00000000000E+00 -0.00000000000E+00 -0.14012728718E+03  0.14012731804E+03  0.93000000000E-01 0. -1.
         23    2    1    2    0    0  0.00000000000E+00  0.00000000000E+00 -0.12559612768E+03  0.15465877514E+03  0.90249373636E+02 0.  0.
        -11    1    3    3    0    0  0.87420744115E+01 -0.25509527270E+02 -0.79501413240E+00  0.26977618395E+02  0.51100000000E-03 0.  1.
         11    1    3    3    0    0 -0.87420744115E+01  0.25509527270E+02 -0.12480111354E+03  0.12768115675E+03  0.51100000000E-03 0. -1.
<mgrwt>
<rscale>  0 0.90249374E+02</rscale>
<asrwt>0</asrwt>
<pdfrwt beam="2">  1        3 0.21558069E-01 0.90249374E+02</pdfrwt>
<pdfrwt beam="1">  1       -3 0.22355884E-02 0.90249374E+02</pdfrwt>
<totfact> 0.31893530E+04</totfact>
</mgrwt>
</event>
<event>
 5    1  0.7431090E-001  0.9105989E+02  0.7818608E-02  0.1300305E+00
          3   -1    0    0  501    0  0.00000000000E+00  0.00000000000E+00  0.55414534199E+02  0.55414612238E+02  0.93000000000E-01 0. -1.
         -3   -1    0    0    0  501 -0.00000000000E+00 -0.00000000000E+00 -0.37408364971E+02  0.37408480573E+02  0.93000000000E-01 0.  1.
         23    2    1    2    0    0  0.00000000000E+00  0.00000000000E+00  0.18006169228E+02  0.92823092811E+02  0.91059894733E+02 0.  0.
        -11    1    3    3    0    0 -0.14344060635E+02  0.99266925061E+01 -0.33866977574E+02  0.38095452089E+02  0.51100000000E-03 0.  1.
         11    1    3    3    0    0  0.14344060635E+02 -0.99266925061E+01  0.51873146802E+02  0.54727640722E+02  0.51100000000E-03 0. -1.
<mgrwt>
<rscale>  0 0.91059895E+02</rscale>
<asrwt>0</asrwt>
<pdfrwt beam="1">  1        3 0.85253278E-02 0.91059895E+02</pdfrwt>
<pdfrwt beam="2">  1       -3 0.57551480E-02 0.91059895E+02</pdfrwt>
<totfact> 0.35336076E+04</totfact>
</mgrwt>
</event>
<event>
 5    1  0.7431090E-001  0.9114201E+02  0.7818608E-02  0.1300109E+00
         -3   -1    0    0    0  501 -0.00000000000E+00  0.00000000000E+00  0.52858154689E+02  0.52858236502E+02  0.93000000000E-01 0.  1.
          3   -1    0    0  501    0  0.00000000000E+00 -0.00000000000E+00 -0.39288307686E+02  0.39288417756E+02  0.93000000000E-01 0. -1.
         23    2    1    2    0    0  0.00000000000E+00  0.00000000000E+00  0.13569847004E+02  0.92146654259E+02  0.91142005373E+02 0.  0.
        -11    1    3    3    0    0  0.24812488705E+02  0.26809417027E+02 -0.20760800228E+02  0.42016844996E+02  0.51100000000E-03 0. -1.
         11    1    3    3    0    0 -0.24812488705E+02 -0.26809417027E+02  0.34330647232E+02  0.50129809262E+02  0.51100000000E-03 0.  1.
<mgrwt>
<rscale>  0 0.91142005E+02</rscale>
<asrwt>0</asrwt>
<pdfrwt beam="2">  1        3 0.60443698E-02 0.91142005E+02</pdfrwt>
<pdfrwt beam="1">  1       -3 0.81320385E-02 0.91142005E+02</pdfrwt>
<totfact> 0.35301757E+04</totfact>
</mgrwt>
</event>
<event>
 5    1  0.7431090E-001  0.9073504E+02  0.7818608E-02  0.1301081E+00
         -3   -1    0    0    0  501 -0.00000000000E+00  0.00000000000E+00  0.19631125162E+02  0.19631345449E+02  0.93000000000E-01 0.  1.
          3   -1    0    0  501    0  0.00000000000E+00 -0.00000000000E+00 -0.10484347831E+03  0.10484351956E+03  0.93000000000E-01 0. -1.
         23    2    1    2    0    0  0.00000000000E+00  0.00000000000E+00 -0.85212353152E+02  0.12447486501E+03  0.90735036726E+02 0.  0.
        -11    1    3    3    0    0  0.43827756703E+02  0.64677435152E+01 -0.29199350652E+02  0.53059457617E+02  0.51100000000E-03 0.  1.
         11    1    3    3    0    0 -0.43827756703E+02 -0.64677435152E+01 -0.56013002500E+02  0.71415407393E+02  0.51100000000E-03 0. -1.
<mgrwt>
<rscale>  0 0.90735037E+02</rscale>
<asrwt>0</asrwt>
<pdfrwt beam="2">  1        3 0.16129786E-01 0.90735037E+02</pdfrwt>
<pdfrwt beam="1">  1       -3 0.30201933E-02 0.90735037E+02</pdfrwt>
<totfact> 0.33379877E+04</totfact>
</mgrwt>
</event>
<event>
 5    1  0.7431090E-001  0.9144693E+02  0.7818608E-02  0.1299385E+00
         -3   -1    0    0    0  501 -0.00000000000E+00  0.00000000000E+00  0.17025564901E+03  0.17025567442E+03  0.93000000000E-01 0.  1.
          3   -1    0    0  501    0  0.00000000000E+00 -0.00000000000E+00 -0.12279185511E+02  0.12279537687E+02  0.93000000000E-01 0. -1.
         23    2    1    2    0    0  0.00000000000E+00  0.00000000000E+00  0.15797646350E+03  0.18253521210E+03  0.91446927974E+02 0.  0.
        -11    1    3    3    0    0 -0.45668767931E+02  0.19237821254E+01  0.76714229406E+02  0.89299553726E+02  0.51100000000E-03 0.  1.
         11    1    3    3    0    0  0.45668767931E+02 -0.19237821254E+01  0.81262234098E+02  0.93235658376E+02  0.51100000000E-03 0. -1.
<mgrwt>
<rscale>  0 0.91446928E+02</rscale>
<asrwt>0</asrwt>
<pdfrwt beam="2">  1        3 0.18891346E-02 0.91446928E+02</pdfrwt>
<pdfrwt beam="1">  1       -3 0.26193205E-01 0.91446928E+02</pdfrwt>
<totfact> 0.29192121E+04</totfact>
</mgrwt>
</event>
<event>
 5    1  0.7431090E-001  0.9185157E+02  0.7818608E-02  0.1298429E+00
         -3   -1    0    0    0  501 -0.00000000000E+00  0.00000000000E+00  0.29466307449E+02  0.29466454210E+02  0.93000000000E-01 0.  1.
          3   -1    0    0  501    0  0.00000000000E+00 -0.00000000000E+00 -0.71578947716E+02  0.71579008132E+02  0.93000000000E-01 0. -1.
         23    2    1    2    0    0  0.00000000000E+00  0.00000000000E+00 -0.42112640267E+02  0.10104546234E+03  0.91851570426E+02 0.  0.
        -11    1    3    3    0    0 -0.30768736255E+02  0.32737010856E+02 -0.31536175979E+02  0.54890412698E+02  0.51100000000E-03 0.  1.
         11    1    3    3    0    0  0.30768736255E+02 -0.32737010856E+02 -0.10576464288E+02  0.46155049644E+02  0.51100000000E-03 0. -1.
<mgrwt>
<rscale>  0 0.91851570E+02</rscale>
<asrwt>0</asrwt>
<pdfrwt beam="2">  1        3 0.11012162E-01 0.91851570E+02</pdfrwt>
<pdfrwt beam="1">  1       -3 0.45332940E-02 0.91851570E+02</pdfrwt>
<totfact> 0.33905015E+04</totfact>
</mgrwt>
</event>
<event>
 5    1  0.7431090E-001  0.9076778E+02  0.7818608E-02  0.1301003E+00
         -3   -1    0    0    0  501 -0.00000000000E+00  0.00000000000E+00  0.63831429266E+01  0.63838203782E+01  0.93000000000E-01 0.  1.
          3   -1    0    0  501    0  0.00000000000E+00 -0.00000000000E+00 -0.32265984379E+03  0.32265985719E+03  0.93000000000E-01 0. -1.
         23    2    1    2    0    0  0.00000000000E+00  0.00000000000E+00 -0.31627670086E+03  0.32904367757E+03  0.90767781950E+02 0.  0.
        -11    1    3    3    0    0 -0.35941423267E+02 -0.16943920978E+02 -0.78648639137E+02  0.88116348103E+02  0.51100000000E-03 0.  1.
         11    1    3    3    0    0  0.35941423267E+02  0.16943920978E+02 -0.23762806172E+03  0.24092732946E+03  0.51100000000E-03 0. -1.
<mgrwt>
<rscale>  0 0.90767782E+02</rscale>
<asrwt>0</asrwt>
<pdfrwt beam="2">  1        3 0.49640016E-01 0.90767782E+02</pdfrwt>
<pdfrwt beam="1">  1       -3 0.98207538E-03 0.90767782E+02</pdfrwt>
<totfact> 0.23227557E+04</totfact>
</mgrwt>
</event>
<event>
 5    1  0.7431090E-001  0.8907404E+02  0.7818608E-02  0.1305110E+00
         -3   -1    0    0    0  501 -0.00000000000E+00  0.00000000000E+00  0.12611963040E+02  0.12612305924E+02  0.93000000000E-01 0.  1.
          3   -1    0    0  501    0  0.00000000000E+00 -0.00000000000E+00 -0.15727248177E+03  0.15727250927E+03  0.93000000000E-01 0. -1.
         23    2    1    2    0    0  0.00000000000E+00  0.00000000000E+00 -0.14466051873E+03  0.16988481519E+03  0.89074040850E+02 0.  0.
        -11    1    3    3    0    0 -0.42698316631E+02  0.12591692609E+02 -0.74923829268E+02  0.87150887306E+02  0.51100000000E-03 0.  1.
         11    1    3    3    0    0  0.42698316631E+02 -0.12591692609E+02 -0.69736689464E+02  0.82733927886E+02  0.51100000000E-03 0. -1.
<mgrwt>
<rscale>  0 0.89074041E+02</rscale>
<asrwt>0</asrwt>
<pdfrwt beam="2">  1        3 0.24195793E-01 0.89074041E+02</pdfrwt>
<pdfrwt beam="1">  1       -3 0.19403306E-02 0.89074041E+02</pdfrwt>
<totfact> 0.32089602E+04</totfact>
</mgrwt>
</event>
<event>
 5    1  0.7431090E-001  0.9255018E+02  0.7818608E-02  0.1296791E+00
         -3   -1    0    0    0  501 -0.00000000000E+00  0.00000000000E+00  0.17253989166E+02  0.17254239802E+02  0.93000000000E-01 0.  1.
          3   -1    0    0  501    0  0.00000000000E+00 -0.00000000000E+00 -0.12410832293E+03  0.12410835777E+03  0.93000000000E-01 0. -1.
         23    2    1    2    0    0  0.00000000000E+00  0.00000000000E+00 -0.10685433376E+03  0.14136259757E+03  0.92550177466E+02 0.  0.
        -11    1    3    3    0    0  0.13108671910E+01 -0.39921204519E+02 -0.17737801578E+02  0.43704125070E+02  0.51100000000E-03 0.  1.
         11    1    3    3    0    0 -0.13108671910E+01  0.39921204519E+02 -0.89116532182E+02  0.97658472502E+02  0.51100000000E-03 0. -1.
<mgrwt>
<rscale>  0 0.92550177E+02</rscale>
<asrwt>0</asrwt>
<pdfrwt beam="2">  1        3 0.19093610E-01 0.92550177E+02</pdfrwt>
<pdfrwt beam="1">  1       -3 0.26544819E-02 0.92550177E+02</pdfrwt>
<totfact> 0.30576574E+04</totfact>
</mgrwt>
</event>
<event>
 5    1  0.7431090E-001  0.9046749E+02  0.7818608E-02  0.1301724E+00
          3   -1    0    0  501    0  0.00000000000E+00  0.00000000000E+00  0.57237945141E+02  0.57238020694E+02  0.93000000000E-01 0. -1.
         -3   -1    0    0    0  501 -0.00000000000E+00 -0.00000000000E+00 -0.35746963228E+02  0.35747084203E+02  0.93000000000E-01 0.  1.
         23    2    1    2    0    0  0.00000000000E+00  0.00000000000E+00  0.21490981913E+02  0.92985104897E+02  0.90467493771E+02 0.  0.
        -11    1    3    3    0    0  0.11253422295E+02 -0.32506007690E+02 -0.19445604138E+02  0.39514700680E+02  0.51100000000E-03 0.  1.
         11    1    3    3    0    0 -0.11253422295E+02  0.32506007690E+02  0.40936586052E+02  0.53470404217E+02  0.51100000000E-03 0. -1.
<mgrwt>
<rscale>  0 0.90467494E+02</rscale>
<asrwt>0</asrwt>
<pdfrwt beam="1">  1        3 0.88058529E-02 0.90467494E+02</pdfrwt>
<pdfrwt beam="2">  1       -3 0.54995479E-02 0.90467494E+02</pdfrwt>
<totfact> 0.35955877E+04</totfact>
</mgrwt>
</event>
<event>
 5    1  0.7431090E-001  0.8945180E+02  0.7818608E-02  0.1304185E+00
          3   -1    0    0  501    0  0.00000000000E+00  0.00000000000E+00  0.55963151404E+02  0.55963228678E+02  0.93000000000E-01 0. -1.
         -3   -1    0    0    0  501 -0.00000000000E+00 -0.00000000000E+00 -0.35744896393E+02  0.35745017375E+02  0.93000000000E-01 0.  1.
         23    2    1    2    0    0  0.00000000000E+00  0.00000000000E+00  0.20218255011E+02  0.91708246053E+02  0.89451800197E+02 0.  0.
        -11    1    3    3    0    0  0.34184236112E+02  0.34935575313E+01  0.39460651923E+02  0.52325041741E+02  0.51100000000E-03 0. -1.
         11    1    3    3    0    0 -0.34184236112E+02 -0.34935575313E+01 -0.19242396911E+02  0.39383204312E+02  0.51100000000E-03 0.  1.
<mgrwt>
<rscale>  0 0.89451800E+02</rscale>
<asrwt>0</asrwt>
<pdfrwt beam="1">  1        3 0.86097308E-02 0.89451800E+02</pdfrwt>
<pdfrwt beam="2">  1       -3 0.54992301E-02 0.89451800E+02</pdfrwt>
<totfact> 0.37178310E+04</totfact>
</mgrwt>
</event>
<event>
 5    1  0.7431090E-001  0.9164622E+02  0.7818608E-02  0.1298913E+00
          3   -1    0    0  501    0  0.00000000000E+00  0.00000000000E+00  0.16729268268E+02  0.16729526765E+02  0.93000000000E-01 0. -1.
         -3   -1    0    0    0  501 -0.00000000000E+00 -0.00000000000E+00 -0.12551275425E+03  0.12551278870E+03  0.93000000000E-01 0.  1.
         23    2    1    2    0    0  0.00000000000E+00  0.00000000000E+00 -0.10878348598E+03  0.14224231547E+03  0.91646219167E+02 0.  0.
        -11    1    3    3    0    0 -0.16859870013E+02 -0.32248731400E+02 -0.97614371607E+02  0.10417677975E+03  0.51100000000E-03 0.  1.
         11    1    3    3    0    0  0.16859870013E+02  0.32248731400E+02 -0.11169114375E+02  0.38065535724E+02  0.51100000000E-03 0. -1.
<mgrwt>
<rscale>  0 0.91646219E+02</rscale>
<asrwt>0</asrwt>
<pdfrwt beam="1">  1        3 0.25737562E-02 0.91646219E+02</pdfrwt>
<pdfrwt beam="2">  1       -3 0.19309676E-01 0.91646219E+02</pdfrwt>
<totfact> 0.31349668E+04</totfact>
</mgrwt>
</event>
<event>
 5    1  0.7431090E-001  0.8899958E+02  0.7818608E-02  0.1305293E+00
          3   -1    0    0  501    0  0.00000000000E+00  0.00000000000E+00  0.17324464658E+02  0.17324714274E+02  0.93000000000E-01 0. -1.
         -3   -1    0    0    0  501 -0.00000000000E+00 -0.00000000000E+00 -0.11430151584E+03  0.11430155367E+03  0.93000000000E-01 0.  1.
         23    2    1    2    0    0  0.00000000000E+00  0.00000000000E+00 -0.96977051182E+02  0.13162626795E+03  0.88999584032E+02 0.  0.
        -11    1    3    3    0    0 -0.28428743194E+01 -0.19406572349E+02  0.10587013190E+02  0.22288603215E+02  0.51100000000E-03 0. -1.
         11    1    3    3    0    0  0.28428743194E+01  0.19406572349E+02 -0.10756406437E+03  0.10933766473E+03  0.51100000000E-03 0.  1.
<mgrwt>
<rscale>  0 0.88999584E+02</rscale>
<asrwt>0</asrwt>
<pdfrwt beam="1">  1        3 0.26653244E-02 0.88999584E+02</pdfrwt>
<pdfrwt beam="2">  1       -3 0.17584870E-01 0.88999584E+02</pdfrwt>
<totfact> 0.34664284E+04</totfact>
</mgrwt>
</event>
<event>
 5    1  0.7431090E-001  0.8764377E+02  0.7818608E-02  0.1308660E+00
         -3   -1    0    0    0  501 -0.00000000000E+00  0.00000000000E+00  0.98717042771E+01  0.98721423376E+01  0.93000000000E-01 0.  1.
          3   -1    0    0  501    0  0.00000000000E+00 -0.00000000000E+00 -0.19452676072E+03  0.19452678295E+03  0.93000000000E-01 0. -1.
         23    2    1    2    0    0  0.00000000000E+00  0.00000000000E+00 -0.18465505645E+03  0.20439892529E+03  0.87643772108E+02 0.  0.
        -11    1    3    3    0    0 -0.17918699296E+02 -0.36766307271E+02 -0.12901853928E+03  0.13534631363E+03  0.51100000000E-03 0. -1.
         11    1    3    3    0    0  0.17918699296E+02  0.36766307271E+02 -0.55636517169E+02  0.69052611665E+02  0.51100000000E-03 0.  1.
<mgrwt>
<rscale>  0 0.87643772E+02</rscale>
<asrwt>0</asrwt>
<pdfrwt beam="2">  1        3 0.29927227E-01 0.87643772E+02</pdfrwt>
<pdfrwt beam="1">  1       -3 0.15187593E-02 0.87643772E+02</pdfrwt>
<totfact> 0.31440624E+04</totfact>
</mgrwt>
</event>
<event>
 5    1  0.7431090E-001  0.9402858E+02  0.7818608E-02  0.1293379E+00
          3   -1    0    0  501    0  0.00000000000E+00  0.00000000000E+00  0.39504744189E+03  0.39504745284E+03  0.93000000000E-01 0. -1.
         -3   -1    0    0    0  501 -0.00000000000E+00 -0.00000000000E+00 -0.55947364298E+01  0.55955093351E+01  0.93000000000E-01 0.  1.
         23    2    1    2    0    0  0.00000000000E+00  0.00000000000E+00  0.38945270546E+03  0.40064296217E+03  0.94028577292E+02 0.  0.
        -11    1    3    3    0    0  0.35493650784E+02  0.30808170131E+02  0.18968349158E+03  0.19541947081E+03  0.51100000000E-03 0.  1.
         11    1    3    3    0    0 -0.35493650784E+02 -0.30808170131E+02  0.19976921388E+03  0.20522349136E+03  0.51100000000E-03 0. -1.
<mgrwt>
<rscale>  0 0.94028577E+02</rscale>
<asrwt>0</asrwt>
<pdfrwt beam="1">  1        3 0.60776624E-01 0.94028577E+02</pdfrwt>
<pdfrwt beam="2">  1       -3 0.86078849E-03 0.94028577E+02</pdfrwt>
<totfact> 0.18962363E+04</totfact>
</mgrwt>
</event>
<event>
 5    1  0.7431090E-001  0.9109157E+02  0.7818608E-02  0.1300230E+00
          3   -1    0    0  501    0  0.00000000000E+00  0.00000000000E+00  0.12189634799E+03  0.12189638347E+03  0.93000000000E-01 0. -1.
         -3   -1    0    0    0  501 -0.00000000000E+00 -0.00000000000E+00 -0.17017723350E+02  0.17017977466E+02  0.93000000000E-01 0.  1.
         23    2    1    2    0    0  0.00000000000E+00  0.00000000000E+00  0.10487862464E+03  0.13891436094E+03  0.91091568036E+02 0.  0.
        -11    1    3    3    0    0  0.14159346147E+02 -0.19253646757E+02  0.11156571542E+03  0.11409688363E+03  0.51100000000E-03 0. -1.
         11    1    3    3    0    0 -0.14159346147E+02  0.19253646757E+02 -0.66870907726E+01  0.24817477310E+02  0.51100000000E-03 0.  1.
<mgrwt>
<rscale>  0 0.91091568E+02</rscale>
<asrwt>0</asrwt>
<pdfrwt beam="1">  1        3 0.18753307E-01 0.91091568E+02</pdfrwt>
<pdfrwt beam="2">  1       -3 0.26181335E-02 0.91091568E+02</pdfrwt>
<totfact> 0.32080640E+04</totfact>
</mgrwt>
</event>
<event>
 5    1  0.7431090E-001  0.8923069E+02  0.7818608E-02  0.1304725E+00
         -3   -1    0    0    0  501 -0.00000000000E+00  0.00000000000E+00  0.16250885108E+03  0.16250887769E+03  0.93000000000E-01 0.  1.
          3   -1    0    0  501    0  0.00000000000E+00 -0.00000000000E+00 -0.12248538162E+02  0.12248891220E+02  0.93000000000E-01 0. -1.
         23    2    1    2    0    0  0.00000000000E+00  0.00000000000E+00  0.15026031292E+03  0.17475776891E+03  0.89230690664E+02 0.  0.
        -11    1    3    3    0    0  0.31601463313E+02  0.17670436894E+02  0.24072695332E+02  0.43478632504E+02  0.51100000000E-03 0. -1.
         11    1    3    3    0    0 -0.31601463313E+02 -0.17670436894E+02  0.12618761758E+03  0.13127913641E+03  0.51100000000E-03 0.  1.
<mgrwt>
<rscale>  0 0.89230691E+02</rscale>
<asrwt>0</asrwt>
<pdfrwt beam="2">  1        3 0.18844198E-02 0.89230691E+02</pdfrwt>
<pdfrwt beam="1">  1       -3 0.25001390E-01 0.89230691E+02</pdfrwt>
<totfact> 0.31645499E+04</totfact>
</mgrwt>
</event>
<event>
 5    1  0.7431090E-001  0.9741510E+02  0.7818608E-02  0.1285827E+00
          3   -1    0    0  501    0  0.00000000000E+00  0.00000000000E+00  0.11039724940E+03  0.11039728857E+03  0.93000000000E-01 0. -1.
         -3   -1    0    0    0  501 -0.00000000000E+00 -0.00000000000E+00 -0.21489752577E+02  0.21489953812E+02  0.93000000000E-01 0.  1.
         23    2    1    2    0    0  0.00000000000E+00  0.00000000000E+00  0.88907496820E+02  0.13188724238E+03  0.97415100020E+02 0.  0.
        -11    1    3    3    0    0  0.45373344196E+01 -0.30133537245E+02 -0.69898361602E+01  0.31264601074E+02  0.51100000000E-03 0. -1.
         11    1    3    3    0    0 -0.45373344196E+01  0.30133537245E+02  0.95897332980E+02  0.10062264131E+03  0.51100000000E-03 0.  1.
<mgrwt>
<rscale>  0 0.97415100E+02</rscale>
<asrwt>0</asrwt>
<pdfrwt beam="1">  1        3 0.16984211E-01 0.97415100E+02</pdfrwt>
<pdfrwt beam="2">  1       -3 0.33061342E-02 0.97415100E+02</pdfrwt>
<totfact> 0.27093666E+04</totfact>
</mgrwt>
</event>
<event>
 5    1  0.7431090E-001  0.1093022E+03  0.7818608E-02  0.1261868E+00
          3   -1    0    0  501    0  0.00000000000E+00  0.00000000000E+00  0.11067843705E+02  0.11068234425E+02  0.93000000000E-01 0.  1.
         -3   -1    0    0    0  501 -0.00000000000E+00 -0.00000000000E+00 -0.26985246474E+03  0.26985248077E+03  0.93000000000E-01 0. -1.
         23    2    1    2    0    0  0.00000000000E+00  0.00000000000E+00 -0.25878462104E+03  0.28092071519E+03  0.10930218726E+03 0.  0.
        -11    1    3    3    0    0  0.90073487799E+01  0.43525175048E+02 -0.21111953526E+03  0.21574761033E+03  0.51100000000E-03 0. -1.
         11    1    3    3    0    0 -0.90073487799E+01 -0.43525175048E+02 -0.47665085783E+02  0.65173104867E+02  0.51100000000E-03 0.  1.
<mgrwt>
<rscale>  0 0.10930219E+03</rscale>
<asrwt>0</asrwt>
<pdfrwt beam="1">  1        3 0.17027767E-02 0.10930219E+03</pdfrwt>
<pdfrwt beam="2">  1       -3 0.41515790E-01 0.10930219E+03</pdfrwt>
<totfact> 0.15145355E+04</totfact>
</mgrwt>
</event>
<event>
 5    1  0.7431090E-001  0.8609906E+02  0.7818608E-02  0.1312583E+00
         -3   -1    0    0    0  501 -0.00000000000E+00  0.00000000000E+00  0.29839750828E+02  0.29839895752E+02  0.93000000000E-01 0.  1.
          3   -1    0    0  501    0  0.00000000000E+00 -0.00000000000E+00 -0.62106821352E+02  0.62106890982E+02  0.93000000000E-01 0. -1.
         23    2    1    2    0    0  0.00000000000E+00  0.00000000000E+00 -0.32267070524E+02  0.91946786734E+02  0.86099057779E+02 0.  0.
        -11    1    3    3    0    0 -0.87687406739E+01 -0.36258268611E+02 -0.39080347723E+02  0.54026164348E+02  0.51100000000E-03 0. -1.
         11    1    3    3    0    0  0.87687406739E+01  0.36258268611E+02  0.68132771995E+01  0.37920622386E+02  0.51100000000E-03 0.  1.
<mgrwt>
<rscale>  0 0.86099058E+02</rscale>
<asrwt>0</asrwt>
<pdfrwt beam="2">  1        3 0.95549121E-02 0.86099058E+02</pdfrwt>
<pdfrwt beam="1">  1       -3 0.45907474E-02 0.86099058E+02</pdfrwt>
<totfact> 0.41208465E+04</totfact>
</mgrwt>
</event>
<event>
 5    1  0.7431090E-001  0.9229017E+02  0.7818608E-02  0.1297399E+00
         -3   -1    0    0    0  501 -0.00000000000E+00  0.00000000000E+00  0.12390367902E+02  0.12390716918E+02  0.93000000000E-01 0.  1.
          3   -1    0    0  501    0  0.00000000000E+00 -0.00000000000E+00 -0.17185400300E+03  0.17185402817E+03  0.93000000000E-01 0. -1.
         23    2    1    2    0    0  0.00000000000E+00  0.00000000000E+00 -0.15946363510E+03  0.18424474509E+03  0.92290168336E+02 0.  0.
        -11    1    3    3    0    0  0.33815603928E+02 -0.27542639436E+02 -0.49635236405E+02  0.66073812886E+02  0.51100000000E-03 0.  1.
         11    1    3    3    0    0 -0.33815603928E+02  0.27542639436E+02 -0.10982839870E+03  0.11817093220E+03  0.51100000000E-03 0. -1.
<mgrwt>
<rscale>  0 0.92290168E+02</rscale>
<asrwt>0</asrwt>
<pdfrwt beam="2">  1        3 0.26439104E-01 0.92290168E+02</pdfrwt>
<pdfrwt beam="1">  1       -3 0.19062394E-02 0.92290168E+02</pdfrwt>
<totfact> 0.28385898E+04</totfact>
</mgrwt>
</event>
<event>
 5    1  0.7431090E-001  0.9114320E+02  0.7818608E-02  0.1300107E+00
         -3   -1    0    0    0  501 -0.00000000000E+00  0.00000000000E+00  0.11540744097E+03  0.11540747844E+03  0.93000000000E-01 0.  1.
          3   -1    0    0  501    0  0.00000000000E+00 -0.00000000000E+00 -0.17994960356E+02  0.17995200672E+02  0.93000000000E-01 0. -1.
         23    2    1    2    0    0  0.00000000000E+00  0.00000000000E+00  0.97412480612E+02  0.13340267911E+03  0.91143202791E+02 0.  0.
        -11    1    3    3    0    0 -0.38152160244E+02  0.24326878110E+02  0.56640645451E+02  0.72495151888E+02  0.51100000000E-03 0.  1.
         11    1    3    3    0    0  0.38152160244E+02 -0.24326878110E+02  0.40771835161E+02  0.60907527223E+02  0.51100000000E-03 0. -1.
<mgrwt>
<rscale>  0 0.91143203E+02</rscale>
<asrwt>0</asrwt>
<pdfrwt beam="2">  1        3 0.27684769E-02 0.91143203E+02</pdfrwt>
<pdfrwt beam="1">  1       -3 0.17755012E-01 0.91143203E+02</pdfrwt>
<totfact> 0.32387424E+04</totfact>
</mgrwt>
</event>
<event>
 5    1  0.7431090E-001  0.9287441E+02  0.7818608E-02  0.1296036E+00
          3   -1    0    0  501    0  0.00000000000E+00  0.00000000000E+00  0.21527933181E+03  0.21527935190E+03  0.93000000000E-01 0. -1.
         -3   -1    0    0    0  501 -0.00000000000E+00 -0.00000000000E+00 -0.10016582693E+02  0.10017014418E+02  0.93000000000E-01 0.  1.
         23    2    1    2    0    0  0.00000000000E+00  0.00000000000E+00  0.20526274912E+03  0.22529636631E+03  0.92874412515E+02 0.  0.
        -11    1    3    3    0    0  0.37269230032E+02  0.21367559112E+01  0.35630803222E+02  0.51605381226E+02  0.51100000000E-03 0.  1.
         11    1    3    3    0    0 -0.37269230032E+02 -0.21367559112E+01  0.16963194589E+03  0.17369098509E+03  0.51100000000E-03 0. -1.
<mgrwt>
<rscale>  0 0.92874413E+02</rscale>
<asrwt>0</asrwt>
<pdfrwt beam="1">  1        3 0.33119933E-01 0.92874413E+02</pdfrwt>
<pdfrwt beam="2">  1       -3 0.15410474E-02 0.92874413E+02</pdfrwt>
<totfact> 0.25917667E+04</totfact>
</mgrwt>
</event>
<event>
 5    1  0.7431090E-001  0.9138822E+02  0.7818608E-02  0.1299524E+00
         -3   -1    0    0    0  501 -0.00000000000E+00  0.00000000000E+00  0.70975613622E+02  0.70975674552E+02  0.93000000000E-01 0.  1.
          3   -1    0    0  501    0  0.00000000000E+00 -0.00000000000E+00 -0.29417728631E+02  0.29417875634E+02  0.93000000000E-01 0. -1.
         23    2    1    2    0    0  0.00000000000E+00  0.00000000000E+00  0.41557884991E+02  0.10039355019E+03  0.91388221965E+02 0.  0.
        -11    1    3    3    0    0  0.54842868462E+01 -0.17099235200E+02  0.66937080455E+02  0.69303924757E+02  0.51100000000E-03 0.  1.
         11    1    3    3    0    0 -0.54842868462E+01  0.17099235200E+02 -0.25379195464E+02  0.31089625429E+02  0.51100000000E-03 0. -1.
<mgrwt>
<rscale>  0 0.91388222E+02</rscale>
<asrwt>0</asrwt>
<pdfrwt beam="2">  1        3 0.45258205E-02 0.91388222E+02</pdfrwt>
<pdfrwt beam="1">  1       -3 0.10919341E-01 0.91388222E+02</pdfrwt>
<totfact> 0.34425155E+04</totfact>
</mgrwt>
</event>
<event>
 5    1  0.7431090E-001  0.9112686E+02  0.7818608E-02  0.1300146E+00
         -3   -1    0    0    0  501 -0.00000000000E+00  0.00000000000E+00  0.12008344694E+03  0.12008348295E+03  0.93000000000E-01 0.  1.
          3   -1    0    0  501    0  0.00000000000E+00 -0.00000000000E+00 -0.17288033795E+02  0.17288283937E+02  0.93000000000E-01 0. -1.
         23    2    1    2    0    0  0.00000000000E+00  0.00000000000E+00  0.10279541315E+03  0.13737176689E+03  0.91126864177E+02 0.  0.
        -11    1    3    3    0    0 -0.44850349768E+01  0.40682605139E+02  0.21216634761E+02  0.46101361047E+02  0.51100000000E-03 0. -1.
         11    1    3    3    0    0  0.44850349768E+01 -0.40682605139E+02  0.81578778385E+02  0.91270405843E+02  0.51100000000E-03 0.  1.
<mgrwt>
<rscale>  0 0.91126864E+02</rscale>
<asrwt>0</asrwt>
<pdfrwt beam="2">  1        3 0.26597195E-02 0.91126864E+02</pdfrwt>
<pdfrwt beam="1">  1       -3 0.18474398E-01 0.91126864E+02</pdfrwt>
<totfact> 0.32146933E+04</totfact>
</mgrwt>
</event>
<event>
 5    1  0.7431090E-001  0.9098400E+02  0.7818608E-02  0.1300486E+00
         -3   -1    0    0    0  501 -0.00000000000E+00  0.00000000000E+00  0.81506817217E+01  0.81512122735E+01  0.93000000000E-01 0. -1.
          3   -1    0    0  501    0  0.00000000000E+00 -0.00000000000E+00 -0.25389902587E+03  0.25389904290E+03  0.93000000000E-01 0.  1.
         23    2    1    2    0    0  0.00000000000E+00  0.00000000000E+00 -0.24574834415E+03  0.26205025517E+03  0.90983996318E+02 0.  0.
        -11    1    3    3    0    0  0.32180611616E+02  0.23533549175E+02 -0.18598246379E+03  0.19020750916E+03  0.51100000000E-03 0.  1.
         11    1    3    3    0    0 -0.32180611616E+02 -0.23533549175E+02 -0.59765880355E+02  0.71842746019E+02  0.51100000000E-03 0. -1.
<mgrwt>
<rscale>  0 0.90983996E+02</rscale>
<asrwt>0</asrwt>
<pdfrwt beam="2">  1        3 0.39061425E-01 0.90983996E+02</pdfrwt>
<pdfrwt beam="1">  1       -3 0.12539934E-02 0.90983996E+02</pdfrwt>
<totfact> 0.25723887E+04</totfact>
</mgrwt>
</event>
<event>
 5    1  0.7431090E-001  0.9187656E+02  0.7818608E-02  0.1298370E+00
         -3   -1    0    0    0  501 -0.00000000000E+00  0.00000000000E+00  0.78753762088E+02  0.78753817000E+02  0.93000000000E-01 0.  1.
          3   -1    0    0  501    0  0.00000000000E+00 -0.00000000000E+00 -0.26796357706E+02  0.26796519090E+02  0.93000000000E-01 0. -1.
         23    2    1    2    0    0  0.00000000000E+00  0.00000000000E+00  0.51957404382E+02  0.10555033609E+03  0.91876556197E+02 0.  0.
        -11    1    3    3    0    0  0.26174782196E+02 -0.37493152862E+02  0.31047839953E+02  0.55270463184E+02  0.51100000000E-03 0. -1.
         11    1    3    3    0    0 -0.26174782196E+02  0.37493152862E+02  0.20909564429E+02  0.50279872906E+02  0.51100000000E-03 0.  1.
<mgrwt>
<rscale>  0 0.91876556E+02</rscale>
<asrwt>0</asrwt>
<pdfrwt beam="2">  1        3 0.41225332E-02 0.91876556E+02</pdfrwt>
<pdfrwt beam="1">  1       -3 0.12115980E-01 0.91876556E+02</pdfrwt>
<totfact> 0.33559355E+04</totfact>
</mgrwt>
</event>
<event>
 5    1  0.7431090E-001  0.9157441E+02  0.7818608E-02  0.1299083E+00
         -3   -1    0    0    0  501 -0.00000000000E+00  0.00000000000E+00  0.66524247725E+01  0.66530748044E+01  0.93000000000E-01 0.  1.
          3   -1    0    0  501    0  0.00000000000E+00 -0.00000000000E+00 -0.31512737568E+03  0.31512738941E+03  0.93000000000E-01 0. -1.
         23    2    1    2    0    0  0.00000000000E+00  0.00000000000E+00 -0.30847495091E+03  0.32178046421E+03  0.91574405858E+02 0.  0.
        -11    1    3    3    0    0 -0.12005954984E+02 -0.42420747996E+02 -0.11080100379E+03  0.11924984384E+03  0.51100000000E-03 0.  1.
         11    1    3    3    0    0  0.12005954984E+02  0.42420747996E+02 -0.19767394712E+03  0.20253062037E+03  0.51100000000E-03 0. -1.
<mgrwt>
<rscale>  0 0.91574406E+02</rscale>
<asrwt>0</asrwt>
<pdfrwt beam="2">  1        3 0.48481174E-01 0.91574406E+02</pdfrwt>
<pdfrwt beam="1">  1       -3 0.10235013E-02 0.91574406E+02</pdfrwt>
<totfact> 0.22942653E+04</totfact>
</mgrwt>
</event>
<event>
 5    1  0.7431090E-001  0.9222944E+02  0.7818608E-02  0.1297541E+00
         -3   -1    0    0    0  501 -0.00000000000E+00  0.00000000000E+00  0.30501463342E+02  0.30501605122E+02  0.93000000000E-01 0. -1.
          3   -1    0    0  501    0  0.00000000000E+00 -0.00000000000E+00 -0.69719842281E+02  0.69719904308E+02  0.93000000000E-01 0.  1.
         23    2    1    2    0    0  0.00000000000E+00  0.00000000000E+00 -0.39218378939E+02  0.10022150943E+03  0.92229440559E+02 0.  0.
        -11    1    3    3    0    0 -0.13092093533E+02 -0.16140886737E+02 -0.64342353355E+02  0.67615601552E+02  0.51100000000E-03 0.  1.
         11    1    3    3    0    0  0.13092093533E+02  0.16140886737E+02  0.25123974417E+02  0.32605907877E+02  0.51100000000E-03 0. -1.
<mgrwt>
<rscale>  0 0.92229441E+02</rscale>
<asrwt>0</asrwt>
<pdfrwt beam="2">  1        3 0.10726145E-01 0.92229441E+02</pdfrwt>
<pdfrwt beam="1">  1       -3 0.46925485E-02 0.92229441E+02</pdfrwt>
<totfact> 0.33586185E+04</totfact>
</mgrwt>
</event>
<event>
 5    1  0.7431090E-001  0.8982460E+02  0.7818608E-02  0.1303277E+00
          3   -1    0    0  501    0  0.00000000000E+00  0.00000000000E+00  0.24990754900E+02  0.24990927943E+02  0.93000000000E-01 0. -1.
         -3   -1    0    0    0  501 -0.00000000000E+00 -0.00000000000E+00 -0.80713962312E+02  0.80714015890E+02  0.93000000000E-01 0.  1.
         23    2    1    2    0    0  0.00000000000E+00  0.00000000000E+00 -0.55723207412E+02  0.10570494383E+03  0.89824603013E+02 0.  0.
        -11    1    3    3    0    0  0.14076701728E+02  0.19456015917E+02 -0.72524335095E+02  0.76396788337E+02  0.51100000000E-03 0.  1.
         11    1    3    3    0    0 -0.14076701728E+02 -0.19456015917E+02  0.16801127684E+02  0.29308155496E+02  0.51100000000E-03 0. -1.
<mgrwt>
<rscale>  0 0.89824603E+02</rscale>
<asrwt>0</asrwt>
<pdfrwt beam="1">  1        3 0.38447490E-02 0.89824603E+02</pdfrwt>
<pdfrwt beam="2">  1       -3 0.12417550E-01 0.89824603E+02</pdfrwt>
<totfact> 0.35672280E+04</totfact>
</mgrwt>
</event>
<event>
 5    1  0.7431090E-001  0.9008432E+02  0.7818608E-02  0.1302648E+00
          3   -1    0    0  501    0  0.00000000000E+00  0.00000000000E+00  0.31454149729E+03  0.31454151104E+03  0.93000000000E-01 0. -1.
         -3   -1    0    0    0  501 -0.00000000000E+00 -0.00000000000E+00 -0.64496618600E+01  0.64503323254E+01  0.93000000000E-01 0.  1.
         23    2    1    2    0    0  0.00000000000E+00  0.00000000000E+00  0.30809183543E+03  0.32099184337E+03  0.90084318545E+02 0.  0.
        -11    1    3    3    0    0 -0.20998086872E+02 -0.38658455675E+02  0.18848240556E+03  0.19354847727E+03  0.51100000000E-03 0. -1.
         11    1    3    3    0    0  0.20998086872E+02  0.38658455675E+02  0.11960942988E+03  0.12744336610E+03  0.51100000000E-03 0.  1.
<mgrwt>
<rscale>  0 0.90084319E+02</rscale>
<asrwt>0</asrwt>
<pdfrwt beam="1">  1        3 0.48391052E-01 0.90084319E+02</pdfrwt>
<pdfrwt beam="2">  1       -3 0.99230831E-03 0.90084319E+02</pdfrwt>
<totfact> 0.24003451E+04</totfact>
</mgrwt>
</event>
<event>
 5    1  0.7431090E-001  0.8978769E+02  0.7818608E-02  0.1303367E+00
          3   -1    0    0  501    0  0.00000000000E+00  0.00000000000E+00  0.66982284393E+01  0.66988740267E+01  0.93000000000E-01 0. -1.
         -3   -1    0    0    0  501 -0.00000000000E+00 -0.00000000000E+00 -0.30087893313E+03  0.30087894750E+03  0.93000000000E-01 0.  1.
         23    2    1    2    0    0  0.00000000000E+00  0.00000000000E+00 -0.29418070469E+03  0.30757782153E+03  0.89787690050E+02 0.  0.
        -11    1    3    3    0    0 -0.41535177767E+02 -0.65489058265E+01 -0.20097145212E+03  0.20532312029E+03  0.51100000000E-03 0.  1.
         11    1    3    3    0    0  0.41535177767E+02  0.65489058265E+01 -0.93209252567E+02  0.10225470123E+03  0.51100000000E-03 0. -1.
<mgrwt>
<rscale>  0 0.89787690E+02</rscale>
<asrwt>0</asrwt>
<pdfrwt beam="1">  1        3 0.10305477E-02 0.89787690E+02</pdfrwt>
<pdfrwt beam="2">  1       -3 0.46289107E-01 0.89787690E+02</pdfrwt>
<totfact> 0.24728766E+04</totfact>
</mgrwt>
</event>
<event>
 5    1  0.7431090E-001  0.8741099E+02  0.7818608E-02  0.1309245E+00
          3   -1    0    0  501    0  0.00000000000E+00  0.00000000000E+00  0.46328776709E+02  0.46328870052E+02  0.93000000000E-01 0. -1.
         -3   -1    0    0    0  501 -0.00000000000E+00 -0.00000000000E+00 -0.41230563272E+02  0.41230668158E+02  0.93000000000E-01 0.  1.
         23    2    1    2    0    0  0.00000000000E+00  0.00000000000E+00  0.50982134367E+01  0.87559538210E+02  0.87410988733E+02 0.  0.
        -11    1    3    3    0    0 -0.25190998068E+02  0.16608076431E+02 -0.29123540507E+02  0.41935607761E+02  0.51100000000E-03 0.  1.
         11    1    3    3    0    0  0.25190998068E+02 -0.16608076431E+02  0.34221753943E+02  0.45623930449E+02  0.51100000000E-03 0. -1.
<mgrwt>
<rscale>  0 0.87410989E+02</rscale>
<asrwt>0</asrwt>
<pdfrwt beam="1">  1        3 0.71275193E-02 0.87410989E+02</pdfrwt>
<pdfrwt beam="2">  1       -3 0.63431789E-02 0.87410989E+02</pdfrwt>
<totfact> 0.39941373E+04</totfact>
</mgrwt>
</event>
<event>
 5    1  0.7431090E-001  0.9310404E+02  0.7818608E-02  0.1295504E+00
         -3   -1    0    0    0  501 -0.00000000000E+00  0.00000000000E+00  0.13878149008E+03  0.13878152124E+03  0.93000000000E-01 0.  1.
          3   -1    0    0  501    0  0.00000000000E+00 -0.00000000000E+00 -0.15614956199E+02  0.15615233143E+02  0.93000000000E-01 0. -1.
         23    2    1    2    0    0  0.00000000000E+00  0.00000000000E+00  0.12316653388E+03  0.15439675438E+03  0.93104042319E+02 0.  0.
        -11    1    3    3    0    0 -0.36916453649E+02 -0.17451642473E+02  0.98653647228E+02  0.10677043826E+03  0.51100000000E-03 0.  1.
         11    1    3    3    0    0  0.36916453649E+02  0.17451642473E+02  0.24512886653E+02  0.47626316122E+02  0.51100000000E-03 0. -1.
<mgrwt>
<rscale>  0 0.93104042E+02</rscale>
<asrwt>0</asrwt>
<pdfrwt beam="2">  1        3 0.24023247E-02 0.93104042E+02</pdfrwt>
<pdfrwt beam="1">  1       -3 0.21351022E-01 0.93104042E+02</pdfrwt>
<totfact> 0.29327726E+04</totfact>
</mgrwt>
</event>
<event>
 5    1  0.7431090E-001  0.9123243E+02  0.7818608E-02  0.1299894E+00
         -3   -1    0    0    0  501 -0.00000000000E+00  0.00000000000E+00  0.58676417751E+01  0.58683787370E+01  0.93000000000E-01 0.  1.
          3   -1    0    0  501    0  0.00000000000E+00 -0.00000000000E+00 -0.35460648971E+03  0.35460650191E+03  0.93000000000E-01 0. -1.
         23    2    1    2    0    0  0.00000000000E+00  0.00000000000E+00 -0.34873884794E+03  0.36047488064E+03  0.91232425788E+02 0.  0.
        -11    1    3    3    0    0  0.45584366660E+02  0.10399051947E+01 -0.17970422406E+03  0.18539855456E+03  0.51100000000E-03 0. -1.
         11    1    3    3    0    0 -0.45584366660E+02 -0.10399051947E+01 -0.16903462388E+03  0.17507632609E+03  0.51100000000E-03 0.  1.
<mgrwt>
<rscale>  0 0.91232426E+02</rscale>
<asrwt>0</asrwt>
<pdfrwt beam="2">  1        3 0.54554886E-01 0.91232426E+02</pdfrwt>
<pdfrwt beam="1">  1       -3 0.90277202E-03 0.91232426E+02</pdfrwt>
<totfact> 0.21829664E+04</totfact>
</mgrwt>
</event>
<event>
 5    1  0.7431090E-001  0.8887648E+02  0.7818608E-02  0.1305595E+00
         -3   -1    0    0    0  501 -0.00000000000E+00  0.00000000000E+00  0.18713326432E+02  0.18713557523E+02  0.93000000000E-01 0.  1.
          3   -1    0    0  501    0  0.00000000000E+00 -0.00000000000E+00 -0.10552587420E+03  0.10552591518E+03  0.93000000000E-01 0. -1.
         23    2    1    2    0    0  0.00000000000E+00  0.00000000000E+00 -0.86812547763E+02  0.12423947270E+03  0.88876476794E+02 0.  0.
        -11    1    3    3    0    0 -0.30205172866E+02 -0.23225334065E+02 -0.11438028047E+02  0.39781868937E+02  0.51100000000E-03 0.  1.
         11    1    3    3    0    0  0.30205172866E+02  0.23225334065E+02 -0.75374519716E+02  0.84457603761E+02  0.51100000000E-03 0. -1.
<mgrwt>
<rscale>  0 0.88876477E+02</rscale>
<asrwt>0</asrwt>
<pdfrwt beam="2">  1        3 0.16234770E-01 0.88876477E+02</pdfrwt>
<pdfrwt beam="1">  1       -3 0.28789943E-02 0.88876477E+02</pdfrwt>
<totfact> 0.35319049E+04</totfact>
</mgrwt>
</event>
<event>
 5    1  0.7431090E-001  0.8801290E+02  0.7818608E-02  0.1307736E+00
          3   -1    0    0  501    0  0.00000000000E+00  0.00000000000E+00  0.83080961123E+02  0.83081013174E+02  0.93000000000E-01 0. -1.
         -3   -1    0    0    0  501 -0.00000000000E+00 -0.00000000000E+00 -0.23309253818E+02  0.23309439345E+02  0.93000000000E-01 0.  1.
         23    2    1    2    0    0  0.00000000000E+00  0.00000000000E+00  0.59771707304E+02  0.10639045252E+03  0.88012904696E+02 0.  0.
        -11    1    3    3    0    0 -0.24956737228E+02  0.24614709380E+02 -0.22748429218E+01  0.35126878050E+02  0.51100000000E-03 0.  1.
         11    1    3    3    0    0  0.24956737228E+02 -0.24614709380E+02  0.62046550226E+02  0.71263574469E+02  0.51100000000E-03 0. -1.
<mgrwt>
<rscale>  0 0.88012905E+02</rscale>
<asrwt>0</asrwt>
<pdfrwt beam="1">  1        3 0.12781705E-01 0.88012905E+02</pdfrwt>
<pdfrwt beam="2">  1       -3 0.35860573E-02 0.88012905E+02</pdfrwt>
<totfact> 0.37638880E+04</totfact>
</mgrwt>
</event>
<event>
 5    1  0.7431090E-001  0.9094631E+02  0.7818608E-02  0.1300576E+00
          3   -1    0    0  501    0  0.00000000000E+00  0.00000000000E+00  0.19460788461E+02  0.19461010676E+02  0.93000000000E-01 0. -1.
         -3   -1    0    0    0  501 -0.00000000000E+00 -0.00000000000E+00 -0.10625424668E+03  0.10625428738E+03  0.93000000000E-01 0.  1.
         23    2    1    2    0    0  0.00000000000E+00  0.00000000000E+00 -0.86793458215E+02  0.12571529805E+03  0.90946312598E+02 0.  0.
        -11    1    3    3    0    0 -0.28720070474E+01  0.37413363765E+02 -0.78903330202E+02  0.87371298090E+02  0.51100000000E-03 0.  1.
         11    1    3    3    0    0  0.28720070474E+01 -0.37413363765E+02 -0.78901280129E+01  0.38343999961E+02  0.51100000000E-03 0. -1.
<mgrwt>
<rscale>  0 0.90946313E+02</rscale>
<asrwt>0</asrwt>
<pdfrwt beam="1">  1        3 0.29939877E-02 0.90946313E+02</pdfrwt>
<pdfrwt beam="2">  1       -3 0.16346827E-01 0.90946313E+02</pdfrwt>
<totfact> 0.33088256E+04</totfact>
</mgrwt>
</event>
<event>
 5    1  0.7431090E-001  0.9150098E+02  0.7818608E-02  0.1299257E+00
          3   -1    0    0  501    0  0.00000000000E+00  0.00000000000E+00  0.75772963313E+02  0.75773020385E+02  0.93000000000E-01 0. -1.
         -3   -1    0    0    0  501 -0.00000000000E+00 -0.00000000000E+00 -0.27623260432E+02  0.27623416984E+02  0.93000000000E-01 0.  1.
         23    2    1    2    0    0  0.00000000000E+00  0.00000000000E+00  0.48149702881E+02  0.10339643737E+03  0.91500980176E+02 0.  0.
        -11    1    3    3    0    0  0.41916570897E+02  0.18164602599E+02  0.21271249034E+02  0.50392635762E+02  0.51100000000E-03 0.  1.
         11    1    3    3    0    0 -0.41916570897E+02 -0.18164602599E+02  0.26878453847E+02  0.53003801607E+02  0.51100000000E-03 0. -1.
<mgrwt>
<rscale>  0 0.91500980E+02</rscale>
<asrwt>0</asrwt>
<pdfrwt beam="1">  1        3 0.11657395E-01 0.91500980E+02</pdfrwt>
<pdfrwt beam="2">  1       -3 0.42497489E-02 0.91500980E+02</pdfrwt>
<totfact> 0.34089884E+04</totfact>
</mgrwt>
</event>
<event>
 5    1  0.7431090E-001  0.9599161E+02  0.7818608E-02  0.1288958E+00
         -3   -1    0    0    0  501 -0.00000000000E+00  0.00000000000E+00  0.30679316211E+02  0.30679457168E+02  0.93000000000E-01 0.  1.
          3   -1    0    0  501    0  0.00000000000E+00 -0.00000000000E+00 -0.75085993422E+02  0.75086051016E+02  0.93000000000E-01 0. -1.
         23    2    1    2    0    0  0.00000000000E+00  0.00000000000E+00 -0.44406677212E+02  0.10576550818E+03  0.95991612866E+02 0.  0.
        -11    1    3    3    0    0  0.29748997058E+02 -0.30845913429E+02  0.16103664753E+01  0.42884338419E+02  0.51100000000E-03 0.  1.
         11    1    3    3    0    0 -0.29748997058E+02  0.30845913429E+02 -0.46017043687E+02  0.62881169766E+02  0.51100000000E-03 0. -1.
<mgrwt>
<rscale>  0 0.95991613E+02</rscale>
<asrwt>0</asrwt>
<pdfrwt beam="2">  1        3 0.11551706E-01 0.95991613E+02</pdfrwt>
<pdfrwt beam="1">  1       -3 0.47199101E-02 0.95991613E+02</pdfrwt>
<totfact> 0.29756496E+04</totfact>
</mgrwt>
</event>
<event>
 5    1  0.7431090E-001  0.9119658E+02  0.7818608E-02  0.1299980E+00
          3   -1    0    0  501    0  0.00000000000E+00  0.00000000000E+00  0.74047400343E+02  0.74047458745E+02  0.93000000000E-01 0. -1.
         -3   -1    0    0    0  501 -0.00000000000E+00 -0.00000000000E+00 -0.28079220571E+02  0.28079374581E+02  0.93000000000E-01 0.  1.
         23    2    1    2    0    0  0.00000000000E+00  0.00000000000E+00  0.45968179773E+02  0.10212683333E+03  0.91196581808E+02 0.  0.
        -11    1    3    3    0    0 -0.33996626242E+02 -0.18266589119E+02  0.50179831008E+02  0.63304457300E+02  0.51100000000E-03 0. -1.
         11    1    3    3    0    0  0.33996626242E+02  0.18266589119E+02 -0.42116512354E+01  0.38822376025E+02  0.51100000000E-03 0.  1.
<mgrwt>
<rscale>  0 0.91196582E+02</rscale>
<asrwt>0</asrwt>
<pdfrwt beam="1">  1        3 0.11391924E-01 0.91196582E+02</pdfrwt>
<pdfrwt beam="2">  1       -3 0.43198964E-02 0.91196582E+02</pdfrwt>
<totfact> 0.34493830E+04</totfact>
</mgrwt>
</event>
<event>
 5    1  0.7431090E-001  0.9064656E+02  0.7818608E-02  0.1301293E+00
         -3   -1    0    0    0  501 -0.00000000000E+00  0.00000000000E+00  0.22264567190E+03  0.22264569132E+03  0.93000000000E-01 0.  1.
          3   -1    0    0  501    0  0.00000000000E+00 -0.00000000000E+00 -0.92260626054E+01  0.92265313200E+01  0.93000000000E-01 0. -1.
         23    2    1    2    0    0  0.00000000000E+00  0.00000000000E+00  0.21341960930E+03  0.23187222264E+03  0.90646555379E+02 0.  0.
        -11    1    3    3    0    0 -0.30340668578E+02 -0.28771325150E+02  0.15144554505E+03  0.15711173870E+03  0.51100000000E-03 0.  1.
         11    1    3    3    0    0  0.30340668578E+02  0.28771325150E+02  0.61974064246E+02  0.74760483947E+02  0.51100000000E-03 0. -1.
<mgrwt>
<rscale>  0 0.90646555E+02</rscale>
<asrwt>0</asrwt>
<pdfrwt beam="2">  1        3 0.14194319E-02 0.90646555E+02</pdfrwt>
<pdfrwt beam="1">  1       -3 0.34253215E-01 0.90646555E+02</pdfrwt>
<totfact> 0.27353227E+04</totfact>
</mgrwt>
</event>
<event>
 5    1  0.7431090E-001  0.9224177E+02  0.7818608E-02  0.1297512E+00
          3   -1    0    0  501    0  0.00000000000E+00  0.00000000000E+00  0.80830266906E+02  0.80830320407E+02  0.93000000000E-01 0. -1.
         -3   -1    0    0    0  501 -0.00000000000E+00 -0.00000000000E+00 -0.26315939918E+02  0.26316104248E+02  0.93000000000E-01 0.  1.
         23    2    1    2    0    0  0.00000000000E+00  0.00000000000E+00  0.54514326988E+02  0.10714642465E+03  0.92241771825E+02 0.  0.
        -11    1    3    3    0    0  0.24802593737E+01 -0.39361397525E+02 -0.51570762912E+00  0.39442835297E+02  0.51100000000E-03 0.  1.
         11    1    3    3    0    0 -0.24802593737E+01  0.39361397525E+02  0.55030034617E+02  0.67703589357E+02  0.51100000000E-03 0. -1.
<mgrwt>
<rscale>  0 0.92241772E+02</rscale>
<asrwt>0</asrwt>
<pdfrwt beam="1">  1        3 0.12435442E-01 0.92241772E+02</pdfrwt>
<pdfrwt beam="2">  1       -3 0.40486230E-02 0.92241772E+02</pdfrwt>
<totfact> 0.33085255E+04</totfact>
</mgrwt>
</event>
<event>
 5    1  0.7431090E-001  0.9587777E+02  0.7818608E-02  0.1289211E+00
         -3   -1    0    0    0  501 -0.00000000000E+00  0.00000000000E+00  0.14964678766E+02  0.14964967744E+02  0.93000000000E-01 0.  1.
          3   -1    0    0  501    0  0.00000000000E+00 -0.00000000000E+00 -0.15356893815E+03  0.15356896631E+03  0.93000000000E-01 0. -1.
         23    2    1    2    0    0  0.00000000000E+00  0.00000000000E+00 -0.13860425938E+03  0.16853393405E+03  0.95877767018E+02 0.  0.
        -11    1    3    3    0    0  0.14698385625E+02  0.35806847840E+02 -0.19585168359E+02  0.43379162188E+02  0.51100000000E-03 0.  1.
         11    1    3    3    0    0 -0.14698385625E+02 -0.35806847840E+02 -0.11901909102E+03  0.12515477187E+03  0.51100000000E-03 0. -1.
<mgrwt>
<rscale>  0 0.95877767E+02</rscale>
<asrwt>0</asrwt>
<pdfrwt beam="2">  1        3 0.23626014E-01 0.95877767E+02</pdfrwt>
<pdfrwt beam="1">  1       -3 0.23022828E-02 0.95877767E+02</pdfrwt>
<totfact> 0.26354800E+04</totfact>
</mgrwt>
</event>
<event>
 5    1  0.7431090E-001  0.8366472E+02  0.7818608E-02  0.1318962E+00
          3   -1    0    0  501    0  0.00000000000E+00  0.00000000000E+00  0.93991920306E+01  0.93996521121E+01  0.93000000000E-01 0. -1.
         -3   -1    0    0    0  501 -0.00000000000E+00 -0.00000000000E+00 -0.18617545773E+03  0.18617548095E+03  0.93000000000E-01 0.  1.
         23    2    1    2    0    0  0.00000000000E+00  0.00000000000E+00 -0.17677626569E+03  0.19557513307E+03  0.83664715147E+02 0.  0.
        -11    1    3    3    0    0 -0.30194929733E+02  0.11894854980E+02 -0.15009051443E+03  0.15355905665E+03  0.51100000000E-03 0.  1.
         11    1    3    3    0    0  0.30194929733E+02 -0.11894854980E+02 -0.26685751263E+02  0.42016076415E+02  0.51100000000E-03 0. -1.
<mgrwt>
<rscale>  0 0.83664715E+02</rscale>
<asrwt>0</asrwt>
<pdfrwt beam="1">  1        3 0.14460669E-02 0.83664715E+02</pdfrwt>
<pdfrwt beam="2">  1       -3 0.28642412E-01 0.83664715E+02</pdfrwt>
<totfact> 0.36178913E+04</totfact>
</mgrwt>
</event>
<event>
 5    1  0.7431090E-001  0.9287201E+02  0.7818608E-02  0.1296042E+00
         -3   -1    0    0    0  501 -0.00000000000E+00  0.00000000000E+00  0.19932090692E+02  0.19932307653E+02  0.93000000000E-01 0.  1.
          3   -1    0    0  501    0  0.00000000000E+00 -0.00000000000E+00 -0.10818162130E+03  0.10818166127E+03  0.93000000000E-01 0. -1.
         23    2    1    2    0    0  0.00000000000E+00  0.00000000000E+00 -0.88249530605E+02  0.12811396892E+03  0.92872005370E+02 0.  0.
        -11    1    3    3    0    0  0.77395662053E+01  0.44930864949E+02 -0.56278093395E+02  0.72428635957E+02  0.51100000000E-03 0.  1.
         11    1    3    3    0    0 -0.77395662053E+01 -0.44930864949E+02 -0.31971437210E+02  0.55685332967E+02  0.51100000000E-03 0. -1.
<mgrwt>
<rscale>  0 0.92872005E+02</rscale>
<asrwt>0</asrwt>
<pdfrwt beam="2">  1        3 0.16643346E-01 0.92872005E+02</pdfrwt>
<pdfrwt beam="1">  1       -3 0.30664953E-02 0.92872005E+02</pdfrwt>
<totfact> 0.31101667E+04</totfact>
</mgrwt>
</event>
<event>
 5    1  0.7431090E-001  0.9164759E+02  0.7818608E-02  0.1298910E+00
          3   -1    0    0  501    0  0.00000000000E+00  0.00000000000E+00  0.25318983735E+02  0.25319154535E+02  0.93000000000E-01 0. -1.
         -3   -1    0    0    0  501 -0.00000000000E+00 -0.00000000000E+00 -0.82934131664E+02  0.82934183808E+02  0.93000000000E-01 0.  1.
         23    2    1    2    0    0  0.00000000000E+00  0.00000000000E+00 -0.57615147929E+02  0.10825333834E+03  0.91647585846E+02 0.  0.
        -11    1    3    3    0    0  0.15087109263E+02  0.39247631414E+02 -0.50324153019E+02  0.65578333426E+02  0.51100000000E-03 0.  1.
         11    1    3    3    0    0 -0.15087109263E+02 -0.39247631414E+02 -0.72909949098E+01  0.42675004916E+02  0.51100000000E-03 0. -1.
<mgrwt>
<rscale>  0 0.91647586E+02</rscale>
<asrwt>0</asrwt>
<pdfrwt beam="1">  1        3 0.38952455E-02 0.91647586E+02</pdfrwt>
<pdfrwt beam="2">  1       -3 0.12759114E-01 0.91647586E+02</pdfrwt>
<totfact> 0.33596637E+04</totfact>
</mgrwt>
</event>
<event>
 5    1  0.7431090E-001  0.9257539E+02  0.7818608E-02  0.1296732E+00
          3   -1    0    0  501    0  0.00000000000E+00  0.00000000000E+00  0.73642252895E+01  0.73648124969E+01  0.93000000000E-01 0. -1.
         -3   -1    0    0    0  501 -0.00000000000E+00 -0.00000000000E+00 -0.29092821850E+03  0.29092823336E+03  0.93000000000E-01 0.  1.
         23    2    1    2    0    0  0.00000000000E+00  0.00000000000E+00 -0.28356399321E+03  0.29829304586E+03  0.92575390702E+02 0.  0.
        -11    1    3    3    0    0  0.24515375237E+02 -0.32021933334E+02 -0.21498561615E+03  0.21873550921E+03  0.51100000000E-03 0.  1.
         11    1    3    3    0    0 -0.24515375237E+02  0.32021933334E+02 -0.68578377055E+02  0.79557536647E+02  0.51100000000E-03 0. -1.
<mgrwt>
<rscale>  0 0.92575391E+02</rscale>
<asrwt>0</asrwt>
<pdfrwt beam="1">  1        3 0.11330043E-02 0.92575391E+02</pdfrwt>
<pdfrwt beam="2">  1       -3 0.44758225E-01 0.92575391E+02</pdfrwt>
<totfact> 0.23123245E+04</totfact>
</mgrwt>
</event>
<event>
 5    1  0.7431090E-001  0.7766061E+02  0.7818608E-02  0.1335824E+00
          3   -1    0    0  501    0  0.00000000000E+00  0.00000000000E+00  0.20351600476E+02  0.20351812964E+02  0.93000000000E-01 0. -1.
         -3   -1    0    0    0  501 -0.00000000000E+00 -0.00000000000E+00 -0.74086546915E+02  0.74086605286E+02  0.93000000000E-01 0.  1.
         23    2    1    2    0    0  0.00000000000E+00  0.00000000000E+00 -0.53734946439E+02  0.94438418250E+02  0.77660610175E+02 0.  0.
        -11    1    3    3    0    0  0.15567304585E+02 -0.82871914973E+01  0.15200732880E+02  0.23282628616E+02  0.51100000000E-03 0. -1.
         11    1    3    3    0    0 -0.15567304585E+02  0.82871914973E+01 -0.68935679319E+02  0.71155789633E+02  0.51100000000E-03 0.  1.
<mgrwt>
<rscale>  0 0.77660610E+02</rscale>
<asrwt>0</asrwt>
<pdfrwt beam="1">  1        3 0.31310363E-02 0.77660610E+02</pdfrwt>
<pdfrwt beam="2">  1       -3 0.11397951E-01 0.77660610E+02</pdfrwt>
<totfact> 0.54072791E+04</totfact>
</mgrwt>
</event>
<event>
 5    1  0.7431090E-001  0.9172998E+02  0.7818608E-02  0.1298716E+00
          3   -1    0    0  501    0  0.00000000000E+00  0.00000000000E+00  0.60870175183E+02  0.60870246228E+02  0.93000000000E-01 0. -1.
         -3   -1    0    0    0  501 -0.00000000000E+00 -0.00000000000E+00 -0.34558602181E+02  0.34558727316E+02  0.93000000000E-01 0.  1.
         23    2    1    2    0    0  0.00000000000E+00  0.00000000000E+00  0.26311573003E+02  0.95428973544E+02  0.91729984834E+02 0.  0.
        -11    1    3    3    0    0  0.32697716288E+01  0.33537322485E+02 -0.19214100285E+02  0.38789496723E+02  0.51100000000E-03 0.  1.
         11    1    3    3    0    0 -0.32697716288E+01 -0.33537322485E+02  0.45525673288E+02  0.56639476821E+02  0.51100000000E-03 0. -1.
<mgrwt>
<rscale>  0 0.91729985E+02</rscale>
<asrwt>0</asrwt>
<pdfrwt beam="1">  1        3 0.93646573E-02 0.91729985E+02</pdfrwt>
<pdfrwt beam="2">  1       -3 0.53167232E-02 0.91729985E+02</pdfrwt>
<totfact> 0.34440769E+04</totfact>
</mgrwt>
</event>
<event>
 5    1  0.7431090E-001  0.9155207E+02  0.7818608E-02  0.1299136E+00
         -3   -1    0    0    0  501 -0.00000000000E+00  0.00000000000E+00  0.43439300883E+02  0.43439400436E+02  0.93000000000E-01 0.  1.
          3   -1    0    0  501    0  0.00000000000E+00 -0.00000000000E+00 -0.48238274131E+02  0.48238363780E+02  0.93000000000E-01 0. -1.
         23    2    1    2    0    0  0.00000000000E+00  0.00000000000E+00 -0.47989732478E+01  0.91677764215E+02  0.91552074293E+02 0.  0.
        -11    1    3    3    0    0 -0.19002219582E+02  0.35023213124E+02  0.20164441371E+02  0.44657748517E+02  0.51100000000E-03 0.  1.
         11    1    3    3    0    0  0.19002219582E+02 -0.35023213124E+02 -0.24963414619E+02  0.47020015698E+02  0.51100000000E-03 0. -1.
<mgrwt>
<rscale>  0 0.91552074E+02</rscale>
<asrwt>0</asrwt>
<pdfrwt beam="2">  1        3 0.74212875E-02 0.91552074E+02</pdfrwt>
<pdfrwt beam="1">  1       -3 0.66829839E-02 0.91552074E+02</pdfrwt>
<totfact> 0.34906479E+04</totfact>
</mgrwt>
</event>
<event>
 5    1  0.7431090E-001  0.8992301E+02  0.7818608E-02  0.1303038E+00
          3   -1    0    0  501    0  0.00000000000E+00  0.00000000000E+00  0.74218505192E+01  0.74224331677E+01  0.93000000000E-01 0. -1.
         -3   -1    0    0    0  501 -0.00000000000E+00 -0.00000000000E+00 -0.27236510668E+03  0.27236512256E+03  0.93000000000E-01 0.  1.
         23    2    1    2    0    0  0.00000000000E+00  0.00000000000E+00 -0.26494325616E+03  0.27978755572E+03  0.89923007921E+02 0.  0.
        -11    1    3    3    0    0  0.39662140465E+02  0.20068186884E+02 -0.15350977499E+03  0.15981573304E+03  0.51100000000E-03 0.  1.
         11    1    3    3    0    0 -0.39662140465E+02 -0.20068186884E+02 -0.11143348117E+03  0.11997182268E+03  0.51100000000E-03 0. -1.
<mgrwt>
<rscale>  0 0.89923008E+02</rscale>
<asrwt>0</asrwt>
<pdfrwt beam="1">  1        3 0.11418694E-02 0.89923008E+02</pdfrwt>
<pdfrwt beam="2">  1       -3 0.41902362E-01 0.89923008E+02</pdfrwt>
<totfact> 0.25767611E+04</totfact>
</mgrwt>
</event>
<event>
 5    1  0.7431090E-001  0.9032196E+02  0.7818608E-02  0.1302074E+00
         -3   -1    0    0    0  501 -0.00000000000E+00  0.00000000000E+00  0.24371217889E+02  0.24371395331E+02  0.93000000000E-01 0.  1.
          3   -1    0    0  501    0  0.00000000000E+00 -0.00000000000E+00 -0.83684849223E+02  0.83684900899E+02  0.93000000000E-01 0. -1.
         23    2    1    2    0    0  0.00000000000E+00  0.00000000000E+00 -0.59313631333E+02  0.10805629623E+03  0.90321959085E+02 0.  0.
        -11    1    3    3    0    0 -0.92496065157E+01 -0.35804895291E+02 -0.60668912381E+02  0.71051127206E+02  0.51100000000E-03 0. -1.
         11    1    3    3    0    0  0.92496065157E+01  0.35804895291E+02  0.13552810473E+01  0.37005169024E+02  0.51100000000E-03 0.  1.
<mgrwt>
<rscale>  0 0.90321959E+02</rscale>
<asrwt>0</asrwt>
<pdfrwt beam="2">  1        3 0.12874610E-01 0.90321959E+02</pdfrwt>
<pdfrwt beam="1">  1       -3 0.37494358E-02 0.90321959E+02</pdfrwt>
<totfact> 0.34966583E+04</totfact>
</mgrwt>
</event>
<event>
 5    1  0.7431090E-001  0.9135746E+02  0.7818608E-02  0.1299597E+00
         -3   -1    0    0    0  501 -0.00000000000E+00  0.00000000000E+00  0.12745280961E+03  0.12745284354E+03  0.93000000000E-01 0.  1.
          3   -1    0    0  501    0  0.00000000000E+00 -0.00000000000E+00 -0.16370962121E+02  0.16371226276E+02  0.93000000000E-01 0. -1.
         23    2    1    2    0    0  0.00000000000E+00  0.00000000000E+00  0.11108184749E+03  0.14382406982E+03  0.91357463937E+02 0.  0.
        -11    1    3    3    0    0 -0.32461708891E+02 -0.24203765088E+02  0.88823943722E+02  0.97618019684E+02  0.51100000000E-03 0.  1.
         11    1    3    3    0    0  0.32461708891E+02  0.24203765088E+02  0.22257903770E+02  0.46206050134E+02  0.51100000000E-03 0. -1.
<mgrwt>
<rscale>  0 0.91357464E+02</rscale>
<asrwt>0</asrwt>
<pdfrwt beam="2">  1        3 0.25186326E-02 0.91357464E+02</pdfrwt>
<pdfrwt beam="1">  1       -3 0.19608147E-01 0.91357464E+02</pdfrwt>
<totfact> 0.31520664E+04</totfact>
</mgrwt>
</event>
<event>
 5    1  0.7431090E-001  0.8577972E+02  0.7818608E-02  0.1313406E+00
         -3   -1    0    0    0  501 -0.00000000000E+00  0.00000000000E+00  0.42806088360E+02  0.42806189385E+02  0.93000000000E-01 0.  1.
          3   -1    0    0  501    0  0.00000000000E+00 -0.00000000000E+00 -0.42973597955E+02  0.42973698586E+02  0.93000000000E-01 0. -1.
         23    2    1    2    0    0  0.00000000000E+00  0.00000000000E+00 -0.16750959520E+00  0.85779887971E+02  0.85779724416E+02 0.  0.
        -11    1    3    3    0    0  0.16382622638E+02  0.25685139451E+01  0.39470747573E+02  0.42812702585E+02  0.51100000000E-03 0.  1.
         11    1    3    3    0    0 -0.16382622638E+02 -0.25685139451E+01 -0.39638257168E+02  0.42967185386E+02  0.51100000000E-03 0. -1.
<mgrwt>
<rscale>  0 0.85779724E+02</rscale>
<asrwt>0</asrwt>
<pdfrwt beam="2">  1        3 0.66113383E-02 0.85779724E+02</pdfrwt>
<pdfrwt beam="1">  1       -3 0.65855676E-02 0.85779724E+02</pdfrwt>
<totfact> 0.42196607E+04</totfact>
</mgrwt>
</event>
<event>
 5    1  0.7431090E-001  0.9179923E+02  0.7818608E-02  0.1298552E+00
          3   -1    0    0  501    0  0.00000000000E+00  0.00000000000E+00  0.24174720926E+02  0.24174899811E+02  0.93000000000E-01 0. -1.
         -3   -1    0    0    0  501 -0.00000000000E+00 -0.00000000000E+00 -0.87147317489E+02  0.87147367112E+02  0.93000000000E-01 0.  1.
         23    2    1    2    0    0  0.00000000000E+00  0.00000000000E+00 -0.62972596563E+02  0.11132226692E+03  0.91799233085E+02 0.  0.
        -11    1    3    3    0    0  0.14990012091E+02 -0.19642523728E+02 -0.78394029863E+02  0.82195821788E+02  0.51100000000E-03 0.  1.
         11    1    3    3    0    0 -0.14990012091E+02  0.19642523728E+02  0.15421433300E+02  0.29126445135E+02  0.51100000000E-03 0. -1.
<mgrwt>
<rscale>  0 0.91799233E+02</rscale>
<asrwt>0</asrwt>
<pdfrwt beam="1">  1        3 0.37192054E-02 0.91799233E+02</pdfrwt>
<pdfrwt beam="2">  1       -3 0.13407297E-01 0.91799233E+02</pdfrwt>
<totfact> 0.33230889E+04</totfact>
</mgrwt>
</event>
<event>
 5    1  0.7431090E-001  0.9033926E+02  0.7818608E-02  0.1302032E+00
         -3   -1    0    0    0  501 -0.00000000000E+00  0.00000000000E+00  0.12000804674E+03  0.12000808278E+03  0.93000000000E-01 0.  1.
          3   -1    0    0  501    0  0.00000000000E+00 -0.00000000000E+00 -0.17001157195E+02  0.17001411558E+02  0.93000000000E-01 0. -1.
         23    2    1    2    0    0  0.00000000000E+00  0.00000000000E+00  0.10300688955E+03  0.13700949434E+03  0.90339261919E+02 0.  0.
        -11    1    3    3    0    0 -0.18169922810E+02  0.18703730124E+02 -0.44329740448E+01  0.26450460764E+02  0.51100000000E-03 0. -1.
         11    1    3    3    0    0  0.18169922810E+02 -0.18703730124E+02  0.10743986359E+03  0.11055903357E+03  0.51100000000E-03 0.  1.
<mgrwt>
<rscale>  0 0.90339262E+02</rscale>
<asrwt>0</asrwt>
<pdfrwt beam="2">  1        3 0.26155850E-02 0.90339262E+02</pdfrwt>
<pdfrwt beam="1">  1       -3 0.18462799E-01 0.90339262E+02</pdfrwt>
<totfact> 0.32934774E+04</totfact>
</mgrwt>
</event>
<event>
 5    1  0.7431090E-001  0.8936743E+02  0.7818608E-02  0.1304391E+00
         -3   -1    0    0    0  501 -0.00000000000E+00  0.00000000000E+00  0.87978344121E+01  0.87983259398E+01  0.93000000000E-01 0.  1.
          3   -1    0    0  501    0  0.00000000000E+00 -0.00000000000E+00 -0.22693926648E+03  0.22693928553E+03  0.93000000000E-01 0. -1.
         23    2    1    2    0    0  0.00000000000E+00  0.00000000000E+00 -0.21814143206E+03  0.23573761147E+03  0.89367427396E+02 0.  0.
        -11    1    3    3    0    0  0.39910337711E+01 -0.38927562574E+02 -0.16597433020E+03  0.17052495936E+03  0.51100000000E-03 0. -1.
         11    1    3    3    0    0 -0.39910337711E+01  0.38927562574E+02 -0.52167101865E+02  0.65212652114E+02  0.51100000000E-03 0.  1.
<mgrwt>
<rscale>  0 0.89367427E+02</rscale>
<asrwt>0</asrwt>
<pdfrwt beam="2">  1        3 0.34913768E-01 0.89367427E+02</pdfrwt>
<pdfrwt beam="1">  1       -3 0.13535524E-02 0.89367427E+02</pdfrwt>
<totfact> 0.28230019E+04</totfact>
</mgrwt>
</event>
<event>
 5    1  0.7431090E-001  0.9074523E+02  0.7818608E-02  0.1301057E+00
          3   -1    0    0  501    0  0.00000000000E+00  0.00000000000E+00  0.21462796163E+02  0.21462997650E+02  0.93000000000E-01 0. -1.
         -3   -1    0    0    0  501 -0.00000000000E+00 -0.00000000000E+00 -0.95917592491E+02  0.95917637576E+02  0.93000000000E-01 0.  1.
         23    2    1    2    0    0  0.00000000000E+00  0.00000000000E+00 -0.74454796328E+02  0.11738063523E+03  0.90745230342E+02 0.  0.
        -11    1    3    3    0    0  0.31519912760E+02  0.25478329652E+02 -0.10843931831E+02  0.41955226612E+02  0.51100000000E-03 0. -1.
         11    1    3    3    0    0 -0.31519912760E+02 -0.25478329652E+02 -0.63610864497E+02  0.75425408614E+02  0.51100000000E-03 0.  1.
<mgrwt>
<rscale>  0 0.90745230E+02</rscale>
<asrwt>0</asrwt>
<pdfrwt beam="1">  1        3 0.33019877E-02 0.90745230E+02</pdfrwt>
<pdfrwt beam="2">  1       -3 0.14756571E-01 0.90745230E+02</pdfrwt>
<totfact> 0.33861422E+04</totfact>
</mgrwt>
</event>
<event>
 5    1  0.7431090E-001  0.9289721E+02  0.7818608E-02  0.1295984E+00
          3   -1    0    0  501    0  0.00000000000E+00  0.00000000000E+00  0.46884972568E+02  0.46885064805E+02  0.93000000000E-01 0. -1.
         -3   -1    0    0    0  501 -0.00000000000E+00 -0.00000000000E+00 -0.46016112828E+02  0.46016206806E+02  0.93000000000E-01 0.  1.
         23    2    1    2    0    0  0.00000000000E+00  0.00000000000E+00  0.86885974004E+00  0.92901271611E+02  0.92897208514E+02 0.  0.
        -11    1    3    3    0    0  0.24894549752E+02 -0.31027086465E+02 -0.23546905358E+02  0.46226350214E+02  0.51100000000E-03 0.  1.
         11    1    3    3    0    0 -0.24894549752E+02  0.31027086465E+02  0.24415765099E+02  0.46674921397E+02  0.51100000000E-03 0. -1.
<mgrwt>
<rscale>  0 0.92897209E+02</rscale>
<asrwt>0</asrwt>
<pdfrwt beam="1">  1        3 0.72130870E-02 0.92897209E+02</pdfrwt>
<pdfrwt beam="2">  1       -3 0.70794163E-02 0.92897209E+02</pdfrwt>
<totfact> 0.33453669E+04</totfact>
</mgrwt>
</event>
<event>
 5    1  0.7431090E-001  0.9251964E+02  0.7818608E-02  0.1296862E+00
         -3   -1    0    0    0  501 -0.00000000000E+00  0.00000000000E+00  0.12644632163E+03  0.12644635583E+03  0.93000000000E-01 0.  1.
          3   -1    0    0  501    0  0.00000000000E+00 -0.00000000000E+00 -0.16923784750E+02  0.16924040276E+02  0.93000000000E-01 0. -1.
         23    2    1    2    0    0  0.00000000000E+00  0.00000000000E+00  0.10952253688E+03  0.14337039611E+03  0.92519643294E+02 0.  0.
        -11    1    3    3    0    0 -0.16553488916E+02 -0.14271351883E+02 -0.84184719015E+01  0.23421360961E+02  0.51100000000E-03 0. -1.
         11    1    3    3    0    0  0.16553488916E+02  0.14271351883E+02  0.11794100878E+03  0.11994903515E+03  0.51100000000E-03 0.  1.
<mgrwt>
<rscale>  0 0.92519643E+02</rscale>
<asrwt>0</asrwt>
<pdfrwt beam="2">  1        3 0.26036815E-02 0.92519643E+02</pdfrwt>
<pdfrwt beam="1">  1       -3 0.19453302E-01 0.92519643E+02</pdfrwt>
<totfact> 0.30484012E+04</totfact>
</mgrwt>
</event>
<event>
 5    1  0.7431090E-001  0.9153874E+02  0.7818608E-02  0.1299168E+00
         -3   -1    0    0    0  501 -0.00000000000E+00  0.00000000000E+00  0.45891328741E+02  0.45891422975E+02  0.93000000000E-01 0.  1.
          3   -1    0    0  501    0  0.00000000000E+00 -0.00000000000E+00 -0.45647544368E+02  0.45647639105E+02  0.93000000000E-01 0. -1.
         23    2    1    2    0    0  0.00000000000E+00  0.00000000000E+00  0.24378437321E+00  0.91539062079E+02  0.91538737459E+02 0.  0.
        -11    1    3    3    0    0  0.38171495199E+02 -0.19662750089E+02  0.15969608367E+02  0.45811736252E+02  0.51100000000E-03 0.  1.
         11    1    3    3    0    0 -0.38171495199E+02  0.19662750089E+02 -0.15725823994E+02  0.45727325827E+02  0.51100000000E-03 0. -1.
<mgrwt>
<rscale>  0 0.91538737E+02</rscale>
<asrwt>0</asrwt>
<pdfrwt beam="2">  1        3 0.70227136E-02 0.91538737E+02</pdfrwt>
<pdfrwt beam="1">  1       -3 0.70602190E-02 0.91538737E+02</pdfrwt>
<totfact> 0.34930883E+04</totfact>
</mgrwt>
</event>
<event>
 5    1  0.7431090E-001  0.9014982E+02  0.7818608E-02  0.1302489E+00
         -3   -1    0    0    0  501 -0.00000000000E+00  0.00000000000E+00  0.20137537878E+03  0.20137540025E+03  0.93000000000E-01 0.  1.
          3   -1    0    0  501    0  0.00000000000E+00 -0.00000000000E+00 -0.10089118563E+02  0.10089547184E+02  0.93000000000E-01 0. -1.
         23    2    1    2    0    0  0.00000000000E+00  0.00000000000E+00  0.19128626021E+03  0.21146494744E+03  0.90149823336E+02 0.  0.
        -11    1    3    3    0    0  0.11840428509E+02  0.28515190737E+02  0.17267503886E+03  0.17541374204E+03  0.51100000000E-03 0.  1.
         11    1    3    3    0    0 -0.11840428509E+02 -0.28515190737E+02  0.18611221351E+02  0.36051205396E+02  0.51100000000E-03 0. -1.
<mgrwt>
<rscale>  0 0.90149823E+02</rscale>
<asrwt>0</asrwt>
<pdfrwt beam="2">  1        3 0.15522068E-02 0.90149823E+02</pdfrwt>
<pdfrwt beam="1">  1       -3 0.30980860E-01 0.90149823E+02</pdfrwt>
<totfact> 0.28778680E+04</totfact>
</mgrwt>
</event>
<event>
 5    1  0.7431090E-001  0.8805311E+02  0.7818608E-02  0.1307636E+00
         -3   -1    0    0    0  501 -0.00000000000E+00  0.00000000000E+00  0.26339728312E+02  0.26339892493E+02  0.93000000000E-01 0.  1.
          3   -1    0    0  501    0  0.00000000000E+00 -0.00000000000E+00 -0.73589456224E+02  0.73589514989E+02  0.93000000000E-01 0. -1.
         23    2    1    2    0    0  0.00000000000E+00  0.00000000000E+00 -0.47249727912E+02  0.99929407483E+02  0.88053107226E+02 0.  0.
        -11    1    3    3    0    0 -0.18080761601E+00 -0.30449715858E+02 -0.59711788956E+02  0.67027722831E+02  0.51100000000E-03 0. -1.
         11    1    3    3    0    0  0.18080761601E+00  0.30449715858E+02  0.12462061044E+02  0.32901684652E+02  0.51100000000E-03 0.  1.
<mgrwt>
<rscale>  0 0.88053107E+02</rscale>
<asrwt>0</asrwt>
<pdfrwt beam="2">  1        3 0.11321472E-01 0.88053107E+02</pdfrwt>
<pdfrwt beam="1">  1       -3 0.40522831E-02 0.88053107E+02</pdfrwt>
<totfact> 0.38114646E+04</totfact>
</mgrwt>
</event>
<event>
 5    1  0.7431090E-001  0.9075923E+02  0.7818608E-02  0.1301023E+00
         -3   -1    0    0    0  501 -0.00000000000E+00  0.00000000000E+00  0.68809218517E+02  0.68809281365E+02  0.93000000000E-01 0.  1.
          3   -1    0    0  501    0  0.00000000000E+00 -0.00000000000E+00 -0.29927663472E+02  0.29927807970E+02  0.93000000000E-01 0. -1.
         23    2    1    2    0    0  0.00000000000E+00  0.00000000000E+00  0.38881555045E+02  0.98737089335E+02  0.90759228113E+02 0.  0.
        -11    1    3    3    0    0  0.37163277770E+02 -0.25138604332E+01 -0.87583452183E+01  0.38264047356E+02  0.51100000000E-03 0. -1.
         11    1    3    3    0    0 -0.37163277770E+02  0.25138604332E+01  0.47639900263E+02  0.60473041979E+02  0.51100000000E-03 0.  1.
<mgrwt>
<rscale>  0 0.90759228E+02</rscale>
<asrwt>0</asrwt>
<pdfrwt beam="2">  1        3 0.46042719E-02 0.90759228E+02</pdfrwt>
<pdfrwt beam="1">  1       -3 0.10586050E-01 0.90759228E+02</pdfrwt>
<totfact> 0.35203033E+04</totfact>
</mgrwt>
</event>
<event>
 5    1  0.7431090E-001  0.9108512E+02  0.7818608E-02  0.1300245E+00
          3   -1    0    0  501    0  0.00000000000E+00  0.00000000000E+00  0.68190002030E+01  0.68196343574E+01  0.93000000000E-01 0. -1.
         -3   -1    0    0    0  501 -0.00000000000E+00 -0.00000000000E+00 -0.30415369225E+03  0.30415370647E+03  0.93000000000E-01 0.  1.
         23    2    1    2    0    0  0.00000000000E+00  0.00000000000E+00 -0.29733469205E+03  0.31097334083E+03  0.91085122877E+02 0.  0.
        -11    1    3    3    0    0 -0.23333648011E+02  0.39035773947E+02 -0.14039274043E+03  0.14757497194E+03  0.51100000000E-03 0.  1.
         11    1    3    3    0    0  0.23333648011E+02 -0.39035773947E+02 -0.15694195162E+03  0.16339836889E+03  0.51100000000E-03 0. -1.
<mgrwt>
<rscale>  0 0.91085123E+02</rscale>
<asrwt>0</asrwt>
<pdfrwt beam="1">  1        3 0.10491271E-02 0.91085123E+02</pdfrwt>
<pdfrwt beam="2">  1       -3 0.46792915E-01 0.91085123E+02</pdfrwt>
<totfact> 0.23668240E+04</totfact>
</mgrwt>
</event>
<event>
 5    1  0.7431090E-001  0.9485739E+02  0.7818608E-02  0.1291498E+00
          3   -1    0    0  501    0  0.00000000000E+00  0.00000000000E+00  0.20907999987E+02  0.20908206821E+02  0.93000000000E-01 0. -1.
         -3   -1    0    0    0  501 -0.00000000000E+00 -0.00000000000E+00 -0.10758873303E+03  0.10758877323E+03  0.93000000000E-01 0.  1.
         23    2    1    2    0    0  0.00000000000E+00  0.00000000000E+00 -0.86680733047E+02  0.12849698005E+03  0.94857389804E+02 0.  0.
        -11    1    3    3    0    0  0.34993424766E+02  0.21259023412E+02 -0.10914076664E+02  0.42374555136E+02  0.51100000000E-03 0. -1.
         11    1    3    3    0    0 -0.34993424766E+02 -0.21259023412E+02 -0.75766656383E+02  0.86122424914E+02  0.51100000000E-03 0.  1.
<mgrwt>
<rscale>  0 0.94857390E+02</rscale>
<asrwt>0</asrwt>
<pdfrwt beam="1">  1        3 0.32166345E-02 0.94857390E+02</pdfrwt>
<pdfrwt beam="2">  1       -3 0.16552131E-01 0.94857390E+02</pdfrwt>
<totfact> 0.29337269E+04</totfact>
</mgrwt>
</event>
<event>
 5    1  0.7431090E-001  0.8534896E+02  0.7818608E-02  0.1314522E+00
         -3   -1    0    0    0  501 -0.00000000000E+00  0.00000000000E+00  0.29494319606E+02  0.29494466227E+02  0.93000000000E-01 0.  1.
          3   -1    0    0  501    0  0.00000000000E+00 -0.00000000000E+00 -0.61744141537E+02  0.61744211576E+02  0.93000000000E-01 0. -1.
         23    2    1    2    0    0  0.00000000000E+00  0.00000000000E+00 -0.32249821931E+02  0.91238677803E+02  0.85348961990E+02 0.  0.
        -11    1    3    3    0    0  0.18588481581E+02  0.26604079552E+02 -0.45746308017E+02  0.56089512333E+02  0.51100000000E-03 0. -1.
         11    1    3    3    0    0 -0.18588481581E+02 -0.26604079552E+02  0.13496486087E+02  0.35149165470E+02  0.51100000000E-03 0.  1.
<mgrwt>
<rscale>  0 0.85348962E+02</rscale>
<asrwt>0</asrwt>
<pdfrwt beam="2">  1        3 0.94991154E-02 0.85348962E+02</pdfrwt>
<pdfrwt beam="1">  1       -3 0.45376043E-02 0.85348962E+02</pdfrwt>
<totfact> 0.42259893E+04</totfact>
</mgrwt>
</event>
<event>
 5    1  0.7431090E-001  0.1167849E+03  0.7818608E-02  0.1248497E+00
          3   -1    0    0  501    0  0.00000000000E+00  0.00000000000E+00  0.26390287895E+03  0.26390289534E+03  0.93000000000E-01 0. -1.
         -3   -1    0    0    0  501 -0.00000000000E+00 -0.00000000000E+00 -0.12920027232E+02  0.12920361940E+02  0.93000000000E-01 0.  1.
         23    2    1    2    0    0  0.00000000000E+00  0.00000000000E+00  0.25098285172E+03  0.27682325728E+03  0.11678494729E+03 0.  0.
        -11    1    3    3    0    0 -0.50473275107E+02  0.29336423771E+02  0.12839811738E+03  0.14104699148E+03  0.51100000000E-03 0.  1.
         11    1    3    3    0    0  0.50473275107E+02 -0.29336423771E+02  0.12258473434E+03  0.13577626579E+03  0.51100000000E-03 0. -1.
<mgrwt>
<rscale>  0 0.11678495E+03</rscale>
<asrwt>0</asrwt>
<pdfrwt beam="1">  1        3 0.40600466E-01 0.11678495E+03</pdfrwt>
<pdfrwt beam="2">  1       -3 0.19877237E-02 0.11678495E+03</pdfrwt>
<totfact> 0.12703981E+04</totfact>
</mgrwt>
</event>
<event>
 5    1  0.7431090E-001  0.8850511E+02  0.7818608E-02  0.1306513E+00
         -3   -1    0    0    0  501 -0.00000000000E+00  0.00000000000E+00  0.13001467936E+02  0.13001800548E+02  0.93000000000E-01 0. -1.
          3   -1    0    0  501    0  0.00000000000E+00 -0.00000000000E+00 -0.15061831232E+03  0.15061834103E+03  0.93000000000E-01 0.  1.
         23    2    1    2    0    0  0.00000000000E+00  0.00000000000E+00 -0.13761684438E+03  0.16362014158E+03  0.88505112125E+02 0.  0.
        -11    1    3    3    0    0 -0.28345484618E+02 -0.26430575290E+02 -0.10829671654E+03  0.11502269611E+03  0.51100000000E-03 0.  1.
         11    1    3    3    0    0  0.28345484618E+02  0.26430575290E+02 -0.29320127842E+02  0.48597445461E+02  0.51100000000E-03 0. -1.
<mgrwt>
<rscale>  0 0.88505112E+02</rscale>
<asrwt>0</asrwt>
<pdfrwt beam="2">  1        3 0.23172075E-01 0.88505112E+02</pdfrwt>
<pdfrwt beam="1">  1       -3 0.20002537E-02 0.88505112E+02</pdfrwt>
<totfact> 0.33040373E+04</totfact>
</mgrwt>
</event>
<event>
 5    1  0.7431090E-001  0.9627867E+02  0.7818608E-02  0.1288322E+00
          3   -1    0    0  501    0  0.00000000000E+00  0.00000000000E+00  0.96081331107E+02  0.96081376115E+02  0.93000000000E-01 0. -1.
         -3   -1    0    0    0  501 -0.00000000000E+00 -0.00000000000E+00 -0.24118960846E+02  0.24119140145E+02  0.93000000000E-01 0.  1.
         23    2    1    2    0    0  0.00000000000E+00  0.00000000000E+00  0.71962370260E+02  0.12020051626E+03  0.96278665216E+02 0.  0.
        -11    1    3    3    0    0 -0.33991950785E+02  0.25640954722E+02  0.79397653193E+01  0.43312251740E+02  0.51100000000E-03 0.  1.
         11    1    3    3    0    0  0.33991950785E+02 -0.25640954722E+02  0.64022604941E+02  0.76888264520E+02  0.51100000000E-03 0. -1.
<mgrwt>
<rscale>  0 0.96278665E+02</rscale>
<asrwt>0</asrwt>
<pdfrwt beam="1">  1        3 0.14781761E-01 0.96278665E+02</pdfrwt>
<pdfrwt beam="2">  1       -3 0.37106266E-02 0.96278665E+02</pdfrwt>
<totfact> 0.28645391E+04</totfact>
</mgrwt>
</event>
<event>
 5    1  0.7431090E-001  0.9187233E+02  0.7818608E-02  0.1298380E+00
          3   -1    0    0  501    0  0.00000000000E+00  0.00000000000E+00  0.42711552848E+02  0.42711654097E+02  0.93000000000E-01 0. -1.
         -3   -1    0    0    0  501 -0.00000000000E+00 -0.00000000000E+00 -0.49404023531E+02  0.49404111064E+02  0.93000000000E-01 0.  1.
         23    2    1    2    0    0  0.00000000000E+00  0.00000000000E+00 -0.66924706822E+01  0.92115765161E+02  0.91872330042E+02 0.  0.
        -11    1    3    3    0    0 -0.45712940437E+02 -0.22469441602E+01 -0.72821399600E+01  0.46343837175E+02  0.51100000000E-03 0.  1.
         11    1    3    3    0    0  0.45712940437E+02  0.22469441602E+01  0.58966927781E+00  0.45771927986E+02  0.51100000000E-03 0. -1.
<mgrwt>
<rscale>  0 0.91872330E+02</rscale>
<asrwt>0</asrwt>
<pdfrwt beam="1">  1        3 0.65710227E-02 0.91872330E+02</pdfrwt>
<pdfrwt beam="2">  1       -3 0.76006335E-02 0.91872330E+02</pdfrwt>
<totfact> 0.34542593E+04</totfact>
</mgrwt>
</event>
<event>
 5    1  0.7431090E-001  0.8711705E+02  0.7818608E-02  0.1309987E+00
          3   -1    0    0  501    0  0.00000000000E+00  0.00000000000E+00  0.39166990674E+02  0.39167101086E+02  0.93000000000E-01 0. -1.
         -3   -1    0    0    0  501 -0.00000000000E+00 -0.00000000000E+00 -0.48442226993E+02  0.48442316264E+02  0.93000000000E-01 0.  1.
         23    2    1    2    0    0  0.00000000000E+00  0.00000000000E+00 -0.92752363189E+01  0.87609417351E+02  0.87117047699E+02 0.  0.
        -11    1    3    3    0    0 -0.24832742274E+02  0.13460650393E+02  0.28708358592E+02  0.40274359724E+02  0.51100000000E-03 0. -1.
         11    1    3    3    0    0  0.24832742274E+02 -0.13460650393E+02 -0.37983594911E+02  0.47335057626E+02  0.51100000000E-03 0.  1.
<mgrwt>
<rscale>  0 0.87117048E+02</rscale>
<asrwt>0</asrwt>
<pdfrwt beam="1">  1        3 0.60257062E-02 0.87117048E+02</pdfrwt>
<pdfrwt beam="2">  1       -3 0.74526657E-02 0.87117048E+02</pdfrwt>
<totfact> 0.40303282E+04</totfact>
</mgrwt>
</event>
<event>
 5    1  0.7431090E-001  0.9063423E+02  0.7818608E-02  0.1301323E+00
         -3   -1    0    0    0  501 -0.00000000000E+00  0.00000000000E+00  0.38938833969E+02  0.38938945028E+02  0.93000000000E-01 0.  1.
          3   -1    0    0  501    0  0.00000000000E+00 -0.00000000000E+00 -0.52739943940E+02  0.52740025937E+02  0.93000000000E-01 0. -1.
         23    2    1    2    0    0  0.00000000000E+00  0.00000000000E+00 -0.13801109971E+02  0.91678970965E+02  0.90634226872E+02 0.  0.
        -11    1    3    3    0    0  0.35611406948E+02 -0.11552122960E+02  0.18928405540E+02  0.41951262034E+02  0.51100000000E-03 0.  1.
         11    1    3    3    0    0 -0.35611406948E+02  0.11552122960E+02 -0.32729515511E+02  0.49727708931E+02  0.51100000000E-03 0. -1.
<mgrwt>
<rscale>  0 0.90634227E+02</rscale>
<asrwt>0</asrwt>
<pdfrwt beam="2">  1        3 0.81138524E-02 0.90634227E+02</pdfrwt>
<pdfrwt beam="1">  1       -3 0.59906047E-02 0.90634227E+02</pdfrwt>
<totfact> 0.35878325E+04</totfact>
</mgrwt>
</event>
<event>
 5    1  0.7431090E-001  0.8475858E+02  0.7818608E-02  0.1316065E+00
         -3   -1    0    0    0  501 -0.00000000000E+00  0.00000000000E+00  0.11341035757E+02  0.11341417065E+02  0.93000000000E-01 0.  1.
          3   -1    0    0  501    0  0.00000000000E+00 -0.00000000000E+00 -0.15836027569E+03  0.15836030300E+03  0.93000000000E-01 0. -1.
         23    2    1    2    0    0  0.00000000000E+00  0.00000000000E+00 -0.14701923993E+03  0.16970172006E+03  0.84758579990E+02 0.  0.
        -11    1    3    3    0    0 -0.22649126893E+01 -0.41619119339E+02 -0.88852531634E+02  0.98143024724E+02  0.51100000000E-03 0. -1.
         11    1    3    3    0    0  0.22649126893E+01  0.41619119339E+02 -0.58166708300E+02  0.71558695340E+02  0.51100000000E-03 0.  1.
<mgrwt>
<rscale>  0 0.84758580E+02</rscale>
<asrwt>0</asrwt>
<pdfrwt beam="2">  1        3 0.24363149E-01 0.84758580E+02</pdfrwt>
<pdfrwt beam="1">  1       -3 0.17448063E-02 0.84758580E+02</pdfrwt>
<totfact> 0.36679297E+04</totfact>
</mgrwt>
</event>
<event>
 5    1  0.7431090E-001  0.8164220E+02  0.7818608E-02  0.1324455E+00
          3   -1    0    0  501    0  0.00000000000E+00  0.00000000000E+00  0.49213427024E+02  0.49213514897E+02  0.93000000000E-01 0. -1.
         -3   -1    0    0    0  501 -0.00000000000E+00 -0.00000000000E+00 -0.33859729709E+02  0.33859857427E+02  0.93000000000E-01 0.  1.
         23    2    1    2    0    0  0.00000000000E+00  0.00000000000E+00  0.15353697315E+02  0.83073372324E+02  0.81642202126E+02 0.  0.
        -11    1    3    3    0    0  0.28808953907E+02 -0.43271273013E+01 -0.21419565173E+02  0.36159060114E+02  0.51100000000E-03 0.  1.
         11    1    3    3    0    0 -0.28808953907E+02  0.43271273013E+01  0.36773262488E+02  0.46914312210E+02  0.51100000000E-03 0. -1.
<mgrwt>
<rscale>  0 0.81642202E+02</rscale>
<asrwt>0</asrwt>
<pdfrwt beam="1">  1        3 0.75713131E-02 0.81642202E+02</pdfrwt>
<pdfrwt beam="2">  1       -3 0.52092057E-02 0.81642202E+02</pdfrwt>
<totfact> 0.48506171E+04</totfact>
</mgrwt>
</event>
<event>
 5    1  0.7431090E-001  0.9138803E+02  0.7818608E-02  0.1299525E+00
          3   -1    0    0  501    0  0.00000000000E+00  0.00000000000E+00  0.11529223965E+02  0.11529599049E+02  0.93000000000E-01 0. -1.
         -3   -1    0    0    0  501 -0.00000000000E+00 -0.00000000000E+00 -0.18109669541E+03  0.18109671929E+03  0.93000000000E-01 0.  1.
         23    2    1    2    0    0  0.00000000000E+00  0.00000000000E+00 -0.16956747145E+03  0.19262631834E+03  0.91388025171E+02 0.  0.
        -11    1    3    3    0    0 -0.17197483343E+02 -0.24117367323E+02 -0.15811957267E+03  0.16087013427E+03  0.51100000000E-03 0.  1.
         11    1    3    3    0    0  0.17197483343E+02  0.24117367323E+02 -0.11447898780E+02  0.31756184070E+02  0.51100000000E-03 0. -1.
<mgrwt>
<rscale>  0 0.91388025E+02</rscale>
<asrwt>0</asrwt>
<pdfrwt beam="1">  1        3 0.17737576E-02 0.91388025E+02</pdfrwt>
<pdfrwt beam="2">  1       -3 0.27861059E-01 0.91388025E+02</pdfrwt>
<totfact> 0.28703390E+04</totfact>
</mgrwt>
</event>
<event>
 5    1  0.7431090E-001  0.8999204E+02  0.7818608E-02  0.1302871E+00
         -3   -1    0    0    0  501 -0.00000000000E+00  0.00000000000E+00  0.83334771528E+01  0.83339960676E+01  0.93000000000E-01 0.  1.
          3   -1    0    0  501    0  0.00000000000E+00 -0.00000000000E+00 -0.24294475297E+03  0.24294477077E+03  0.93000000000E-01 0. -1.
         23    2    1    2    0    0  0.00000000000E+00  0.00000000000E+00 -0.23461127581E+03  0.25127876683E+03  0.89992043664E+02 0.  0.
        -11    1    3    3    0    0  0.25509552300E+02 -0.35349962058E+02 -0.86176946155E+02  0.96575478900E+02  0.51100000000E-03 0.  1.
         11    1    3    3    0    0 -0.25509552300E+02  0.35349962058E+02 -0.14843432966E+03  0.15470328793E+03  0.51100000000E-03 0. -1.
<mgrwt>
<rscale>  0 0.89992044E+02</rscale>
<asrwt>0</asrwt>
<pdfrwt beam="2">  1        3 0.37376152E-01 0.89992044E+02</pdfrwt>
<pdfrwt beam="1">  1       -3 0.12821149E-02 0.89992044E+02</pdfrwt>
<totfact> 0.26977966E+04</totfact>
</mgrwt>
</event>
<event>
 5    1  0.7431090E-001  0.6624603E+02  0.7818608E-02  0.1373345E+00
          3   -1    0    0  501    0  0.00000000000E+00  0.00000000000E+00  0.29483034113E+02  0.29483180790E+02  0.93000000000E-01 0. -1.
         -3   -1    0    0    0  501 -0.00000000000E+00 -0.00000000000E+00 -0.37212086572E+02  0.37212202784E+02  0.93000000000E-01 0.  1.
         23    2    1    2    0    0  0.00000000000E+00  0.00000000000E+00 -0.77290524589E+01  0.66695383573E+02  0.66246025829E+02 0.  0.
        -11    1    3    3    0    0 -0.16960638861E+01  0.32952831635E+02 -0.95211312008E+00  0.33010184264E+02  0.51100000000E-03 0. -1.
         11    1    3    3    0    0  0.16960638861E+01 -0.32952831635E+02 -0.67769393388E+01  0.33685199310E+02  0.51100000000E-03 0.  1.
<mgrwt>
<rscale>  0 0.66246026E+02</rscale>
<asrwt>0</asrwt>
<pdfrwt beam="1">  1        3 0.45358716E-02 0.66246026E+02</pdfrwt>
<pdfrwt beam="2">  1       -3 0.57249566E-02 0.66246026E+02</pdfrwt>
<totfact> 0.87795066E+04</totfact>
</mgrwt>
</event>
<event>
 5    1  0.7431090E-001  0.9027162E+02  0.7818608E-02  0.1302195E+00
         -3   -1    0    0    0  501 -0.00000000000E+00  0.00000000000E+00  0.10661111103E+02  0.10661516728E+02  0.93000000000E-01 0.  1.
          3   -1    0    0  501    0  0.00000000000E+00 -0.00000000000E+00 -0.19108685119E+03  0.19108687382E+03  0.93000000000E-01 0. -1.
         23    2    1    2    0    0  0.00000000000E+00  0.00000000000E+00 -0.18042574009E+03  0.20174839055E+03  0.90271620143E+02 0.  0.
        -11    1    3    3    0    0  0.35799767107E+02  0.65835494223E+00 -0.15162941805E+03  0.15579967001E+03  0.51100000000E-03 0. -1.
         11    1    3    3    0    0 -0.35799767107E+02 -0.65835494223E+00 -0.28796322033E+02  0.45948720538E+02  0.51100000000E-03 0.  1.
<mgrwt>
<rscale>  0 0.90271620E+02</rscale>
<asrwt>0</asrwt>
<pdfrwt beam="2">  1        3 0.29398008E-01 0.90271620E+02</pdfrwt>
<pdfrwt beam="1">  1       -3 0.16402040E-02 0.90271620E+02</pdfrwt>
<totfact> 0.29182090E+04</totfact>
</mgrwt>
</event>
<event>
 5    1  0.7431090E-001  0.9223124E+02  0.7818608E-02  0.1297537E+00
         -3   -1    0    0    0  501 -0.00000000000E+00  0.00000000000E+00  0.33782936671E+02  0.33783064679E+02  0.93000000000E-01 0.  1.
          3   -1    0    0  501    0  0.00000000000E+00 -0.00000000000E+00 -0.62950149892E+02  0.62950218589E+02  0.93000000000E-01 0. -1.
         23    2    1    2    0    0  0.00000000000E+00  0.00000000000E+00 -0.29167213222E+02  0.96733283268E+02  0.92231240720E+02 0.  0.
        -11    1    3    3    0    0  0.14326748684E+02 -0.42306264639E+02 -0.26614116868E+02  0.51994105171E+02  0.51100000000E-03 0.  1.
         11    1    3    3    0    0 -0.14326748684E+02  0.42306264639E+02 -0.25530963539E+01  0.44739178097E+02  0.51100000000E-03 0. -1.
<mgrwt>
<rscale>  0 0.92231241E+02</rscale>
<asrwt>0</asrwt>
<pdfrwt beam="2">  1        3 0.96846536E-02 0.92231241E+02</pdfrwt>
<pdfrwt beam="1">  1       -3 0.51973900E-02 0.92231241E+02</pdfrwt>
<totfact> 0.33836661E+04</totfact>
</mgrwt>
</event>
<event>
 5    1  0.7431090E-001  0.1038560E+03  0.7818608E-02  0.1272390E+00
          3   -1    0    0  501    0  0.00000000000E+00  0.00000000000E+00  0.94396571126E+02  0.94396616938E+02  0.93000000000E-01 0. -1.
         -3   -1    0    0    0  501 -0.00000000000E+00 -0.00000000000E+00 -0.28565689840E+02  0.28565841227E+02  0.93000000000E-01 0.  1.
         23    2    1    2    0    0  0.00000000000E+00  0.00000000000E+00  0.65830881286E+02  0.12296245817E+03  0.10385596366E+03 0.  0.
        -11    1    3    3    0    0  0.36154154066E+02  0.21244093305E+02 -0.33473525191E+01  0.42067078883E+02  0.51100000000E-03 0.  1.
         11    1    3    3    0    0 -0.36154154066E+02 -0.21244093305E+02  0.69178233805E+02  0.80895379283E+02  0.51100000000E-03 0. -1.
<mgrwt>
<rscale>  0 0.10385596E+03</rscale>
<asrwt>0</asrwt>
<pdfrwt beam="1">  1        3 0.14522565E-01 0.10385596E+03</pdfrwt>
<pdfrwt beam="2">  1       -3 0.43947367E-02 0.10385596E+03</pdfrwt>
<totfact> 0.23134114E+04</totfact>
</mgrwt>
</event>
<event>
 5    1  0.7431090E-001  0.8779365E+02  0.7818608E-02  0.1308284E+00
         -3   -1    0    0    0  501 -0.00000000000E+00  0.00000000000E+00  0.97486169018E+02  0.97486213378E+02  0.93000000000E-01 0. -1.
          3   -1    0    0  501    0  0.00000000000E+00 -0.00000000000E+00 -0.19766043991E+02  0.19766262775E+02  0.93000000000E-01 0.  1.
         23    2    1    2    0    0  0.00000000000E+00  0.00000000000E+00  0.77720125027E+02  0.11725247615E+03  0.87793651990E+02 0.  0.
        -11    1    3    3    0    0 -0.17343203659E+02  0.36871594825E+02  0.60667945454E+02  0.73081467034E+02  0.51100000000E-03 0. -1.
         11    1    3    3    0    0  0.17343203659E+02 -0.36871594825E+02  0.17052179573E+02  0.44171009118E+02  0.51100000000E-03 0.  1.
<mgrwt>
<rscale>  0 0.87793652E+02</rscale>
<asrwt>0</asrwt>
<pdfrwt beam="2">  1        3 0.30409500E-02 0.87793652E+02</pdfrwt>
<pdfrwt beam="1">  1       -3 0.14997893E-01 0.87793652E+02</pdfrwt>
<totfact> 0.37040253E+04</totfact>
</mgrwt>
</event>
<event>
 5    1  0.7431090E-001  0.9202104E+02  0.7818608E-02  0.1298030E+00
          3   -1    0    0  501    0  0.00000000000E+00  0.00000000000E+00  0.15786908100E+03  0.15786910839E+03  0.93000000000E-01 0.  1.
         -3   -1    0    0    0  501 -0.00000000000E+00 -0.00000000000E+00 -0.13409453779E+02  0.13409776271E+02  0.93000000000E-01 0. -1.
         23    2    1    2    0    0  0.00000000000E+00  0.00000000000E+00  0.14445962722E+03  0.17127888466E+03  0.92021043435E+02 0.  0.
        -11    1    3    3    0    0  0.42421097956E+02  0.27758596755E+01  0.39473388234E+02  0.58012096391E+02  0.51100000000E-03 0.  1.
         11    1    3    3    0    0 -0.42421097956E+02 -0.27758596755E+01  0.10498623899E+03  0.11326678827E+03  0.51100000000E-03 0. -1.
<mgrwt>
<rscale>  0 0.92021043E+02</rscale>
<asrwt>0</asrwt>
<pdfrwt beam="1">  1        3 0.24287576E-01 0.92021043E+02</pdfrwt>
<pdfrwt beam="2">  1       -3 0.20630199E-02 0.92021043E+02</pdfrwt>
<totfact> 0.29312693E+04</totfact>
</mgrwt>
</event>
<event>
 5    1  0.7431090E-001  0.1002394E+03  0.7818608E-02  0.1279793E+00
          3   -1    0    0  501    0  0.00000000000E+00  0.00000000000E+00  0.26866986459E+02  0.26867147418E+02  0.93000000000E-01 0. -1.
         -3   -1    0    0    0  501 -0.00000000000E+00 -0.00000000000E+00 -0.93496529577E+02  0.93496575830E+02  0.93000000000E-01 0.  1.
         23    2    1    2    0    0  0.00000000000E+00  0.00000000000E+00 -0.66629543118E+02  0.12036372325E+03  0.10023936282E+03 0.  0.
        -11    1    3    3    0    0  0.42691376144E+02 -0.14052790893E+02 -0.66819679136E+01  0.45438785464E+02  0.51100000000E-03 0. -1.
         11    1    3    3    0    0 -0.42691376144E+02  0.14052790893E+02 -0.59947575205E+02  0.74924937785E+02  0.51100000000E-03 0.  1.
<mgrwt>
<rscale>  0 0.10023936E+03</rscale>
<asrwt>0</asrwt>
<pdfrwt beam="1">  1        3 0.41333985E-02 0.10023936E+03</pdfrwt>
<pdfrwt beam="2">  1       -3 0.14384097E-01 0.10023936E+03</pdfrwt>
<totfact> 0.25640435E+04</totfact>
</mgrwt>
</event>
<event>
 5    1  0.7431090E-001  0.9371220E+02  0.7818608E-02  0.1294103E+00
          3   -1    0    0  501    0  0.00000000000E+00  0.00000000000E+00  0.35957878329E+02  0.35957998595E+02  0.93000000000E-01 0. -1.
         -3   -1    0    0    0  501 -0.00000000000E+00 -0.00000000000E+00 -0.61057135131E+02  0.61057205958E+02  0.93000000000E-01 0.  1.
         23    2    1    2    0    0  0.00000000000E+00  0.00000000000E+00 -0.25099256802E+02  0.97015204553E+02  0.93712204234E+02 0.  0.
        -11    1    3    3    0    0 -0.24089393392E+02  0.61364718701E+01  0.28568536391E+02  0.37869729769E+02  0.51100000000E-03 0. -1.
         11    1    3    3    0    0  0.24089393392E+02 -0.61364718701E+01 -0.53667793193E+02  0.59145474784E+02  0.51100000000E-03 0.  1.
<mgrwt>
<rscale>  0 0.93712204E+02</rscale>
<asrwt>0</asrwt>
<pdfrwt beam="1">  1        3 0.55319960E-02 0.93712204E+02</pdfrwt>
<pdfrwt beam="2">  1       -3 0.93934201E-02 0.93712204E+02</pdfrwt>
<totfact> 0.32376665E+04</totfact>
</mgrwt>
</event>
<event>
 5    1  0.7431090E-001  0.9071684E+02  0.7818608E-02  0.1301125E+00
          3   -1    0    0  501    0  0.00000000000E+00  0.00000000000E+00  0.10148832394E+02  0.10149258494E+02  0.93000000000E-01 0. -1.
         -3   -1    0    0    0  501 -0.00000000000E+00 -0.00000000000E+00 -0.20271679011E+03  0.20271681144E+03  0.93000000000E-01 0.  1.
         23    2    1    2    0    0  0.00000000000E+00  0.00000000000E+00 -0.19256795772E+03  0.21286606994E+03  0.90716841829E+02 0.  0.
        -11    1    3    3    0    0  0.37854927916E+02  0.21128754419E+02 -0.64980855716E+02  0.78114860562E+02  0.51100000000E-03 0. -1.
         11    1    3    3    0    0 -0.37854927916E+02 -0.21128754419E+02 -0.12758710200E+03  0.13475120938E+03  0.51100000000E-03 0.  1.
<mgrwt>
<rscale>  0 0.90716842E+02</rscale>
<asrwt>0</asrwt>
<pdfrwt beam="1">  1        3 0.15613934E-02 0.90716842E+02</pdfrwt>
<pdfrwt beam="2">  1       -3 0.31187230E-01 0.90716842E+02</pdfrwt>
<totfact> 0.28226728E+04</totfact>
</mgrwt>
</event>
<event>
 5    1  0.7431090E-001  0.9411753E+02  0.7818608E-02  0.1293176E+00
          3   -1    0    0  501    0  0.00000000000E+00  0.00000000000E+00  0.22508858304E+03  0.22508860225E+03  0.93000000000E-01 0. -1.
         -3   -1    0    0    0  501 -0.00000000000E+00 -0.00000000000E+00 -0.98382307801E+01  0.98386703311E+01  0.93000000000E-01 0.  1.
         23    2    1    2    0    0  0.00000000000E+00  0.00000000000E+00  0.21525035226E+03  0.23492727258E+03  0.94117528949E+02 0.  0.
        -11    1    3    3    0    0 -0.35082256947E+02 -0.27996192529E+02  0.72327053800E+02  0.85121996336E+02  0.51100000000E-03 0.  1.
         11    1    3    3    0    0  0.35082256947E+02  0.27996192529E+02  0.14292329846E+03  0.14980527625E+03  0.51100000000E-03 0. -1.
<mgrwt>
<rscale>  0 0.94117529E+02</rscale>
<asrwt>0</asrwt>
<pdfrwt beam="1">  1        3 0.34629047E-01 0.94117529E+02</pdfrwt>
<pdfrwt beam="2">  1       -3 0.15136093E-02 0.94117529E+02</pdfrwt>
<totfact> 0.24587017E+04</totfact>
</mgrwt>
</event>
<event>
 5    1  0.7431090E-001  0.9190241E+02  0.7818608E-02  0.1298309E+00
         -3   -1    0    0    0  501 -0.00000000000E+00  0.00000000000E+00  0.28188377734E+03  0.28188379268E+03  0.93000000000E-01 0.  1.
          3   -1    0    0  501    0  0.00000000000E+00 -0.00000000000E+00 -0.74904186620E+01  0.74909959774E+01  0.93000000000E-01 0. -1.
         23    2    1    2    0    0  0.00000000000E+00  0.00000000000E+00  0.27439335868E+03  0.28937478866E+03  0.91902410331E+02 0.  0.
        -11    1    3    3    0    0  0.44582772363E+02 -0.10207440364E+02  0.15117139347E+03  0.15793861350E+03  0.51100000000E-03 0. -1.
         11    1    3    3    0    0 -0.44582772363E+02  0.10207440364E+02  0.12322196521E+03  0.13143617516E+03  0.51100000000E-03 0.  1.
<mgrwt>
<rscale>  0 0.91902410E+02</rscale>
<asrwt>0</asrwt>
<pdfrwt beam="2">  1        3 0.11524177E-02 0.91902410E+02</pdfrwt>
<pdfrwt beam="1">  1       -3 0.43366780E-01 0.91902410E+02</pdfrwt>
<totfact> 0.23925568E+04</totfact>
</mgrwt>
</event>
<event>
 5    1  0.7431090E-001  0.8619199E+02  0.7818608E-02  0.1312344E+00
         -3   -1    0    0    0  501 -0.00000000000E+00  0.00000000000E+00  0.27941114246E+02  0.27941269018E+02  0.93000000000E-01 0.  1.
          3   -1    0    0  501    0  0.00000000000E+00 -0.00000000000E+00 -0.66470300387E+02  0.66470365446E+02  0.93000000000E-01 0. -1.
         23    2    1    2    0    0  0.00000000000E+00  0.00000000000E+00 -0.38529186141E+02  0.94411634464E+02  0.86191986504E+02 0.  0.
        -11    1    3    3    0    0  0.41313036978E+02  0.80615257639E+01 -0.29393570102E+02  0.51339431099E+02  0.51100000000E-03 0.  1.
         11    1    3    3    0    0 -0.41313036978E+02 -0.80615257639E+01 -0.91356160383E+01  0.43072203364E+02  0.51100000000E-03 0. -1.
<mgrwt>
<rscale>  0 0.86191987E+02</rscale>
<asrwt>0</asrwt>
<pdfrwt beam="2">  1        3 0.10226217E-01 0.86191987E+02</pdfrwt>
<pdfrwt beam="1">  1       -3 0.42986499E-02 0.86191987E+02</pdfrwt>
<totfact> 0.40867295E+04</totfact>
</mgrwt>
</event>
<event>
 5    1  0.7431090E-001  0.9040328E+02  0.7818608E-02  0.1301878E+00
          3   -1    0    0  501    0  0.00000000000E+00  0.00000000000E+00  0.18468139396E+02  0.18468373555E+02  0.93000000000E-01 0. -1.
         -3   -1    0    0    0  501 -0.00000000000E+00 -0.00000000000E+00 -0.11063219601E+03  0.11063223510E+03  0.93000000000E-01 0.  1.
         23    2    1    2    0    0  0.00000000000E+00  0.00000000000E+00 -0.92164056612E+02  0.12910060865E+03  0.90403284361E+02 0.  0.
        -11    1    3    3    0    0  0.33336266219E+02  0.28798987848E+02 -0.60539962535E+02  0.74871726376E+02  0.51100000000E-03 0.  1.
         11    1    3    3    0    0 -0.33336266219E+02 -0.28798987848E+02 -0.31624094077E+02  0.54228882276E+02  0.51100000000E-03 0. -1.
<mgrwt>
<rscale>  0 0.90403284E+02</rscale>
<asrwt>0</asrwt>
<pdfrwt beam="1">  1        3 0.28412733E-02 0.90403284E+02</pdfrwt>
<pdfrwt beam="2">  1       -3 0.17020358E-01 0.90403284E+02</pdfrwt>
<totfact> 0.33398749E+04</totfact>
</mgrwt>
</event>
<event>
 5    1  0.7431090E-001  0.9384063E+02  0.7818608E-02  0.1293809E+00
         -3   -1    0    0    0  501 -0.00000000000E+00  0.00000000000E+00  0.12752994659E+03  0.12752998050E+03  0.93000000000E-01 0.  1.
          3   -1    0    0  501    0  0.00000000000E+00 -0.00000000000E+00 -0.17262574114E+02  0.17262824625E+02  0.93000000000E-01 0. -1.
         23    2    1    2    0    0  0.00000000000E+00  0.00000000000E+00  0.11026737248E+03  0.14479280513E+03  0.93840625440E+02 0.  0.
        -11    1    3    3    0    0 -0.69143411466E-01 -0.33782007017E+02  0.10537578811E+03  0.11065841811E+03  0.51100000000E-03 0.  1.
         11    1    3    3    0    0  0.69143411466E-01  0.33782007017E+02  0.48915843665E+01  0.34134387013E+02  0.51100000000E-03 0. -1.
<mgrwt>
<rscale>  0 0.93840625E+02</rscale>
<asrwt>0</asrwt>
<pdfrwt beam="2">  1        3 0.26558024E-02 0.93840625E+02</pdfrwt>
<pdfrwt beam="1">  1       -3 0.19620014E-01 0.93840625E+02</pdfrwt>
<totfact> 0.29248782E+04</totfact>
</mgrwt>
</event>
<event>
 5    1  0.7431090E-001  0.9106675E+02  0.7818608E-02  0.1300289E+00
         -3   -1    0    0    0  501 -0.00000000000E+00  0.00000000000E+00  0.30050093774E+02  0.30050237684E+02  0.93000000000E-01 0.  1.
          3   -1    0    0  501    0  0.00000000000E+00 -0.00000000000E+00 -0.68994056239E+02  0.68994118918E+02  0.93000000000E-01 0. -1.
         23    2    1    2    0    0  0.00000000000E+00  0.00000000000E+00 -0.38943962464E+02  0.99044356602E+02  0.91066746743E+02 0.  0.
        -11    1    3    3    0    0  0.38789314335E+02  0.21212383658E+02 -0.31321948661E+02  0.54181552167E+02  0.51100000000E-03 0. -1.
         11    1    3    3    0    0 -0.38789314335E+02 -0.21212383658E+02 -0.76220138032E+01  0.44862804435E+02  0.51100000000E-03 0.  1.
<mgrwt>
<rscale>  0 0.91066747E+02</rscale>
<asrwt>0</asrwt>
<pdfrwt beam="2">  1        3 0.10614486E-01 0.91066747E+02</pdfrwt>
<pdfrwt beam="1">  1       -3 0.46231072E-02 0.91066747E+02</pdfrwt>
<totfact> 0.34856644E+04</totfact>
</mgrwt>
</event>
<event>
 5    1  0.7431090E-001  0.9563441E+02  0.7818608E-02  0.1289754E+00
         -3   -1    0    0    0  501 -0.00000000000E+00  0.00000000000E+00  0.82020530492E+02  0.82020583217E+02  0.93000000000E-01 0.  1.
          3   -1    0    0  501    0  0.00000000000E+00 -0.00000000000E+00 -0.27876843357E+02  0.27876998486E+02  0.93000000000E-01 0. -1.
         23    2    1    2    0    0  0.00000000000E+00  0.00000000000E+00  0.54143687135E+02  0.10989758170E+03  0.95634405982E+02 0.  0.
        -11    1    3    3    0    0  0.14178855265E+02  0.42494492558E+02  0.78545807594E+01  0.45480944071E+02  0.51100000000E-03 0. -1.
         11    1    3    3    0    0 -0.14178855265E+02 -0.42494492558E+02  0.46289106375E+02  0.64416637631E+02  0.51100000000E-03 0.  1.
<mgrwt>
<rscale>  0 0.95634406E+02</rscale>
<asrwt>0</asrwt>
<pdfrwt beam="2">  1        3 0.42887611E-02 0.95634406E+02</pdfrwt>
<pdfrwt beam="1">  1       -3 0.12618559E-01 0.95634406E+02</pdfrwt>
<totfact> 0.29805261E+04</totfact>
</mgrwt>
</event>
<event>
 4    1  0.7431090E-001  0.3143195E+02  0.7818608E-02  0.1582779E+00
         -3   -1    0    0    0  501 -0.00000000000E+00  0.00000000000E+00  0.37081087931E+01  0.37092748377E+01  0.93000000000E-01 0. -1.
          3   -1    0    0  501    0  0.00000000000E+00 -0.00000000000E+00 -0.66596920085E+02  0.66596985021E+02  0.93000000000E-01 0.  1.
        -11    1    1    2    0    0 -0.12972501407E+02 -0.64210314283E+01 -0.45137510232E+02  0.47401585075E+02  0.51100000000E-03 0. -1.
         11    1    1    2    0    0  0.12972501407E+02  0.64210314283E+01 -0.17751301060E+02  0.22904674784E+02  0.51100000000E-03 0.  1.
<mgrwt>
<rscale>  0 0.31431952E+02</rscale>
<asrwt>0</asrwt>
<pdfrwt beam="2">  1        3 0.10245774E-01 0.31431952E+02</pdfrwt>
<pdfrwt beam="1">  1       -3 0.57057302E-03 0.31431952E+02</pdfrwt>
<totfact> 0.55407129E+05</totfact>
</mgrwt>
</event>
<event>
 5    1  0.7431090E-001  0.9163800E+02  0.7818608E-02  0.1298933E+00
         -3   -1    0    0    0  501 -0.00000000000E+00  0.00000000000E+00  0.74546106862E+01  0.74551907744E+01  0.93000000000E-01 0.  1.
          3   -1    0    0  501    0  0.00000000000E+00 -0.00000000000E+00 -0.28161021536E+03  0.28161023072E+03  0.93000000000E-01 0. -1.
         23    2    1    2    0    0  0.00000000000E+00  0.00000000000E+00 -0.27415560467E+03  0.28906542149E+03  0.91637996091E+02 0.  0.
        -11    1    3    3    0    0 -0.41037827965E+02  0.70297612538E+01 -0.76741616105E+02  0.87308627924E+02  0.51100000000E-03 0. -1.
         11    1    3    3    0    0  0.41037827965E+02 -0.70297612538E+01 -0.19741398857E+03  0.20175679357E+03  0.51100000000E-03 0.  1.
<mgrwt>
<rscale>  0 0.91637996E+02</rscale>
<asrwt>0</asrwt>
<pdfrwt beam="2">  1        3 0.43324686E-01 0.91637996E+02</pdfrwt>
<pdfrwt beam="1">  1       -3 0.11469092E-02 0.91637996E+02</pdfrwt>
<totfact> 0.24130838E+04</totfact>
</mgrwt>
</event>
<event>
 5    1  0.7431090E-001  0.8270368E+02  0.7818608E-02  0.1321549E+00
          3   -1    0    0  501    0  0.00000000000E+00  0.00000000000E+00  0.29766436557E+02  0.29766581838E+02  0.93000000000E-01 0. -1.
         -3   -1    0    0    0  501 -0.00000000000E+00 -0.00000000000E+00 -0.57446077476E+02  0.57446152755E+02  0.93000000000E-01 0.  1.
         23    2    1    2    0    0  0.00000000000E+00  0.00000000000E+00 -0.27679640919E+02  0.87212734593E+02  0.82703679204E+02 0.  0.
        -11    1    3    3    0    0  0.11794000609E+02 -0.69684700107E+01  0.27304279596E+02  0.30548022999E+02  0.51100000000E-03 0. -1.
         11    1    3    3    0    0 -0.11794000609E+02  0.69684700107E+01 -0.54983920514E+02  0.56664711594E+02  0.51100000000E-03 0.  1.
<mgrwt>
<rscale>  0 0.82703679E+02</rscale>
<asrwt>0</asrwt>
<pdfrwt beam="1">  1        3 0.45794687E-02 0.82703679E+02</pdfrwt>
<pdfrwt beam="2">  1       -3 0.88378751E-02 0.82703679E+02</pdfrwt>
<totfact> 0.46418192E+04</totfact>
</mgrwt>
</event>
<event>
 5    1  0.7431090E-001  0.9013978E+02  0.7818608E-02  0.1302514E+00
          3   -1    0    0  501    0  0.00000000000E+00  0.00000000000E+00  0.71605985834E+02  0.71606046227E+02  0.93000000000E-01 0. -1.
         -3   -1    0    0    0  501 -0.00000000000E+00 -0.00000000000E+00 -0.28367520576E+02  0.28367673022E+02  0.93000000000E-01 0.  1.
         23    2    1    2    0    0  0.00000000000E+00  0.00000000000E+00  0.43238465257E+02  0.99973719249E+02  0.90139778470E+02 0.  0.
        -11    1    3    3    0    0  0.55116605740E+01  0.44668419020E+02  0.24255258018E+02  0.51126936167E+02  0.51100000000E-03 0.  1.
         11    1    3    3    0    0 -0.55116605740E+01 -0.44668419020E+02  0.18983207239E+02  0.48846783081E+02  0.51100000000E-03 0. -1.
<mgrwt>
<rscale>  0 0.90139778E+02</rscale>
<asrwt>0</asrwt>
<pdfrwt beam="1">  1        3 0.11016322E-01 0.90139778E+02</pdfrwt>
<pdfrwt beam="2">  1       -3 0.43642504E-02 0.90139778E+02</pdfrwt>
<totfact> 0.35767423E+04</totfact>
</mgrwt>
</event>
<event>
 5    1  0.7431090E-001  0.9142260E+02  0.7818608E-02  0.1299443E+00
          3   -1    0    0  501    0  0.00000000000E+00  0.00000000000E+00  0.22803577422E+02  0.22803767062E+02  0.93000000000E-01 0. -1.
         -3   -1    0    0    0  501 -0.00000000000E+00 -0.00000000000E+00 -0.91630779255E+02  0.91630826450E+02  0.93000000000E-01 0.  1.
         23    2    1    2    0    0  0.00000000000E+00  0.00000000000E+00 -0.68827201833E+02  0.11443459351E+03  0.91422603770E+02 0.  0.
        -11    1    3    3    0    0 -0.31706432204E+02 -0.20864690491E+02 -0.25283914100E+01  0.38039793845E+02  0.51100000000E-03 0. -1.
         11    1    3    3    0    0  0.31706432204E+02  0.20864690491E+02 -0.66298810423E+02  0.76394799667E+02  0.51100000000E-03 0.  1.
<mgrwt>
<rscale>  0 0.91422604E+02</rscale>
<asrwt>0</asrwt>
<pdfrwt beam="1">  1        3 0.35082609E-02 0.91422604E+02</pdfrwt>
<pdfrwt beam="2">  1       -3 0.14097061E-01 0.91422604E+02</pdfrwt>
<totfact> 0.33387503E+04</totfact>
</mgrwt>
</event>
<event>
 5    1  0.7431090E-001  0.1006281E+03  0.7818608E-02  0.1278981E+00
         -3   -1    0    0    0  501 -0.00000000000E+00  0.00000000000E+00  0.12263308243E+03  0.12263311770E+03  0.93000000000E-01 0.  1.
          3   -1    0    0  501    0  0.00000000000E+00 -0.00000000000E+00 -0.20642772301E+02  0.20642981792E+02  0.93000000000E-01 0. -1.
         23    2    1    2    0    0  0.00000000000E+00  0.00000000000E+00  0.10199031013E+03  0.14327609949E+03  0.10062811398E+03 0.  0.
        -11    1    3    3    0    0  0.68228003938E+01  0.45543660830E+02  0.79850876285E+02  0.92178837543E+02  0.51100000000E-03 0.  1.
         11    1    3    3    0    0 -0.68228003938E+01 -0.45543660830E+02  0.22139433846E+02  0.51097261945E+02  0.51100000000E-03 0. -1.
<mgrwt>
<rscale>  0 0.10062811E+03</rscale>
<asrwt>0</asrwt>
<pdfrwt beam="2">  1        3 0.31758300E-02 0.10062811E+03</pdfrwt>
<pdfrwt beam="1">  1       -3 0.18866646E-01 0.10062811E+03</pdfrwt>
<totfact> 0.24239574E+04</totfact>
</mgrwt>
</event>
<event>
 5    1  0.7431090E-001  0.8932251E+02  0.7818608E-02  0.1304501E+00
         -3   -1    0    0    0  501 -0.00000000000E+00  0.00000000000E+00  0.76909238208E+02  0.76909294437E+02  0.93000000000E-01 0.  1.
          3   -1    0    0  501    0  0.00000000000E+00 -0.00000000000E+00 -0.25934678517E+02  0.25934845262E+02  0.93000000000E-01 0. -1.
         23    2    1    2    0    0  0.00000000000E+00  0.00000000000E+00  0.50974559691E+02  0.10284413970E+03  0.89322513035E+02 0.  0.
        -11    1    3    3    0    0 -0.37938183768E+02  0.15168893010E+02  0.47232457586E+01  0.41130404247E+02  0.51100000000E-03 0. -1.
         11    1    3    3    0    0  0.37938183768E+02 -0.15168893010E+02  0.46251313933E+02  0.61713735453E+02  0.51100000000E-03 0.  1.
<mgrwt>
<rscale>  0 0.89322513E+02</rscale>
<asrwt>0</asrwt>
<pdfrwt beam="2">  1        3 0.39899677E-02 0.89322513E+02</pdfrwt>
<pdfrwt beam="1">  1       -3 0.11832208E-01 0.89322513E+02</pdfrwt>
<totfact> 0.36439098E+04</totfact>
</mgrwt>
</event>
<event>
 5    1  0.7431090E-001  0.9461777E+02  0.7818608E-02  0.1292039E+00
         -3   -1    0    0    0  501 -0.00000000000E+00  0.00000000000E+00  0.24469565975E+03  0.24469567742E+03  0.93000000000E-01 0.  1.
          3   -1    0    0  501    0  0.00000000000E+00 -0.00000000000E+00 -0.91463354289E+01  0.91468082290E+01  0.93000000000E-01 0. -1.
         23    2    1    2    0    0  0.00000000000E+00  0.00000000000E+00  0.23554932432E+03  0.25384248565E+03  0.94617774935E+02 0.  0.
        -11    1    3    3    0    0  0.13293027883E+02 -0.39885030145E+02  0.59574735210E+02  0.72915494207E+02  0.51100000000E-03 0. -1.
         11    1    3    3    0    0 -0.13293027883E+02  0.39885030145E+02  0.17597458911E+03  0.18092699144E+03  0.51100000000E-03 0.  1.
<mgrwt>
<rscale>  0 0.94617775E+02</rscale>
<asrwt>0</asrwt>
<pdfrwt beam="2">  1        3 0.14071664E-02 0.94617775E+02</pdfrwt>
<pdfrwt beam="1">  1       -3 0.37645520E-01 0.94617775E+02</pdfrwt>
<totfact> 0.23462579E+04</totfact>
</mgrwt>
</event>
<event>
 5    1  0.7431090E-001  0.8997870E+02  0.7818608E-02  0.1302903E+00
         -3   -1    0    0    0  501 -0.00000000000E+00  0.00000000000E+00  0.13318550439E+03  0.13318553686E+03  0.93000000000E-01 0.  1.
          3   -1    0    0  501    0  0.00000000000E+00 -0.00000000000E+00 -0.15196986311E+02  0.15197270871E+02  0.93000000000E-01 0. -1.
         23    2    1    2    0    0  0.00000000000E+00  0.00000000000E+00  0.11798851808E+03  0.14838280773E+03  0.89978704324E+02 0.  0.
        -11    1    3    3    0    0  0.94662110268E+01 -0.30380453331E+02  0.11144098216E+03  0.11589509740E+03  0.51100000000E-03 0.  1.
         11    1    3    3    0    0 -0.94662110268E+01  0.30380453331E+02  0.65475359179E+01  0.32487710333E+02  0.51100000000E-03 0. -1.
<mgrwt>
<rscale>  0 0.89978704E+02</rscale>
<asrwt>0</asrwt>
<pdfrwt beam="2">  1        3 0.23380223E-02 0.89978704E+02</pdfrwt>
<pdfrwt beam="1">  1       -3 0.20490102E-01 0.89978704E+02</pdfrwt>
<totfact> 0.32550612E+04</totfact>
</mgrwt>
</event>
<event>
 5    1  0.7431090E-001  0.9138828E+02  0.7818608E-02  0.1299524E+00
         -3   -1    0    0    0  501 -0.00000000000E+00  0.00000000000E+00  0.44450636560E+02  0.44450733848E+02  0.93000000000E-01 0.  1.
          3   -1    0    0  501    0  0.00000000000E+00 -0.00000000000E+00 -0.46972237856E+02  0.46972329921E+02  0.93000000000E-01 0. -1.
         23    2    1    2    0    0  0.00000000000E+00  0.00000000000E+00 -0.25216012957E+01  0.91423063768E+02  0.91388282158E+02 0.  0.
        -11    1    3    3    0    0 -0.29803437932E+02 -0.14973820688E+01 -0.35878413630E+02  0.46666343659E+02  0.51100000000E-03 0. -1.
         11    1    3    3    0    0  0.29803437932E+02  0.14973820688E+01  0.33356812334E+02  0.44756720110E+02  0.51100000000E-03 0.  1.
<mgrwt>
<rscale>  0 0.91388282E+02</rscale>
<asrwt>0</asrwt>
<pdfrwt beam="2">  1        3 0.72265127E-02 0.91388282E+02</pdfrwt>
<pdfrwt beam="1">  1       -3 0.68385740E-02 0.91388282E+02</pdfrwt>
<totfact> 0.35096963E+04</totfact>
</mgrwt>
</event>
<event>
 5    1  0.7431090E-001  0.9675850E+02  0.7818608E-02  0.1287264E+00
          3   -1    0    0  501    0  0.00000000000E+00  0.00000000000E+00  0.27925376600E+02  0.27925531459E+02  0.93000000000E-01 0. -1.
         -3   -1    0    0    0  501 -0.00000000000E+00 -0.00000000000E+00 -0.83814100045E+02  0.83814151642E+02  0.93000000000E-01 0.  1.
         23    2    1    2    0    0  0.00000000000E+00  0.00000000000E+00 -0.55888723445E+02  0.11173968310E+03  0.96758500253E+02 0.  0.
        -11    1    3    3    0    0  0.28754707599E+02 -0.22828531050E+02  0.84387942218E+01  0.37672115512E+02  0.51100000000E-03 0. -1.
         11    1    3    3    0    0 -0.28754707599E+02  0.22828531050E+02 -0.64327517667E+02  0.74067567588E+02  0.51100000000E-03 0.  1.
<mgrwt>
<rscale>  0 0.96758500E+02</rscale>
<asrwt>0</asrwt>
<pdfrwt beam="1">  1        3 0.42962277E-02 0.96758500E+02</pdfrwt>
<pdfrwt beam="2">  1       -3 0.12894493E-01 0.96758500E+02</pdfrwt>
<totfact> 0.28756373E+04</totfact>
</mgrwt>
</event>
<event>
 5    1  0.7431090E-001  0.9079034E+02  0.7818608E-02  0.1300949E+00
         -3   -1    0    0    0  501 -0.00000000000E+00  0.00000000000E+00  0.15532717497E+03  0.15532720281E+03  0.93000000000E-01 0.  1.
          3   -1    0    0  501    0  0.00000000000E+00 -0.00000000000E+00 -0.13266780931E+02  0.13267106891E+02  0.93000000000E-01 0. -1.
         23    2    1    2    0    0  0.00000000000E+00  0.00000000000E+00  0.14206039404E+03  0.16859430970E+03  0.90790339295E+02 0.  0.
        -11    1    3    3    0    0  0.92721674272E+01  0.32286794992E+02  0.14330109945E+02  0.36520710165E+02  0.51100000000E-03 0. -1.
         11    1    3    3    0    0 -0.92721674272E+01 -0.32286794992E+02  0.12773028409E+03  0.13207359954E+03  0.51100000000E-03 0.  1.
<mgrwt>
<rscale>  0 0.90790339E+02</rscale>
<asrwt>0</asrwt>
<pdfrwt beam="2">  1        3 0.20410704E-02 0.90790339E+02</pdfrwt>
<pdfrwt beam="1">  1       -3 0.23896516E-01 0.90790339E+02</pdfrwt>
<totfact> 0.30555932E+04</totfact>
</mgrwt>
</event>
<event>
 5    1  0.7431090E-001  0.9000134E+02  0.7818608E-02  0.1302848E+00
         -3   -1    0    0    0  501 -0.00000000000E+00  0.00000000000E+00  0.76739131826E+02  0.76739188179E+02  0.93000000000E-01 0.  1.
          3   -1    0    0  501    0  0.00000000000E+00 -0.00000000000E+00 -0.26388738277E+02  0.26388902153E+02  0.93000000000E-01 0. -1.
         23    2    1    2    0    0  0.00000000000E+00  0.00000000000E+00  0.50350393549E+02  0.10312809033E+03  0.90001338240E+02 0.  0.
        -11    1    3    3    0    0  0.18081384052E+02 -0.55411747844E+01  0.71964911974E+02  0.74408263136E+02  0.51100000000E-03 0.  1.
         11    1    3    3    0    0 -0.18081384052E+02  0.55411747844E+01 -0.21614518425E+02  0.28719827197E+02  0.51100000000E-03 0. -1.
<mgrwt>
<rscale>  0 0.90001338E+02</rscale>
<asrwt>0</asrwt>
<pdfrwt beam="2">  1        3 0.40598229E-02 0.90001338E+02</pdfrwt>
<pdfrwt beam="1">  1       -3 0.11806037E-01 0.90001338E+02</pdfrwt>
<totfact> 0.35677316E+04</totfact>
</mgrwt>
</event>
<event>
 5    1  0.7431090E-001  0.9024767E+02  0.7818608E-02  0.1302253E+00
         -3   -1    0    0    0  501 -0.00000000000E+00  0.00000000000E+00  0.64279920643E+02  0.64279987919E+02  0.93000000000E-01 0.  1.
          3   -1    0    0  501    0  0.00000000000E+00 -0.00000000000E+00 -0.31676311648E+02  0.31676448170E+02  0.93000000000E-01 0. -1.
         23    2    1    2    0    0  0.00000000000E+00  0.00000000000E+00  0.32603608995E+02  0.95956436089E+02  0.90247672033E+02 0.  0.
        -11    1    3    3    0    0 -0.35270497965E+02  0.18792937853E+02  0.38578947744E+02  0.55547436927E+02  0.51100000000E-03 0.  1.
         11    1    3    3    0    0  0.35270497965E+02 -0.18792937853E+02 -0.59753387492E+01  0.40408999162E+02  0.51100000000E-03 0. -1.
<mgrwt>
<rscale>  0 0.90247672E+02</rscale>
<asrwt>0</asrwt>
<pdfrwt beam="2">  1        3 0.48732945E-02 0.90247672E+02</pdfrwt>
<pdfrwt beam="1">  1       -3 0.98892340E-02 0.90247672E+02</pdfrwt>
<totfact> 0.35962185E+04</totfact>
</mgrwt>
</event>
<event>
 5    1  0.7431090E-001  0.9152969E+02  0.7818608E-02  0.1299189E+00
         -3   -1    0    0    0  501 -0.00000000000E+00  0.00000000000E+00  0.22384748595E+02  0.22384941784E+02  0.93000000000E-01 0.  1.
          3   -1    0    0  501    0  0.00000000000E+00 -0.00000000000E+00 -0.93564022662E+02  0.93564068881E+02  0.93000000000E-01 0. -1.
         23    2    1    2    0    0  0.00000000000E+00  0.00000000000E+00 -0.71179274067E+02  0.11594901067E+03  0.91529689268E+02 0.  0.
        -11    1    3    3    0    0 -0.23531924469E+02 -0.29876499668E+02 -0.33407961639E+01  0.38177449114E+02  0.51100000000E-03 0.  1.
         11    1    3    3    0    0  0.23531924469E+02  0.29876499668E+02 -0.67838477903E+02  0.77771561551E+02  0.51100000000E-03 0. -1.
<mgrwt>
<rscale>  0 0.91529689E+02</rscale>
<asrwt>0</asrwt>
<pdfrwt beam="2">  1        3 0.14394483E-01 0.91529689E+02</pdfrwt>
<pdfrwt beam="1">  1       -3 0.34438259E-02 0.91529689E+02</pdfrwt>
<totfact> 0.33175041E+04</totfact>
</mgrwt>
</event>
<event>
 5    1  0.7431090E-001  0.9029330E+02  0.7818608E-02  0.1302143E+00
         -3   -1    0    0    0  501 -0.00000000000E+00  0.00000000000E+00  0.49146061644E+02  0.49146149637E+02  0.93000000000E-01 0.  1.
          3   -1    0    0  501    0  0.00000000000E+00 -0.00000000000E+00 -0.41472521832E+02  0.41472626106E+02  0.93000000000E-01 0. -1.
         23    2    1    2    0    0  0.00000000000E+00  0.00000000000E+00  0.76735398119E+01  0.90618775742E+02  0.90293296007E+02 0.  0.
        -11    1    3    3    0    0  0.56813737327E+01  0.40071350099E+02  0.23914601571E+02  0.47009565780E+02  0.51100000000E-03 0.  1.
         11    1    3    3    0    0 -0.56813737327E+01 -0.40071350099E+02 -0.16241061759E+02  0.43609209963E+02  0.51100000000E-03 0. -1.
<mgrwt>
<rscale>  0 0.90293296E+02</rscale>
<asrwt>0</asrwt>
<pdfrwt beam="2">  1        3 0.63804028E-02 0.90293296E+02</pdfrwt>
<pdfrwt beam="1">  1       -3 0.75609473E-02 0.90293296E+02</pdfrwt>
<totfact> 0.36331719E+04</totfact>
</mgrwt>
</event>
<event>
 5    1  0.7431090E-001  0.8465573E+02  0.7818608E-02  0.1316335E+00
          3   -1    0    0  501    0  0.00000000000E+00  0.00000000000E+00  0.11407537040E+03  0.11407540831E+03  0.93000000000E-01 0. -1.
         -3   -1    0    0    0  501 -0.00000000000E+00 -0.00000000000E+00 -0.15705650506E+02  0.15705925850E+02  0.93000000000E-01 0.  1.
         23    2    1    2    0    0  0.00000000000E+00  0.00000000000E+00  0.98369719890E+02  0.12978133416E+03  0.84655731666E+02 0.  0.
        -11    1    3    3    0    0 -0.31142400110E+02  0.98420530454E+01  0.79081720468E+01  0.33604378853E+02  0.51100000000E-03 0.  1.
         11    1    3    3    0    0  0.31142400110E+02 -0.98420530454E+01  0.90461547843E+02  0.96176955302E+02  0.51100000000E-03 0. -1.
<mgrwt>
<rscale>  0 0.84655732E+02</rscale>
<asrwt>0</asrwt>
<pdfrwt beam="1">  1        3 0.17550081E-01 0.84655732E+02</pdfrwt>
<pdfrwt beam="2">  1       -3 0.24162781E-02 0.84655732E+02</pdfrwt>
<totfact> 0.39812442E+04</totfact>
</mgrwt>
</event>
<event>
 5    1  0.7431090E-001  0.9248070E+02  0.7818608E-02  0.1296953E+00
          3   -1    0    0  501    0  0.00000000000E+00  0.00000000000E+00  0.98007535757E+01  0.98011948074E+01  0.93000000000E-01 0. -1.
         -3   -1    0    0    0  501 -0.00000000000E+00 -0.00000000000E+00 -0.21815846997E+03  0.21815848979E+03  0.93000000000E-01 0.  1.
         23    2    1    2    0    0  0.00000000000E+00  0.00000000000E+00 -0.20835771639E+03  0.22795968460E+03  0.92480699726E+02 0.  0.
        -11    1    3    3    0    0  0.39126236081E+02  0.19552539760E+02 -0.67204232057E+02  0.80184618023E+02  0.51100000000E-03 0.  1.
         11    1    3    3    0    0 -0.39126236081E+02 -0.19552539760E+02 -0.14115348433E+03  0.14777506657E+03  0.51100000000E-03 0. -1.
<mgrwt>
<rscale>  0 0.92480700E+02</rscale>
<asrwt>0</asrwt>
<pdfrwt beam="1">  1        3 0.15078439E-02 0.92480700E+02</pdfrwt>
<pdfrwt beam="2">  1       -3 0.33562873E-01 0.92480700E+02</pdfrwt>
<totfact> 0.26092329E+04</totfact>
</mgrwt>
</event>
<event>
 5    1  0.7431090E-001  0.9174428E+02  0.7818608E-02  0.1298682E+00
         -3   -1    0    0    0  501 -0.00000000000E+00  0.00000000000E+00  0.13165407748E+02  0.13165736218E+02  0.93000000000E-01 0.  1.
          3   -1    0    0  501    0  0.00000000000E+00 -0.00000000000E+00 -0.15982964314E+03  0.15982967020E+03  0.93000000000E-01 0. -1.
         23    2    1    2    0    0  0.00000000000E+00  0.00000000000E+00 -0.14666423539E+03  0.17299540642E+03  0.91744278827E+02 0.  0.
        -11    1    3    3    0    0  0.24475139795E+02  0.34385281065E+02 -0.39449921958E+02  0.57772626430E+02  0.51100000000E-03 0.  1.
         11    1    3    3    0    0 -0.24475139795E+02 -0.34385281065E+02 -0.10721431343E+03  0.11522277998E+03  0.51100000000E-03 0. -1.
<mgrwt>
<rscale>  0 0.91744279E+02</rscale>
<asrwt>0</asrwt>
<pdfrwt beam="2">  1        3 0.24589202E-01 0.91744279E+02</pdfrwt>
<pdfrwt beam="1">  1       -3 0.20254748E-02 0.91744279E+02</pdfrwt>
<totfact> 0.29457577E+04</totfact>
</mgrwt>
</event>
<event>
 5    1  0.7431090E-001  0.9101116E+02  0.7818608E-02  0.1300421E+00
         -3   -1    0    0    0  501 -0.00000000000E+00  0.00000000000E+00  0.10958435733E+03  0.10958439679E+03  0.93000000000E-01 0.  1.
          3   -1    0    0  501    0  0.00000000000E+00 -0.00000000000E+00 -0.18896314543E+02  0.18896543396E+02  0.93000000000E-01 0. -1.
         23    2    1    2    0    0  0.00000000000E+00  0.00000000000E+00  0.90688042783E+02  0.12848094018E+03  0.91011158035E+02 0.  0.
        -11    1    3    3    0    0 -0.43346965382E+02  0.13845646430E+02  0.44905736125E+02  0.63931107218E+02  0.51100000000E-03 0. -1.
         11    1    3    3    0    0  0.43346965382E+02 -0.13845646430E+02  0.45782306658E+02  0.64549832967E+02  0.51100000000E-03 0.  1.
<mgrwt>
<rscale>  0 0.91011158E+02</rscale>
<asrwt>0</asrwt>
<pdfrwt beam="2">  1        3 0.29071460E-02 0.91011158E+02</pdfrwt>
<pdfrwt beam="1">  1       -3 0.16859152E-01 0.91011158E+02</pdfrwt>
<totfact> 0.32839603E+04</totfact>
</mgrwt>
</event>
<event>
 5    1  0.7431090E-001  0.8964315E+02  0.7818608E-02  0.1303718E+00
         -3   -1    0    0    0  501 -0.00000000000E+00  0.00000000000E+00  0.11163431094E+02  0.11163818469E+02  0.93000000000E-01 0.  1.
          3   -1    0    0  501    0  0.00000000000E+00 -0.00000000000E+00 -0.17995668791E+03  0.17995671195E+03  0.93000000000E-01 0. -1.
         23    2    1    2    0    0  0.00000000000E+00  0.00000000000E+00 -0.16879325682E+03  0.19112053041E+03  0.89643145849E+02 0.  0.
        -11    1    3    3    0    0  0.42662333943E+02 -0.91614684977E+01 -0.10623975995E+03  0.11485161661E+03  0.51100000000E-03 0. -1.
         11    1    3    3    0    0 -0.42662333943E+02  0.91614684977E+01 -0.62553496869E+02  0.76268913807E+02  0.51100000000E-03 0.  1.
<mgrwt>
<rscale>  0 0.89643146E+02</rscale>
<asrwt>0</asrwt>
<pdfrwt beam="2">  1        3 0.27685674E-01 0.89643146E+02</pdfrwt>
<pdfrwt beam="1">  1       -3 0.17174827E-02 0.89643146E+02</pdfrwt>
<totfact> 0.30318245E+04</totfact>
</mgrwt>
</event>
<event>
 5    1  0.7431090E-001  0.9109541E+02  0.7818608E-02  0.1300220E+00
          3   -1    0    0  501    0  0.00000000000E+00  0.00000000000E+00  0.20269009340E+02  0.20269222694E+02  0.93000000000E-01 0. -1.
         -3   -1    0    0    0  501 -0.00000000000E+00 -0.00000000000E+00 -0.10235219197E+03  0.10235223423E+03  0.93000000000E-01 0.  1.
         23    2    1    2    0    0  0.00000000000E+00  0.00000000000E+00 -0.82083182635E+02  0.12262145692E+03  0.91095405075E+02 0.  0.
        -11    1    3    3    0    0  0.24777173465E+02 -0.29957859234E+02 -0.72986803513E+02  0.82694952337E+02  0.51100000000E-03 0.  1.
         11    1    3    3    0    0 -0.24777173465E+02  0.29957859234E+02 -0.90963791220E+01  0.39926504583E+02  0.51100000000E-03 0. -1.
<mgrwt>
<rscale>  0 0.91095405E+02</rscale>
<asrwt>0</asrwt>
<pdfrwt beam="1">  1        3 0.31183289E-02 0.91095405E+02</pdfrwt>
<pdfrwt beam="2">  1       -3 0.15746510E-01 0.91095405E+02</pdfrwt>
<totfact> 0.33150124E+04</totfact>
</mgrwt>
</event>
<event>
 5    1  0.7431090E-001  0.8980483E+02  0.7818608E-02  0.1303325E+00
          3   -1    0    0  501    0  0.00000000000E+00  0.00000000000E+00  0.97774684476E+01  0.97779107300E+01  0.93000000000E-01 0. -1.
         -3   -1    0    0    0  501 -0.00000000000E+00 -0.00000000000E+00 -0.20620644084E+03  0.20620646181E+03  0.93000000000E-01 0.  1.
         23    2    1    2    0    0  0.00000000000E+00  0.00000000000E+00 -0.19642897239E+03  0.21598437254E+03  0.89804832760E+02 0.  0.
        -11    1    3    3    0    0  0.53609888720E+00  0.37069369570E+02 -0.37285638839E+02  0.52579886137E+02  0.51100000000E-03 0. -1.
         11    1    3    3    0    0 -0.53609888720E+00 -0.37069369570E+02 -0.15914333355E+03  0.16340448640E+03  0.51100000000E-03 0.  1.
<mgrwt>
<rscale>  0 0.89804833E+02</rscale>
<asrwt>0</asrwt>
<pdfrwt beam="1">  1        3 0.15042617E-02 0.89804833E+02</pdfrwt>
<pdfrwt beam="2">  1       -3 0.31724100E-01 0.89804833E+02</pdfrwt>
<totfact> 0.28843168E+04</totfact>
</mgrwt>
</event>
<event>
 5    1  0.7431090E-001  0.8786238E+02  0.7818608E-02  0.1308112E+00
          3   -1    0    0  501    0  0.00000000000E+00  0.00000000000E+00  0.64557476007E+02  0.64557542993E+02  0.93000000000E-01 0. -1.
         -3   -1    0    0    0  501 -0.00000000000E+00 -0.00000000000E+00 -0.29894902085E+02  0.29895046741E+02  0.93000000000E-01 0.  1.
         23    2    1    2    0    0  0.00000000000E+00  0.00000000000E+00  0.34662573922E+02  0.94452589734E+02  0.87862379188E+02 0.  0.
        -11    1    3    3    0    0 -0.55645431954E+01 -0.12363695209E+02 -0.27589617434E+02  0.30741048951E+02  0.51100000000E-03 0.  1.
         11    1    3    3    0    0  0.55645431954E+01  0.12363695209E+02  0.62252191356E+02  0.63711540784E+02  0.51100000000E-03 0. -1.
<mgrwt>
<rscale>  0 0.87862379E+02</rscale>
<asrwt>0</asrwt>
<pdfrwt beam="1">  1        3 0.99319357E-02 0.87862379E+02</pdfrwt>
<pdfrwt beam="2">  1       -3 0.45992320E-02 0.87862379E+02</pdfrwt>
<totfact> 0.38796184E+04</totfact>
</mgrwt>
</event>
<event>
 5    1  0.7431090E-001  0.8743548E+02  0.7818608E-02  0.1309184E+00
         -3   -1    0    0    0  501 -0.00000000000E+00  0.00000000000E+00  0.61434834284E+02  0.61434904676E+02  0.93000000000E-01 0.  1.
          3   -1    0    0  501    0  0.00000000000E+00 -0.00000000000E+00 -0.31109890981E+02  0.31110029988E+02  0.93000000000E-01 0. -1.
         23    2    1    2    0    0  0.00000000000E+00  0.00000000000E+00  0.30324943303E+02  0.92544934664E+02  0.87435477614E+02 0.  0.
        -11    1    3    3    0    0  0.82572125561E+01 -0.23947975136E+02  0.52875420276E+02  0.58630172624E+02  0.51100000000E-03 0.  1.
         11    1    3    3    0    0 -0.82572125561E+01  0.23947975136E+02 -0.22550476973E+02  0.33914762040E+02  0.51100000000E-03 0. -1.
<mgrwt>
<rscale>  0 0.87435478E+02</rscale>
<asrwt>0</asrwt>
<pdfrwt beam="2">  1        3 0.47861532E-02 0.87435478E+02</pdfrwt>
<pdfrwt beam="1">  1       -3 0.94515291E-02 0.87435478E+02</pdfrwt>
<totfact> 0.39476601E+04</totfact>
</mgrwt>
</event>
<event>
 5    1  0.7431090E-001  0.9260219E+02  0.7818608E-02  0.1296670E+00
          3   -1    0    0  501    0  0.00000000000E+00  0.00000000000E+00  0.73011559783E+02  0.73011619013E+02  0.93000000000E-01 0. -1.
         -3   -1    0    0    0  501 -0.00000000000E+00 -0.00000000000E+00 -0.29362211111E+02  0.29362358392E+02  0.93000000000E-01 0.  1.
         23    2    1    2    0    0  0.00000000000E+00  0.00000000000E+00  0.43649348672E+02  0.10237397740E+03  0.92602190094E+02 0.  0.
        -11    1    3    3    0    0  0.25644802026E+02 -0.37247033289E+01 -0.20594370699E+02  0.33100715862E+02  0.51100000000E-03 0.  1.
         11    1    3    3    0    0 -0.25644802026E+02  0.37247033289E+01  0.64243719371E+02  0.69273261542E+02  0.51100000000E-03 0. -1.
<mgrwt>
<rscale>  0 0.92602190E+02</rscale>
<asrwt>0</asrwt>
<pdfrwt beam="1">  1        3 0.11232563E-01 0.92602190E+02</pdfrwt>
<pdfrwt beam="2">  1       -3 0.45172792E-02 0.92602190E+02</pdfrwt>
<totfact> 0.33066611E+04</totfact>
</mgrwt>
</event>
<event>
 5    1  0.7431090E-001  0.8984782E+02  0.7818608E-02  0.1303221E+00
         -3   -1    0    0    0  501 -0.00000000000E+00  0.00000000000E+00  0.10689199372E+03  0.10689203418E+03  0.93000000000E-01 0.  1.
          3   -1    0    0  501    0  0.00000000000E+00 -0.00000000000E+00 -0.18880184520E+02  0.18880413568E+02  0.93000000000E-01 0. -1.
         23    2    1    2    0    0  0.00000000000E+00  0.00000000000E+00  0.88011809204E+02  0.12577244775E+03  0.89847816074E+02 0.  0.
        -11    1    3    3    0    0  0.32027826460E+02  0.50743001861E+01  0.87527771992E+02  0.93341529130E+02  0.51100000000E-03 0.  1.
         11    1    3    3    0    0 -0.32027826460E+02 -0.50743001861E+01  0.48403721188E+00  0.32430918618E+02  0.51100000000E-03 0. -1.
<mgrwt>
<rscale>  0 0.89847816E+02</rscale>
<asrwt>0</asrwt>
<pdfrwt beam="2">  1        3 0.29046645E-02 0.89847816E+02</pdfrwt>
<pdfrwt beam="1">  1       -3 0.16444943E-01 0.89847816E+02</pdfrwt>
<totfact> 0.34190849E+04</totfact>
</mgrwt>
</event>
<event>
 5    1  0.7431090E-001  0.8923566E+02  0.7818608E-02  0.1304713E+00
          3   -1    0    0  501    0  0.00000000000E+00  0.00000000000E+00  0.23770146199E+03  0.23770148018E+03  0.93000000000E-01 0. -1.
         -3   -1    0    0    0  501 -0.00000000000E+00 -0.00000000000E+00 -0.83747266591E+01  0.83752430182E+01  0.93000000000E-01 0.  1.
         23    2    1    2    0    0  0.00000000000E+00  0.00000000000E+00  0.22932673533E+03  0.24607672320E+03  0.89235655227E+02 0.  0.
        -11    1    3    3    0    0  0.24359165882E+02 -0.27546450232E+02  0.44978583727E+02  0.58096892147E+02  0.51100000000E-03 0.  1.
         11    1    3    3    0    0 -0.24359165882E+02  0.27546450232E+02  0.18434815160E+03  0.18797983105E+03  0.51100000000E-03 0. -1.
<mgrwt>
<rscale>  0 0.89235655E+02</rscale>
<asrwt>0</asrwt>
<pdfrwt beam="1">  1        3 0.36569490E-01 0.89235655E+02</pdfrwt>
<pdfrwt beam="2">  1       -3 0.12884609E-02 0.89235655E+02</pdfrwt>
<totfact> 0.27841428E+04</totfact>
</mgrwt>
</event>
<event>
 5    1  0.7431090E-001  0.7132801E+02  0.7818608E-02  0.1355634E+00
          3   -1    0    0  501    0  0.00000000000E+00  0.00000000000E+00  0.14859046430E+02  0.14859337462E+02  0.93000000000E-01 0. -1.
         -3   -1    0    0    0  501 -0.00000000000E+00 -0.00000000000E+00 -0.85597957062E+02  0.85598007583E+02  0.93000000000E-01 0.  1.
         23    2    1    2    0    0  0.00000000000E+00  0.00000000000E+00 -0.70738910632E+02  0.10045734504E+03  0.71328007795E+02 0.  0.
        -11    1    3    3    0    0  0.10658448340E+01  0.20062924714E+02 -0.76869403011E+02  0.79451633670E+02  0.51100000000E-03 0.  1.
         11    1    3    3    0    0 -0.10658448340E+01 -0.20062924714E+02  0.61304923794E+01  0.21005711375E+02  0.51100000000E-03 0. -1.
<mgrwt>
<rscale>  0 0.71328008E+02</rscale>
<asrwt>0</asrwt>
<pdfrwt beam="1">  1        3 0.22860335E-02 0.71328008E+02</pdfrwt>
<pdfrwt beam="2">  1       -3 0.13168942E-01 0.71328008E+02</pdfrwt>
<totfact> 0.66854454E+04</totfact>
</mgrwt>
</event>
<event>
 5    1  0.7431090E-001  0.9177540E+02  0.7818608E-02  0.1298608E+00
          3   -1    0    0  501    0  0.00000000000E+00  0.00000000000E+00  0.47687976782E+02  0.47688067465E+02  0.93000000000E-01 0. -1.
         -3   -1    0    0    0  501 -0.00000000000E+00 -0.00000000000E+00 -0.44155202535E+02  0.44155300473E+02  0.93000000000E-01 0.  1.
         23    2    1    2    0    0  0.00000000000E+00  0.00000000000E+00  0.35327742470E+01  0.91843367938E+02  0.91775398339E+02 0.  0.
        -11    1    3    3    0    0 -0.23067010302E+02  0.22798675831E+02 -0.30720161719E+02  0.44672082112E+02  0.51100000000E-03 0. -1.
         11    1    3    3    0    0  0.23067010302E+02 -0.22798675831E+02  0.34252935966E+02  0.47171285826E+02  0.51100000000E-03 0.  1.
<mgrwt>
<rscale>  0 0.91775398E+02</rscale>
<asrwt>0</asrwt>
<pdfrwt beam="1">  1        3 0.73366263E-02 0.91775398E+02</pdfrwt>
<pdfrwt beam="2">  1       -3 0.67931226E-02 0.91775398E+02</pdfrwt>
<totfact> 0.34662492E+04</totfact>
</mgrwt>
</event>
<event>
 5    1  0.7431090E-001  0.9209514E+02  0.7818608E-02  0.1297856E+00
          3   -1    0    0  501    0  0.00000000000E+00  0.00000000000E+00  0.41610047896E+02  0.41610151825E+02  0.93000000000E-01 0. -1.
         -3   -1    0    0    0  501 -0.00000000000E+00 -0.00000000000E+00 -0.50958120540E+02  0.50958205404E+02  0.93000000000E-01 0.  1.
         23    2    1    2    0    0  0.00000000000E+00  0.00000000000E+00 -0.93480726442E+01  0.92568357229E+02  0.92095137211E+02 0.  0.
        -11    1    3    3    0    0  0.59997593908E+00  0.36161042481E+02  0.23975010405E+02  0.43391036962E+02  0.51100000000E-03 0. -1.
         11    1    3    3    0    0 -0.59997593908E+00 -0.36161042481E+02 -0.33323083050E+02  0.49177320267E+02  0.51100000000E-03 0.  1.
<mgrwt>
<rscale>  0 0.92095137E+02</rscale>
<asrwt>0</asrwt>
<pdfrwt beam="1">  1        3 0.64015603E-02 0.92095137E+02</pdfrwt>
<pdfrwt beam="2">  1       -3 0.78397254E-02 0.92095137E+02</pdfrwt>
<totfact> 0.34281346E+04</totfact>
</mgrwt>
</event>
<event>
 5    1  0.7431090E-001  0.9783626E+02  0.7818608E-02  0.1284913E+00
         -3   -1    0    0    0  501 -0.00000000000E+00  0.00000000000E+00  0.38946950695E+02  0.38947061731E+02  0.93000000000E-01 0.  1.
          3   -1    0    0  501    0  0.00000000000E+00 -0.00000000000E+00 -0.61441895730E+02  0.61441966114E+02  0.93000000000E-01 0. -1.
         23    2    1    2    0    0  0.00000000000E+00  0.00000000000E+00 -0.22494945035E+02  0.10038902784E+03  0.97836263008E+02 0.  0.
        -11    1    3    3    0    0  0.44152570815E+01 -0.48707796438E+02 -0.12293714629E+02  0.50428953475E+02  0.51100000000E-03 0. -1.
         11    1    3    3    0    0 -0.44152570815E+01  0.48707796438E+02 -0.10201230406E+02  0.49960074370E+02  0.51100000000E-03 0.  1.
<mgrwt>
<rscale>  0 0.97836263E+02</rscale>
<asrwt>0</asrwt>
<pdfrwt beam="2">  1        3 0.94526133E-02 0.97836263E+02</pdfrwt>
<pdfrwt beam="1">  1       -3 0.59918525E-02 0.97836263E+02</pdfrwt>
<totfact> 0.28565152E+04</totfact>
</mgrwt>
</event>
<event>
 5    1  0.7431090E-001  0.9170762E+02  0.7818608E-02  0.1298768E+00
         -3   -1    0    0    0  501 -0.00000000000E+00  0.00000000000E+00  0.14617872954E+03  0.14617875913E+03  0.93000000000E-01 0.  1.
          3   -1    0    0  501    0  0.00000000000E+00 -0.00000000000E+00 -0.14383387513E+02  0.14383688170E+02  0.93000000000E-01 0. -1.
         23    2    1    2    0    0  0.00000000000E+00  0.00000000000E+00  0.13179534203E+03  0.16056244730E+03  0.91707618556E+02 0.  0.
        -11    1    3    3    0    0 -0.37107255704E+02 -0.61425255468E+01  0.11181736006E+03  0.11797373036E+03  0.51100000000E-03 0.  1.
         11    1    3    3    0    0  0.37107255704E+02  0.61425255468E+01  0.19977981975E+02  0.42588716934E+02  0.51100000000E-03 0. -1.
<mgrwt>
<rscale>  0 0.91707619E+02</rscale>
<asrwt>0</asrwt>
<pdfrwt beam="2">  1        3 0.22128541E-02 0.91707619E+02</pdfrwt>
<pdfrwt beam="1">  1       -3 0.22489062E-01 0.91707619E+02</pdfrwt>
<totfact> 0.30194887E+04</totfact>
</mgrwt>
</event>
<event>
 5    1  0.7431090E-001  0.8996758E+02  0.7818608E-02  0.1302930E+00
         -3   -1    0    0    0  501 -0.00000000000E+00  0.00000000000E+00  0.56513734199E+02  0.56513810720E+02  0.93000000000E-01 0.  1.
          3   -1    0    0  501    0  0.00000000000E+00 -0.00000000000E+00 -0.35806022931E+02  0.35806143706E+02  0.93000000000E-01 0. -1.
         23    2    1    2    0    0  0.00000000000E+00  0.00000000000E+00  0.20707711268E+02  0.92319954426E+02  0.89967575711E+02 0.  0.
        -11    1    3    3    0    0 -0.39628384540E+02  0.14916521618E+02  0.25937433384E+02  0.49655432021E+02  0.51100000000E-03 0.  1.
         11    1    3    3    0    0  0.39628384540E+02 -0.14916521618E+02 -0.52297221156E+01  0.42664522405E+02  0.51100000000E-03 0. -1.
<mgrwt>
<rscale>  0 0.89967576E+02</rscale>
<asrwt>0</asrwt>
<pdfrwt beam="2">  1        3 0.55086341E-02 0.89967576E+02</pdfrwt>
<pdfrwt beam="1">  1       -3 0.86944358E-02 0.89967576E+02</pdfrwt>
<totfact> 0.36554675E+04</totfact>
</mgrwt>
</event>
<event>
 5    1  0.7431090E-001  0.9331839E+02  0.7818608E-02  0.1295009E+00
          3   -1    0    0  501    0  0.00000000000E+00  0.00000000000E+00  0.76714939470E+01  0.76720576365E+01  0.93000000000E-01 0. -1.
         -3   -1    0    0    0  501 -0.00000000000E+00 -0.00000000000E+00 -0.28377734025E+03  0.28377735549E+03  0.93000000000E-01 0.  1.
         23    2    1    2    0    0  0.00000000000E+00  0.00000000000E+00 -0.27610584630E+03  0.29144941312E+03  0.93318390730E+02 0.  0.
        -11    1    3    3    0    0 -0.42268048484E+02 -0.11573615489E+02 -0.88029099240E+02  0.98334423329E+02  0.51100000000E-03 0. -1.
         11    1    3    3    0    0  0.42268048484E+02  0.11573615489E+02 -0.18807674706E+03  0.19311498979E+03  0.51100000000E-03 0.  1.
<mgrwt>
<rscale>  0 0.93318391E+02</rscale>
<asrwt>0</asrwt>
<pdfrwt beam="1">  1        3 0.11802746E-02 0.93318391E+02</pdfrwt>
<pdfrwt beam="2">  1       -3 0.43658089E-01 0.93318391E+02</pdfrwt>
<totfact> 0.22882907E+04</totfact>
</mgrwt>
</event>
<event>
 5    1  0.7431090E-001  0.7872382E+02  0.7818608E-02  0.1332713E+00
          3   -1    0    0  501    0  0.00000000000E+00  0.00000000000E+00  0.12160303417E+03  0.12160306973E+03  0.93000000000E-01 0. -1.
         -3   -1    0    0    0  501 -0.00000000000E+00 -0.00000000000E+00 -0.12740922632E+02  0.12741262046E+02  0.93000000000E-01 0.  1.
         23    2    1    2    0    0  0.00000000000E+00  0.00000000000E+00  0.10886211153E+03  0.13434433177E+03  0.78723822012E+02 0.  0.
        -11    1    3    3    0    0  0.13377954570E+02 -0.22417793174E+02  0.10470364302E+03  0.10790912835E+03  0.51100000000E-03 0. -1.
         11    1    3    3    0    0 -0.13377954570E+02  0.22417793174E+02  0.41584685094E+01  0.26435203420E+02  0.51100000000E-03 0.  1.
<mgrwt>
<rscale>  0 0.78723822E+02</rscale>
<asrwt>0</asrwt>
<pdfrwt beam="1">  1        3 0.18708188E-01 0.78723822E+02</pdfrwt>
<pdfrwt beam="2">  1       -3 0.19601708E-02 0.78723822E+02</pdfrwt>
<totfact> 0.47905788E+04</totfact>
</mgrwt>
</event>
<event>
 5    1  0.7431090E-001  0.9238772E+02  0.7818608E-02  0.1297170E+00
          3   -1    0    0  501    0  0.00000000000E+00  0.00000000000E+00  0.58067612022E+02  0.58067686495E+02  0.93000000000E-01 0. -1.
         -3   -1    0    0    0  501 -0.00000000000E+00 -0.00000000000E+00 -0.36747913339E+02  0.36748031019E+02  0.93000000000E-01 0.  1.
         23    2    1    2    0    0  0.00000000000E+00  0.00000000000E+00  0.21319698682E+02  0.94815717515E+02  0.92387719616E+02 0.  0.
        -11    1    3    3    0    0 -0.23445613110E+01  0.36214433947E+02  0.39992277002E+02  0.54003374097E+02  0.51100000000E-03 0. -1.
         11    1    3    3    0    0  0.23445613110E+01 -0.36214433947E+02 -0.18672578320E+02  0.40812343417E+02  0.51100000000E-03 0.  1.
<mgrwt>
<rscale>  0 0.92387720E+02</rscale>
<asrwt>0</asrwt>
<pdfrwt beam="1">  1        3 0.89334936E-02 0.92387720E+02</pdfrwt>
<pdfrwt beam="2">  1       -3 0.56535399E-02 0.92387720E+02</pdfrwt>
<totfact> 0.33820646E+04</totfact>
</mgrwt>
</event>
<event>
 5    1  0.7431090E-001  0.8960132E+02  0.7818608E-02  0.1303820E+00
          3   -1    0    0  501    0  0.00000000000E+00  0.00000000000E+00  0.27773478333E+02  0.27773634039E+02  0.93000000000E-01 0. -1.
         -3   -1    0    0    0  501 -0.00000000000E+00 -0.00000000000E+00 -0.72266363739E+02  0.72266423581E+02  0.93000000000E-01 0.  1.
         23    2    1    2    0    0  0.00000000000E+00  0.00000000000E+00 -0.44492885406E+02  0.10004005762E+03  0.89601318498E+02 0.  0.
        -11    1    3    3    0    0  0.16069164476E+02 -0.41555566568E+02 -0.17007690638E+02  0.47690090174E+02  0.51100000000E-03 0. -1.
         11    1    3    3    0    0 -0.16069164476E+02  0.41555566568E+02 -0.27485194769E+02  0.52349967445E+02  0.51100000000E-03 0.  1.
<mgrwt>
<rscale>  0 0.89601318E+02</rscale>
<asrwt>0</asrwt>
<pdfrwt beam="1">  1        3 0.42728594E-02 0.89601318E+02</pdfrwt>
<pdfrwt beam="2">  1       -3 0.11117919E-01 0.89601318E+02</pdfrwt>
<totfact> 0.36349914E+04</totfact>
</mgrwt>
</event>
<event>
 5    1  0.7431090E-001  0.9300337E+02  0.7818608E-02  0.1295737E+00
          3   -1    0    0  501    0  0.00000000000E+00  0.00000000000E+00  0.21456840543E+02  0.21457042086E+02  0.93000000000E-01 0. -1.
         -3   -1    0    0    0  501 -0.00000000000E+00 -0.00000000000E+00 -0.10077866594E+03  0.10077870885E+03  0.93000000000E-01 0.  1.
         23    2    1    2    0    0  0.00000000000E+00  0.00000000000E+00 -0.79321825394E+02  0.12223575093E+03  0.93003369953E+02 0.  0.
        -11    1    3    3    0    0 -0.31307918841E+02  0.33821813997E+02 -0.31526392381E+02  0.55839182489E+02  0.51100000000E-03 0.  1.
         11    1    3    3    0    0  0.31307918841E+02 -0.33821813997E+02 -0.47795433013E+02  0.66396568446E+02  0.51100000000E-03 0. -1.
<mgrwt>
<rscale>  0 0.93003370E+02</rscale>
<asrwt>0</asrwt>
<pdfrwt beam="1">  1        3 0.33010713E-02 0.93003370E+02</pdfrwt>
<pdfrwt beam="2">  1       -3 0.15504429E-01 0.93003370E+02</pdfrwt>
<totfact> 0.31355798E+04</totfact>
</mgrwt>
</event>
<event>
 5    1  0.7431090E-001  0.9094530E+02  0.7818608E-02  0.1300579E+00
          3   -1    0    0  501    0  0.00000000000E+00  0.00000000000E+00  0.10293273755E+03  0.10293277956E+03  0.93000000000E-01 0. -1.
         -3   -1    0    0    0  501 -0.00000000000E+00 -0.00000000000E+00 -0.20088321318E+02  0.20088536592E+02  0.93000000000E-01 0.  1.
         23    2    1    2    0    0  0.00000000000E+00  0.00000000000E+00  0.82844416233E+02  0.12302131616E+03  0.90945296347E+02 0.  0.
        -11    1    3    3    0    0  0.25410606885E+00  0.23979079420E+02 -0.10839852061E+02  0.26316595765E+02  0.51100000000E-03 0.  1.
         11    1    3    3    0    0 -0.25410606885E+00 -0.23979079420E+02  0.93684268294E+02  0.96704720390E+02  0.51100000000E-03 0. -1.
<mgrwt>
<rscale>  0 0.90945296E+02</rscale>
<asrwt>0</asrwt>
<pdfrwt beam="1">  1        3 0.15835826E-01 0.90945296E+02</pdfrwt>
<pdfrwt beam="2">  1       -3 0.30905308E-02 0.90945296E+02</pdfrwt>
<totfact> 0.33269865E+04</totfact>
</mgrwt>
</event>
<event>
 5    1  0.7431090E-001  0.8758199E+02  0.7818608E-02  0.1308815E+00
         -3   -1    0    0    0  501 -0.00000000000E+00  0.00000000000E+00  0.16964885438E+03  0.16964887987E+03  0.93000000000E-01 0.  1.
          3   -1    0    0  501    0  0.00000000000E+00 -0.00000000000E+00 -0.11303432923E+02  0.11303815499E+02  0.93000000000E-01 0. -1.
         23    2    1    2    0    0  0.00000000000E+00  0.00000000000E+00  0.15834542146E+03  0.18095269537E+03  0.87581992813E+02 0.  0.
        -11    1    3    3    0    0  0.24121179017E+02 -0.94766935100E+01  0.62418380169E+01  0.26657072967E+02  0.51100000000E-03 0. -1.
         11    1    3    3    0    0 -0.24121179017E+02  0.94766935100E+01  0.15210358344E+03  0.15429562240E+03  0.51100000000E-03 0.  1.
<mgrwt>
<rscale>  0 0.87581993E+02</rscale>
<asrwt>0</asrwt>
<pdfrwt beam="2">  1        3 0.17390211E-02 0.87581993E+02</pdfrwt>
<pdfrwt beam="1">  1       -3 0.26099854E-01 0.87581993E+02</pdfrwt>
<totfact> 0.32887885E+04</totfact>
</mgrwt>
</event>
<event>
 5    1  0.7431090E-001  0.9078201E+02  0.7818608E-02  0.1300969E+00
         -3   -1    0    0    0  501 -0.00000000000E+00  0.00000000000E+00  0.23240749040E+03  0.23240750901E+03  0.93000000000E-01 0.  1.
          3   -1    0    0  501    0  0.00000000000E+00 -0.00000000000E+00 -0.88649557512E+01  0.88654435575E+01  0.93000000000E-01 0. -1.
         23    2    1    2    0    0  0.00000000000E+00  0.00000000000E+00  0.22354253465E+03  0.24127295257E+03  0.90782007261E+02 0.  0.
        -11    1    3    3    0    0 -0.15044536010E+02 -0.34098617027E+02  0.18063075277E+03  0.18443568687E+03  0.51100000000E-03 0.  1.
         11    1    3    3    0    0  0.15044536010E+02  0.34098617027E+02  0.42911781886E+02  0.56837265696E+02  0.51100000000E-03 0. -1.
<mgrwt>
<rscale>  0 0.90782007E+02</rscale>
<asrwt>0</asrwt>
<pdfrwt beam="2">  1        3 0.13638782E-02 0.90782007E+02</pdfrwt>
<pdfrwt beam="1">  1       -3 0.35755040E-01 0.90782007E+02</pdfrwt>
<totfact> 0.26803639E+04</totfact>
</mgrwt>
</event>
<event>
 5    1  0.7431090E-001  0.9112612E+02  0.7818608E-02  0.1300147E+00
         -3   -1    0    0    0  501 -0.00000000000E+00  0.00000000000E+00  0.21789949328E+02  0.21790147790E+02  0.93000000000E-01 0.  1.
          3   -1    0    0  501    0  0.00000000000E+00 -0.00000000000E+00 -0.95272290563E+02  0.95272335954E+02  0.93000000000E-01 0. -1.
         23    2    1    2    0    0  0.00000000000E+00  0.00000000000E+00 -0.73482341235E+02  0.11706248374E+03  0.91126124833E+02 0.  0.
        -11    1    3    3    0    0  0.19378674654E+02  0.16412660752E+02 -0.85337942835E+02  0.89036357471E+02  0.51100000000E-03 0. -1.
         11    1    3    3    0    0 -0.19378674654E+02 -0.16412660752E+02  0.11855601600E+02  0.28026126273E+02  0.51100000000E-03 0.  1.
<mgrwt>
<rscale>  0 0.91126125E+02</rscale>
<asrwt>0</asrwt>
<pdfrwt beam="2">  1        3 0.14657294E-01 0.91126125E+02</pdfrwt>
<pdfrwt beam="1">  1       -3 0.33523187E-02 0.91126125E+02</pdfrwt>
<totfact> 0.33499075E+04</totfact>
</mgrwt>
</event>
<event>
 5    1  0.7431090E-001  0.8950714E+02  0.7818608E-02  0.1304050E+00
         -3   -1    0    0    0  501 -0.00000000000E+00  0.00000000000E+00  0.62009153288E+02  0.62009223028E+02  0.93000000000E-01 0.  1.
          3   -1    0    0  501    0  0.00000000000E+00 -0.00000000000E+00 -0.32299627093E+02  0.32299760980E+02  0.93000000000E-01 0. -1.
         23    2    1    2    0    0  0.00000000000E+00  0.00000000000E+00  0.29709526195E+02  0.94308984007E+02  0.89507142272E+02 0.  0.
        -11    1    3    3    0    0  0.17974777534E+02  0.30637823050E+02  0.43538628669E+02  0.56190577638E+02  0.51100000000E-03 0.  1.
         11    1    3    3    0    0 -0.17974777534E+02 -0.30637823050E+02 -0.13829102474E+02  0.38118406369E+02  0.51100000000E-03 0. -1.
<mgrwt>
<rscale>  0 0.89507142E+02</rscale>
<asrwt>0</asrwt>
<pdfrwt beam="2">  1        3 0.49691891E-02 0.89507142E+02</pdfrwt>
<pdfrwt beam="1">  1       -3 0.95398853E-02 0.89507142E+02</pdfrwt>
<totfact> 0.36907013E+04</totfact>
</mgrwt>
</event>
<event>
 5    1  0.7431090E-001  0.9117921E+02  0.7818608E-02  0.1300021E+00
          3   -1    0    0  501    0  0.00000000000E+00  0.00000000000E+00  0.37561288548E+02  0.37561403679E+02  0.93000000000E-01 0. -1.
         -3   -1    0    0    0  501 -0.00000000000E+00 -0.00000000000E+00 -0.55333647546E+02  0.55333725699E+02  0.93000000000E-01 0.  1.
         23    2    1    2    0    0  0.00000000000E+00  0.00000000000E+00 -0.17772358999E+02  0.92895129378E+02  0.91179209899E+02 0.  0.
        -11    1    3    3    0    0 -0.44962648096E+02 -0.68784338356E+01 -0.12019690960E+02  0.47047056729E+02  0.51100000000E-03 0. -1.
         11    1    3    3    0    0  0.44962648096E+02  0.68784338356E+01 -0.57526680382E+01  0.45848072649E+02  0.51100000000E-03 0.  1.
<mgrwt>
<rscale>  0 0.91179210E+02</rscale>
<asrwt>0</asrwt>
<pdfrwt beam="1">  1        3 0.57786747E-02 0.91179210E+02</pdfrwt>
<pdfrwt beam="2">  1       -3 0.85128837E-02 0.91179210E+02</pdfrwt>
<totfact> 0.35205212E+04</totfact>
</mgrwt>
</event>
<event>
 5    1  0.7431090E-001  0.9070451E+02  0.7818608E-02  0.1301155E+00
          3   -1    0    0  501    0  0.00000000000E+00  0.00000000000E+00  0.58037911105E+02  0.58037985616E+02  0.93000000000E-01 0. -1.
         -3   -1    0    0    0  501 -0.00000000000E+00 -0.00000000000E+00 -0.35439210810E+02  0.35439332835E+02  0.93000000000E-01 0.  1.
         23    2    1    2    0    0  0.00000000000E+00  0.00000000000E+00  0.22598700295E+02  0.93477318452E+02  0.90704508212E+02 0.  0.
        -11    1    3    3    0    0  0.15869353668E+02 -0.30260452442E+02  0.42032030607E+02  0.54168468365E+02  0.51100000000E-03 0. -1.
         11    1    3    3    0    0 -0.15869353668E+02  0.30260452442E+02 -0.19433330313E+02  0.39308850086E+02  0.51100000000E-03 0.  1.
<mgrwt>
<rscale>  0 0.90704508E+02</rscale>
<asrwt>0</asrwt>
<pdfrwt beam="1">  1        3 0.89289246E-02 0.90704508E+02</pdfrwt>
<pdfrwt beam="2">  1       -3 0.54522014E-02 0.90704508E+02</pdfrwt>
<totfact> 0.35663060E+04</totfact>
</mgrwt>
</event>
<event>
 5    1  0.7431090E-001  0.9339762E+02  0.7818608E-02  0.1294826E+00
         -3   -1    0    0    0  501 -0.00000000000E+00  0.00000000000E+00  0.74962697609E+02  0.74962755298E+02  0.93000000000E-01 0.  1.
          3   -1    0    0  501    0  0.00000000000E+00 -0.00000000000E+00 -0.29091379396E+02  0.29091528047E+02  0.93000000000E-01 0. -1.
         23    2    1    2    0    0  0.00000000000E+00  0.00000000000E+00  0.45871318213E+02  0.10405428334E+03  0.93397623352E+02 0.  0.
        -11    1    3    3    0    0  0.43768455638E+02 -0.12171378855E+02  0.34984372190E+02  0.57338699584E+02  0.51100000000E-03 0.  1.
         11    1    3    3    0    0 -0.43768455638E+02  0.12171378855E+02  0.10886946023E+02  0.46715583761E+02  0.51100000000E-03 0. -1.
<mgrwt>
<rscale>  0 0.93397623E+02</rscale>
<asrwt>0</asrwt>
<pdfrwt beam="2">  1        3 0.44756127E-02 0.93397623E+02</pdfrwt>
<pdfrwt beam="1">  1       -3 0.11532739E-01 0.93397623E+02</pdfrwt>
<totfact> 0.32189683E+04</totfact>
</mgrwt>
</event>
<event>
 5    1  0.7431090E-001  0.8987020E+02  0.7818608E-02  0.1303166E+00
          3   -1    0    0  501    0  0.00000000000E+00  0.00000000000E+00  0.46607377919E+02  0.46607470704E+02  0.93000000000E-01 0. -1.
         -3   -1    0    0    0  501 -0.00000000000E+00 -0.00000000000E+00 -0.43322641561E+02  0.43322741382E+02  0.93000000000E-01 0.  1.
         23    2    1    2    0    0  0.00000000000E+00  0.00000000000E+00  0.32847363573E+01  0.89930212086E+02  0.89870203922E+02 0.  0.
        -11    1    3    3    0    0  0.99766855029E+01 -0.32266048572E+02 -0.28017450803E+02  0.43881769493E+02  0.51100000000E-03 0.  1.
         11    1    3    3    0    0 -0.99766855029E+01  0.32266048572E+02  0.31302187160E+02  0.46048442594E+02  0.51100000000E-03 0. -1.
<mgrwt>
<rscale>  0 0.89870204E+02</rscale>
<asrwt>0</asrwt>
<pdfrwt beam="1">  1        3 0.71703806E-02 0.89870204E+02</pdfrwt>
<pdfrwt beam="2">  1       -3 0.66650366E-02 0.89870204E+02</pdfrwt>
<totfact> 0.36853229E+04</totfact>
</mgrwt>
</event>
<event>
 5    1  0.7431090E-001  0.8881249E+02  0.7818608E-02  0.1305753E+00
         -3   -1    0    0    0  501 -0.00000000000E+00  0.00000000000E+00  0.11295263946E+03  0.11295267775E+03  0.93000000000E-01 0.  1.
          3   -1    0    0  501    0  0.00000000000E+00 -0.00000000000E+00 -0.17457721909E+02  0.17457969620E+02  0.93000000000E-01 0. -1.
         23    2    1    2    0    0  0.00000000000E+00  0.00000000000E+00  0.95494917552E+02  0.13041064737E+03  0.88812485995E+02 0.  0.
        -11    1    3    3    0    0  0.63019205594E+01  0.41150831356E+02  0.70439033486E+02  0.81821528724E+02  0.51100000000E-03 0.  1.
         11    1    3    3    0    0 -0.63019205594E+01 -0.41150831356E+02  0.25055884066E+02  0.48589118644E+02  0.51100000000E-03 0. -1.
<mgrwt>
<rscale>  0 0.88812486E+02</rscale>
<asrwt>0</asrwt>
<pdfrwt beam="2">  1        3 0.26858254E-02 0.88812486E+02</pdfrwt>
<pdfrwt beam="1">  1       -3 0.17377351E-01 0.88812486E+02</pdfrwt>
<totfact> 0.34947652E+04</totfact>
</mgrwt>
</event>
<event>
 5    1  0.7431090E-001  0.8982232E+02  0.7818608E-02  0.1303283E+00
          3   -1    0    0  501    0  0.00000000000E+00  0.00000000000E+00  0.48275996860E+02  0.48276086438E+02  0.93000000000E-01 0. -1.
         -3   -1    0    0    0  501 -0.00000000000E+00 -0.00000000000E+00 -0.41780671757E+02  0.41780775262E+02  0.93000000000E-01 0.  1.
         23    2    1    2    0    0  0.00000000000E+00  0.00000000000E+00  0.64953251024E+01  0.90056861700E+02  0.89822319560E+02 0.  0.
        -11    1    3    3    0    0 -0.93379046143E+01 -0.43287685437E+02  0.10749988323E+02  0.45569533927E+02  0.51100000000E-03 0. -1.
         11    1    3    3    0    0  0.93379046143E+01  0.43287685437E+02 -0.42546632211E+01  0.44487327774E+02  0.51100000000E-03 0.  1.
<mgrwt>
<rscale>  0 0.89822320E+02</rscale>
<asrwt>0</asrwt>
<pdfrwt beam="1">  1        3 0.74270913E-02 0.89822320E+02</pdfrwt>
<pdfrwt beam="2">  1       -3 0.64278105E-02 0.89822320E+02</pdfrwt>
<totfact> 0.36896472E+04</totfact>
</mgrwt>
</event>
<event>
 5    1  0.7431090E-001  0.9086085E+02  0.7818608E-02  0.1300780E+00
         -3   -1    0    0    0  501 -0.00000000000E+00  0.00000000000E+00  0.91852487589E+02  0.91852534670E+02  0.93000000000E-01 0.  1.
          3   -1    0    0  501    0  0.00000000000E+00 -0.00000000000E+00 -0.22469828332E+02  0.22470020789E+02  0.93000000000E-01 0. -1.
         23    2    1    2    0    0  0.00000000000E+00  0.00000000000E+00  0.69382659257E+02  0.11432255546E+03  0.90860845699E+02 0.  0.
        -11    1    3    3    0    0 -0.36137857859E+01  0.39339192782E+02  0.62918352111E+02  0.74292331832E+02  0.51100000000E-03 0.  1.
         11    1    3    3    0    0  0.36137857859E+01 -0.39339192782E+02  0.64643071469E+01  0.40030223627E+02  0.51100000000E-03 0. -1.
<mgrwt>
<rscale>  0 0.90860846E+02</rscale>
<asrwt>0</asrwt>
<pdfrwt beam="2">  1        3 0.34569152E-02 0.90860846E+02</pdfrwt>
<pdfrwt beam="1">  1       -3 0.14131170E-01 0.90860846E+02</pdfrwt>
<totfact> 0.33959651E+04</totfact>
</mgrwt>
</event>
<event>
 5    1  0.7431090E-001  0.9156827E+02  0.7818608E-02  0.1299098E+00
          3   -1    0    0  501    0  0.00000000000E+00  0.00000000000E+00  0.78482532220E+01  0.78488042169E+01  0.93000000000E-01 0. -1.
         -3   -1    0    0    0  501 -0.00000000000E+00 -0.00000000000E+00 -0.26707966931E+03  0.26707968550E+03  0.93000000000E-01 0.  1.
         23    2    1    2    0    0  0.00000000000E+00  0.00000000000E+00 -0.25923141609E+03  0.27492848972E+03  0.91568266185E+02 0.  0.
        -11    1    3    3    0    0  0.37897028983E+01  0.39985201015E+02 -0.19560177290E+03  0.19968282778E+03  0.51100000000E-03 0.  1.
         11    1    3    3    0    0 -0.37897028983E+01 -0.39985201015E+02 -0.63629643192E+02  0.75245661943E+02  0.51100000000E-03 0. -1.
<mgrwt>
<rscale>  0 0.91568266E+02</rscale>
<asrwt>0</asrwt>
<pdfrwt beam="1">  1        3 0.12074674E-02 0.91568266E+02</pdfrwt>
<pdfrwt beam="2">  1       -3 0.41089217E-01 0.91568266E+02</pdfrwt>
<totfact> 0.24741880E+04</totfact>
</mgrwt>
</event>
<event>
 5    1  0.7431090E-001  0.8996488E+02  0.7818608E-02  0.1302937E+00
          3   -1    0    0  501    0  0.00000000000E+00  0.00000000000E+00  0.95502245178E+02  0.95502290459E+02  0.93000000000E-01 0. -1.
         -3   -1    0    0    0  501 -0.00000000000E+00 -0.00000000000E+00 -0.21186992835E+02  0.21187196945E+02  0.93000000000E-01 0.  1.
         23    2    1    2    0    0  0.00000000000E+00  0.00000000000E+00  0.74315252343E+02  0.11668948740E+03  0.89964880592E+02 0.  0.
        -11    1    3    3    0    0  0.11275793190E+02  0.12366743119E+02 -0.16998773237E+02  0.23854520311E+02  0.51100000000E-03 0.  1.
         11    1    3    3    0    0 -0.11275793190E+02 -0.12366743119E+02  0.91314025580E+02  0.92834967093E+02  0.51100000000E-03 0. -1.
<mgrwt>
<rscale>  0 0.89964881E+02</rscale>
<asrwt>0</asrwt>
<pdfrwt beam="1">  1        3 0.14692672E-01 0.89964881E+02</pdfrwt>
<pdfrwt beam="2">  1       -3 0.32595565E-02 0.89964881E+02</pdfrwt>
<totfact> 0.34710849E+04</totfact>
</mgrwt>
</event>
<event>
 5    1  0.7431090E-001  0.9451655E+02  0.7818608E-02  0.1292269E+00
         -3   -1    0    0    0  501 -0.00000000000E+00  0.00000000000E+00  0.11645073427E+03  0.11645077141E+03  0.93000000000E-01 0.  1.
          3   -1    0    0  501    0  0.00000000000E+00 -0.00000000000E+00 -0.19178298344E+02  0.19178523832E+02  0.93000000000E-01 0. -1.
         23    2    1    2    0    0  0.00000000000E+00  0.00000000000E+00  0.97272435928E+02  0.13562929524E+03  0.94516553767E+02 0.  0.
        -11    1    3    3    0    0 -0.29745010390E+02  0.27107928363E+02  0.84186053630E+02  0.93310755271E+02  0.51100000000E-03 0.  1.
         11    1    3    3    0    0  0.29745010390E+02 -0.27107928363E+02  0.13086382299E+02  0.42318539970E+02  0.51100000000E-03 0. -1.
<mgrwt>
<rscale>  0 0.94516554E+02</rscale>
<asrwt>0</asrwt>
<pdfrwt beam="2">  1        3 0.29505275E-02 0.94516554E+02</pdfrwt>
<pdfrwt beam="1">  1       -3 0.17915518E-01 0.94516554E+02</pdfrwt>
<totfact> 0.29207125E+04</totfact>
</mgrwt>
</event>
<event>
 5    1  0.7431090E-001  0.9154102E+02  0.7818608E-02  0.1299162E+00
         -3   -1    0    0    0  501 -0.00000000000E+00  0.00000000000E+00  0.81549676838E+01  0.81554979569E+01  0.93000000000E-01 0.  1.
          3   -1    0    0  501    0  0.00000000000E+00 -0.00000000000E+00 -0.25688230228E+03  0.25688231911E+03  0.93000000000E-01 0. -1.
         23    2    1    2    0    0  0.00000000000E+00  0.00000000000E+00 -0.24872733459E+03  0.26503781707E+03  0.91541015412E+02 0.  0.
        -11    1    3    3    0    0  0.30436274507E+01 -0.44404916398E+02 -0.93466821387E+02  0.10352346096E+03  0.51100000000E-03 0.  1.
         11    1    3    3    0    0 -0.30436274507E+01  0.44404916398E+02 -0.15526051321E+03  0.16151435611E+03  0.51100000000E-03 0. -1.
<mgrwt>
<rscale>  0 0.91541015E+02</rscale>
<asrwt>0</asrwt>
<pdfrwt beam="2">  1        3 0.39520390E-01 0.91541015E+02</pdfrwt>
<pdfrwt beam="1">  1       -3 0.12546527E-02 0.91541015E+02</pdfrwt>
<totfact> 0.25178445E+04</totfact>
</mgrwt>
</event>
<event>
 5    1  0.7431090E-001  0.9178632E+02  0.7818608E-02  0.1298583E+00
          3   -1    0    0  501    0  0.00000000000E+00  0.00000000000E+00  0.13290191643E+03  0.13290194897E+03  0.93000000000E-01 0. -1.
         -3   -1    0    0    0  501 -0.00000000000E+00 -0.00000000000E+00 -0.15847472851E+02  0.15847745732E+02  0.93000000000E-01 0.  1.
         23    2    1    2    0    0  0.00000000000E+00  0.00000000000E+00  0.11705444358E+03  0.14874969470E+03  0.91786322031E+02 0.  0.
        -11    1    3    3    0    0  0.14625662421E+02  0.22890678159E+02  0.11847416545E+03  0.12154843079E+03  0.51100000000E-03 0.  1.
         11    1    3    3    0    0 -0.14625662421E+02 -0.22890678159E+02 -0.14197218736E+01  0.27201263910E+02  0.51100000000E-03 0. -1.
<mgrwt>
<rscale>  0 0.91786322E+02</rscale>
<asrwt>0</asrwt>
<pdfrwt beam="1">  1        3 0.20446473E-01 0.91786322E+02</pdfrwt>
<pdfrwt beam="2">  1       -3 0.24380962E-02 0.91786322E+02</pdfrwt>
<totfact> 0.30821360E+04</totfact>
</mgrwt>
</event>
<event>
 5    1  0.7431090E-001  0.9129314E+02  0.7818608E-02  0.1299750E+00
         -3   -1    0    0    0  501 -0.00000000000E+00  0.00000000000E+00  0.16508705264E+02  0.16508967215E+02  0.93000000000E-01 0.  1.
          3   -1    0    0  501    0  0.00000000000E+00 -0.00000000000E+00 -0.12621147919E+03  0.12621151345E+03  0.93000000000E-01 0. -1.
         23    2    1    2    0    0  0.00000000000E+00  0.00000000000E+00 -0.10970277393E+03  0.14272048067E+03  0.91293137723E+02 0.  0.
        -11    1    3    3    0    0 -0.31336554298E+02 -0.25917660589E+02 -0.22437273152E+02  0.46444978119E+02  0.51100000000E-03 0.  1.
         11    1    3    3    0    0  0.31336554298E+02  0.25917660589E+02 -0.87265500774E+02  0.96275502550E+02  0.51100000000E-03 0. -1.
<mgrwt>
<rscale>  0 0.91293138E+02</rscale>
<asrwt>0</asrwt>
<pdfrwt beam="2">  1        3 0.19417173E-01 0.91293138E+02</pdfrwt>
<pdfrwt beam="1">  1       -3 0.25398237E-02 0.91293138E+02</pdfrwt>
<totfact> 0.31648655E+04</totfact>
</mgrwt>
</event>
<event>
 5    1  0.7431090E-001  0.9158308E+02  0.7818608E-02  0.1299063E+00
         -3   -1    0    0    0  501 -0.00000000000E+00  0.00000000000E+00  0.11829975566E+03  0.11829979221E+03  0.93000000000E-01 0.  1.
          3   -1    0    0  501    0  0.00000000000E+00 -0.00000000000E+00 -0.17724855950E+02  0.17725099928E+02  0.93000000000E-01 0. -1.
         23    2    1    2    0    0  0.00000000000E+00  0.00000000000E+00  0.10057489971E+03  0.13602489214E+03  0.91583081575E+02 0.  0.
        -11    1    3    3    0    0  0.43626658325E+02  0.13822050394E+02  0.47924615739E+02  0.66265399626E+02  0.51100000000E-03 0.  1.
         11    1    3    3    0    0 -0.43626658325E+02 -0.13822050394E+02  0.52650283969E+02  0.69759492515E+02  0.51100000000E-03 0. -1.
<mgrwt>
<rscale>  0 0.91583082E+02</rscale>
<asrwt>0</asrwt>
<pdfrwt beam="2">  1        3 0.27269225E-02 0.91583082E+02</pdfrwt>
<pdfrwt beam="1">  1       -3 0.18199984E-01 0.91583082E+02</pdfrwt>
<totfact> 0.31799150E+04</totfact>
</mgrwt>
</event>
<event>
 5    1  0.7431090E-001  0.8896733E+02  0.7818608E-02  0.1305372E+00
          3   -1    0    0  501    0  0.00000000000E+00  0.00000000000E+00  0.42598210716E+01  0.42608361342E+01  0.93000000000E-01 0. -1.
         -3   -1    0    0    0  501 -0.00000000000E+00 -0.00000000000E+00 -0.46446934476E+03  0.46446935407E+03  0.93000000000E-01 0.  1.
         23    2    1    2    0    0  0.00000000000E+00  0.00000000000E+00 -0.46020952369E+03  0.46873019021E+03  0.88967328363E+02 0.  0.
        -11    1    3    3    0    0 -0.40047034712E+02 -0.19186248622E+02 -0.21624607778E+03  0.22075833683E+03  0.51100000000E-03 0. -1.
         11    1    3    3    0    0  0.40047034712E+02  0.19186248622E+02 -0.24396344591E+03  0.24797185338E+03  0.51100000000E-03 0.  1.
<mgrwt>
<rscale>  0 0.88967328E+02</rscale>
<asrwt>0</asrwt>
<pdfrwt beam="1">  1        3 0.65543625E-03 0.88967328E+02</pdfrwt>
<pdfrwt beam="2">  1       -3 0.71456861E-01 0.88967328E+02</pdfrwt>
<totfact> 0.19936236E+04</totfact>
</mgrwt>
</event>
<event>
 5    1  0.7431090E-001  0.9059619E+02  0.7818608E-02  0.1301414E+00
          3   -1    0    0  501    0  0.00000000000E+00  0.00000000000E+00  0.31090057180E+03  0.31090058571E+03  0.93000000000E-01 0. -1.
         -3   -1    0    0    0  501 -0.00000000000E+00 -0.00000000000E+00 -0.65995730398E+01  0.66002282770E+01  0.93000000000E-01 0.  1.
         23    2    1    2    0    0  0.00000000000E+00  0.00000000000E+00  0.30430099876E+03  0.31750081399E+03  0.90596186652E+02 0.  0.
        -11    1    3    3    0    0  0.44181553072E+02  0.95778574818E+01  0.16216908365E+03  0.16835247749E+03  0.51100000000E-03 0.  1.
         11    1    3    3    0    0 -0.44181553072E+02 -0.95778574818E+01  0.14213191512E+03  0.14914833650E+03  0.51100000000E-03 0. -1.
<mgrwt>
<rscale>  0 0.90596187E+02</rscale>
<asrwt>0</asrwt>
<pdfrwt beam="1">  1        3 0.47830904E-01 0.90596187E+02</pdfrwt>
<pdfrwt beam="2">  1       -3 0.10153705E-02 0.90596187E+02</pdfrwt>
<totfact> 0.23773037E+04</totfact>
</mgrwt>
</event>
<event>
 5    1  0.7431090E-001  0.9445702E+02  0.7818608E-02  0.1292404E+00
          3   -1    0    0  501    0  0.00000000000E+00  0.00000000000E+00  0.54253283644E+02  0.54253363353E+02  0.93000000000E-01 0. -1.
         -3   -1    0    0    0  501 -0.00000000000E+00 -0.00000000000E+00 -0.41113145207E+02  0.41113250392E+02  0.93000000000E-01 0.  1.
         23    2    1    2    0    0  0.00000000000E+00  0.00000000000E+00  0.13140138437E+02  0.95366613745E+02  0.94457015510E+02 0.  0.
        -11    1    3    3    0    0 -0.30129182040E+00  0.25374700289E+02 -0.33645218526E+02  0.42142222551E+02  0.51100000000E-03 0.  1.
         11    1    3    3    0    0  0.30129182040E+00 -0.25374700289E+02  0.46785356964E+02  0.53224391195E+02  0.51100000000E-03 0. -1.
<mgrwt>
<rscale>  0 0.94457016E+02</rscale>
<asrwt>0</asrwt>
<pdfrwt beam="1">  1        3 0.83466732E-02 0.94457016E+02</pdfrwt>
<pdfrwt beam="2">  1       -3 0.63251135E-02 0.94457016E+02</pdfrwt>
<totfact> 0.31794708E+04</totfact>
</mgrwt>
</event>
<event>
 5    1  0.7431090E-001  0.9105821E+02  0.7818608E-02  0.1300309E+00
         -3   -1    0    0    0  501 -0.00000000000E+00  0.00000000000E+00  0.33189556264E+02  0.33189686561E+02  0.93000000000E-01 0.  1.
          3   -1    0    0  501    0  0.00000000000E+00 -0.00000000000E+00 -0.62456084682E+02  0.62456153922E+02  0.93000000000E-01 0. -1.
         23    2    1    2    0    0  0.00000000000E+00  0.00000000000E+00 -0.29266528418E+02  0.95645840483E+02  0.91058207297E+02 0.  0.
        -11    1    3    3    0    0  0.25540016513E+02 -0.35205673403E+02 -0.28771232796E+02  0.52148976213E+02  0.51100000000E-03 0. -1.
         11    1    3    3    0    0 -0.25540016513E+02  0.35205673403E+02 -0.49529562175E+00  0.43496864269E+02  0.51100000000E-03 0.  1.
<mgrwt>
<rscale>  0 0.91058207E+02</rscale>
<asrwt>0</asrwt>
<pdfrwt beam="2">  1        3 0.96086438E-02 0.91058207E+02</pdfrwt>
<pdfrwt beam="1">  1       -3 0.51061009E-02 0.91058207E+02</pdfrwt>
<totfact> 0.35121775E+04</totfact>
</mgrwt>
</event>
<event>
 5    1  0.7431090E-001  0.9328633E+02  0.7818608E-02  0.1295083E+00
          3   -1    0    0  501    0  0.00000000000E+00  0.00000000000E+00  0.37352849534E+03  0.37352850692E+03  0.93000000000E-01 0. -1.
         -3   -1    0    0    0  501 -0.00000000000E+00 -0.00000000000E+00 -0.58240313409E+01  0.58247738205E+01  0.93000000000E-01 0.  1.
         23    2    1    2    0    0  0.00000000000E+00  0.00000000000E+00  0.36770446400E+03  0.37935328074E+03  0.93286326768E+02 0.  0.
        -11    1    3    3    0    0 -0.39929296930E+02  0.22966724227E+02  0.15403428371E+03  0.16077431304E+03  0.51100000000E-03 0.  1.
         11    1    3    3    0    0  0.39929296930E+02 -0.22966724227E+02  0.21367018029E+03  0.21857896770E+03  0.51100000000E-03 0. -1.
<mgrwt>
<rscale>  0 0.93286327E+02</rscale>
<asrwt>0</asrwt>
<pdfrwt beam="1">  1        3 0.57465985E-01 0.93286327E+02</pdfrwt>
<pdfrwt beam="2">  1       -3 0.89606276E-03 0.93286327E+02</pdfrwt>
<totfact> 0.19988348E+04</totfact>
</mgrwt>
</event>
<event>
 5    1  0.7431090E-001  0.8810338E+02  0.7818608E-02  0.1307511E+00
          3   -1    0    0  501    0  0.00000000000E+00  0.00000000000E+00  0.52692555712E+02  0.52692637782E+02  0.93000000000E-01 0. -1.
         -3   -1    0    0    0  501 -0.00000000000E+00 -0.00000000000E+00 -0.36827636565E+02  0.36827753990E+02  0.93000000000E-01 0.  1.
         23    2    1    2    0    0  0.00000000000E+00  0.00000000000E+00  0.15864919147E+02  0.89520391773E+02  0.88103376119E+02 0.  0.
        -11    1    3    3    0    0 -0.32797667656E+02  0.12697707386E+02 -0.19020245022E+02  0.39983602858E+02  0.51100000000E-03 0.  1.
         11    1    3    3    0    0  0.32797667656E+02 -0.12697707386E+02  0.34885164169E+02  0.49536788914E+02  0.51100000000E-03 0. -1.
<mgrwt>
<rscale>  0 0.88103376E+02</rscale>
<asrwt>0</asrwt>
<pdfrwt beam="1">  1        3 0.81065623E-02 0.88103376E+02</pdfrwt>
<pdfrwt beam="2">  1       -3 0.56658056E-02 0.88103376E+02</pdfrwt>
<totfact> 0.38927656E+04</totfact>
</mgrwt>
</event>
<event>
 5    1  0.7431090E-001  0.9400591E+02  0.7818608E-02  0.1293431E+00
         -3   -1    0    0    0  501 -0.00000000000E+00  0.00000000000E+00  0.27602329063E+02  0.27602485734E+02  0.93000000000E-01 0.  1.
          3   -1    0    0  501    0  0.00000000000E+00 -0.00000000000E+00 -0.80039131043E+02  0.80039185072E+02  0.93000000000E-01 0. -1.
         23    2    1    2    0    0  0.00000000000E+00  0.00000000000E+00 -0.52436801979E+02  0.10764167081E+03  0.94005909879E+02 0.  0.
        -11    1    3    3    0    0 -0.76511706109E+00 -0.18202406901E+02  0.23395068983E+02  0.29652019730E+02  0.51100000000E-03 0.  1.
         11    1    3    3    0    0  0.76511706109E+00  0.18202406901E+02 -0.75831870962E+02  0.77989651076E+02  0.51100000000E-03 0. -1.
<mgrwt>
<rscale>  0 0.94005910E+02</rscale>
<asrwt>0</asrwt>
<pdfrwt beam="2">  1        3 0.12313729E-01 0.94005910E+02</pdfrwt>
<pdfrwt beam="1">  1       -3 0.42465284E-02 0.94005910E+02</pdfrwt>
<totfact> 0.31384981E+04</totfact>
</mgrwt>
</event>
<event>
 5    1  0.7431090E-001  0.8890519E+02  0.7818608E-02  0.1305525E+00
         -3   -1    0    0    0  501 -0.00000000000E+00  0.00000000000E+00  0.10498891418E+02  0.10499303311E+02  0.93000000000E-01 0.  1.
          3   -1    0    0  501    0  0.00000000000E+00 -0.00000000000E+00 -0.18820941535E+03  0.18820943833E+03  0.93000000000E-01 0. -1.
         23    2    1    2    0    0  0.00000000000E+00  0.00000000000E+00 -0.17771052394E+03  0.19870874164E+03  0.88905194941E+02 0.  0.
        -11    1    3    3    0    0 -0.29572274293E+02 -0.82928542295E+01 -0.17028568044E+02  0.35117844012E+02  0.51100000000E-03 0.  1.
         11    1    3    3    0    0  0.29572274293E+02  0.82928542295E+01 -0.16068195589E+03  0.16359089763E+03  0.51100000000E-03 0. -1.
<mgrwt>
<rscale>  0 0.88905195E+02</rscale>
<asrwt>0</asrwt>
<pdfrwt beam="2">  1        3 0.28955326E-01 0.88905195E+02</pdfrwt>
<pdfrwt beam="1">  1       -3 0.16152477E-02 0.88905195E+02</pdfrwt>
<totfact> 0.30571823E+04</totfact>
</mgrwt>
</event>
<event>
 5    1  0.7431090E-001  0.9317589E+02  0.7818608E-02  0.1295338E+00
         -3   -1    0    0    0  501 -0.00000000000E+00  0.00000000000E+00  0.36563166601E+03  0.36563167784E+03  0.93000000000E-01 0.  1.
          3   -1    0    0  501    0  0.00000000000E+00 -0.00000000000E+00 -0.59357520765E+01  0.59364805831E+01  0.93000000000E-01 0. -1.
         23    2    1    2    0    0  0.00000000000E+00  0.00000000000E+00  0.35969591394E+03  0.37156815842E+03  0.93175886643E+02 0.  0.
        -11    1    3    3    0    0 -0.32871248992E+00 -0.43440013281E+02  0.24696817849E+03  0.25075969372E+03  0.51100000000E-03 0.  1.
         11    1    3    3    0    0  0.32871248992E+00  0.43440013281E+02  0.11272773544E+03  0.12080846470E+03  0.51100000000E-03 0. -1.
<mgrwt>
<rscale>  0 0.93175887E+02</rscale>
<asrwt>0</asrwt>
<pdfrwt beam="2">  1        3 0.91324962E-03 0.93175887E+02</pdfrwt>
<pdfrwt beam="1">  1       -3 0.56251080E-01 0.93175887E+02</pdfrwt>
<totfact> 0.20274726E+04</totfact>
</mgrwt>
</event>
<event>
 5    1  0.7431090E-001  0.9021528E+02  0.7818608E-02  0.1302331E+00
          3   -1    0    0  501    0  0.00000000000E+00  0.00000000000E+00  0.40389010064E+02  0.40389117135E+02  0.93000000000E-01 0. -1.
         -3   -1    0    0    0  501 -0.00000000000E+00 -0.00000000000E+00 -0.50377323655E+02  0.50377409497E+02  0.93000000000E-01 0.  1.
         23    2    1    2    0    0  0.00000000000E+00  0.00000000000E+00 -0.99883135905E+01  0.90766526632E+02  0.90215275583E+02 0.  0.
        -11    1    3    3    0    0  0.74903109018E+01  0.27037118067E+02 -0.40531201921E+02  0.49293902667E+02  0.51100000000E-03 0.  1.
         11    1    3    3    0    0 -0.74903109018E+01 -0.27037118067E+02  0.30542888330E+02  0.41472623965E+02  0.51100000000E-03 0. -1.
<mgrwt>
<rscale>  0 0.90215276E+02</rscale>
<asrwt>0</asrwt>
<pdfrwt beam="1">  1        3 0.62137087E-02 0.90215276E+02</pdfrwt>
<pdfrwt beam="2">  1       -3 0.77503724E-02 0.90215276E+02</pdfrwt>
<totfact> 0.36405640E+04</totfact>
</mgrwt>
</event>
<event>
 5    1  0.7431090E-001  0.9261242E+02  0.7818608E-02  0.1296646E+00
          3   -1    0    0  501    0  0.00000000000E+00  0.00000000000E+00  0.73827075877E+02  0.73827134453E+02  0.93000000000E-01 0. -1.
         -3   -1    0    0    0  501 -0.00000000000E+00 -0.00000000000E+00 -0.29044284969E+02  0.29044433862E+02  0.93000000000E-01 0.  1.
         23    2    1    2    0    0  0.00000000000E+00  0.00000000000E+00  0.44782790907E+02  0.10287156831E+03  0.92612424685E+02 0.  0.
        -11    1    3    3    0    0 -0.23062525478E+02 -0.16360354326E+02  0.63124047610E+02  0.69167815218E+02  0.51100000000E-03 0. -1.
         11    1    3    3    0    0  0.23062525478E+02  0.16360354326E+02 -0.18341256703E+02  0.33703753097E+02  0.51100000000E-03 0.  1.
<mgrwt>
<rscale>  0 0.92612425E+02</rscale>
<asrwt>0</asrwt>
<pdfrwt beam="1">  1        3 0.11358028E-01 0.92612425E+02</pdfrwt>
<pdfrwt beam="2">  1       -3 0.44683674E-02 0.92612425E+02</pdfrwt>
<totfact> 0.33021791E+04</totfact>
</mgrwt>
</event>
<event>
 5    1  0.7431090E-001  0.9115977E+02  0.7818608E-02  0.1300067E+00
          3   -1    0    0  501    0  0.00000000000E+00  0.00000000000E+00  0.12241159488E+03  0.12241163020E+03  0.93000000000E-01 0. -1.
         -3   -1    0    0    0  501 -0.00000000000E+00 -0.00000000000E+00 -0.16971478580E+02  0.16971733388E+02  0.93000000000E-01 0.  1.
         23    2    1    2    0    0  0.00000000000E+00  0.00000000000E+00  0.10544011630E+03  0.13938336359E+03  0.91159771399E+02 0.  0.
        -11    1    3    3    0    0 -0.78259759879E+01 -0.38267053177E+02  0.88640602989E+02  0.96864698201E+02  0.51100000000E-03 0. -1.
         11    1    3    3    0    0  0.78259759879E+01  0.38267053177E+02  0.16799513307E+02  0.42518665390E+02  0.51100000000E-03 0.  1.
<mgrwt>
<rscale>  0 0.91159771E+02</rscale>
<asrwt>0</asrwt>
<pdfrwt beam="1">  1        3 0.18832576E-01 0.91159771E+02</pdfrwt>
<pdfrwt beam="2">  1       -3 0.26110190E-02 0.91159771E+02</pdfrwt>
<totfact> 0.31985635E+04</totfact>
</mgrwt>
</event>
<event>
 5    1  0.7431090E-001  0.9133678E+02  0.7818608E-02  0.1299646E+00
          3   -1    0    0  501    0  0.00000000000E+00  0.00000000000E+00  0.11533851583E+03  0.11533855332E+03  0.93000000000E-01 0. -1.
         -3   -1    0    0    0  501 -0.00000000000E+00 -0.00000000000E+00 -0.18082279330E+02  0.18082518486E+02  0.93000000000E-01 0.  1.
         23    2    1    2    0    0  0.00000000000E+00  0.00000000000E+00  0.97256236499E+02  0.13342107181E+03  0.91336777175E+02 0.  0.
        -11    1    3    3    0    0  0.40570231073E+02 -0.15075885363E+02  0.69915938846E+02  0.82228124591E+02  0.51100000000E-03 0.  1.
         11    1    3    3    0    0 -0.40570231073E+02  0.15075885363E+02  0.27340297653E+02  0.51192947218E+02  0.51100000000E-03 0. -1.
<mgrwt>
<rscale>  0 0.91336777E+02</rscale>
<asrwt>0</asrwt>
<pdfrwt beam="1">  1        3 0.17744409E-01 0.91336777E+02</pdfrwt>
<pdfrwt beam="2">  1       -3 0.27819104E-02 0.91336777E+02</pdfrwt>
<totfact> 0.32198551E+04</totfact>
</mgrwt>
</event>
<event>
 5    1  0.7431090E-001  0.9204671E+02  0.7818608E-02  0.1297970E+00
         -3   -1    0    0    0  501 -0.00000000000E+00  0.00000000000E+00  0.76933611438E+01  0.76939232313E+01  0.93000000000E-01 0.  1.
          3   -1    0    0  501    0  0.00000000000E+00 -0.00000000000E+00 -0.27531105229E+03  0.27531106800E+03  0.93000000000E-01 0. -1.
         23    2    1    2    0    0  0.00000000000E+00  0.00000000000E+00 -0.26761769115E+03  0.28300499123E+03  0.92046707959E+02 0.  0.
        -11    1    3    3    0    0  0.49331024031E+01 -0.39400881972E+02 -0.62270550194E+02  0.73853817919E+02  0.51100000000E-03 0.  1.
         11    1    3    3    0    0 -0.49331024031E+01  0.39400881972E+02 -0.20534714095E+03  0.20915117331E+03  0.51100000000E-03 0. -1.
<mgrwt>
<rscale>  0 0.92046708E+02</rscale>
<asrwt>0</asrwt>
<pdfrwt beam="2">  1        3 0.42355583E-01 0.92046708E+02</pdfrwt>
<pdfrwt beam="1">  1       -3 0.11836387E-02 0.92046708E+02</pdfrwt>
<totfact> 0.24080739E+04</totfact>
</mgrwt>
</event>
<event>
 5    1  0.7431090E-001  0.9083713E+02  0.7818608E-02  0.1300837E+00
          3   -1    0    0  501    0  0.00000000000E+00  0.00000000000E+00  0.11403420668E+03  0.11403424460E+03  0.93000000000E-01 0. -1.
         -3   -1    0    0    0  501 -0.00000000000E+00 -0.00000000000E+00 -0.18089551222E+02  0.18089790281E+02  0.93000000000E-01 0.  1.
         23    2    1    2    0    0  0.00000000000E+00  0.00000000000E+00  0.95944655454E+02  0.13212403488E+03  0.90837127225E+02 0.  0.
        -11    1    3    3    0    0  0.20889426286E+02  0.21320784672E+02 -0.18201883068E+01  0.29904131409E+02  0.51100000000E-03 0.  1.
         11    1    3    3    0    0 -0.20889426286E+02 -0.21320784672E+02  0.97764843761E+02  0.10221990347E+03  0.51100000000E-03 0. -1.
<mgrwt>
<rscale>  0 0.90837127E+02</rscale>
<asrwt>0</asrwt>
<pdfrwt beam="1">  1        3 0.17543745E-01 0.90837127E+02</pdfrwt>
<pdfrwt beam="2">  1       -3 0.27830292E-02 0.90837127E+02</pdfrwt>
<totfact> 0.32766544E+04</totfact>
</mgrwt>
</event>
<event>
 5    1  0.7431090E-001  0.8834887E+02  0.7818608E-02  0.1306900E+00
         -3   -1    0    0    0  501 -0.00000000000E+00  0.00000000000E+00  0.59314336986E+01  0.59321627355E+01  0.93000000000E-01 0.  1.
          3   -1    0    0  501    0  0.00000000000E+00 -0.00000000000E+00 -0.32896876764E+03  0.32896878079E+03  0.93000000000E-01 0. -1.
         23    2    1    2    0    0  0.00000000000E+00  0.00000000000E+00 -0.32303733394E+03  0.33490094352E+03  0.88348870119E+02 0.  0.
        -11    1    3    3    0    0  0.42039164472E+02  0.38178760649E+01 -0.21087207117E+03  0.21505556939E+03  0.51100000000E-03 0. -1.
         11    1    3    3    0    0 -0.42039164472E+02 -0.38178760649E+01 -0.11216526277E+03  0.11984537413E+03  0.51100000000E-03 0.  1.
<mgrwt>
<rscale>  0 0.88348870E+02</rscale>
<asrwt>0</asrwt>
<pdfrwt beam="2">  1        3 0.50610622E-01 0.88348870E+02</pdfrwt>
<pdfrwt beam="1">  1       -3 0.91258561E-03 0.88348870E+02</pdfrwt>
<totfact> 0.24738412E+04</totfact>
</mgrwt>
</event>
<event>
 5    1  0.7431090E-001  0.8523914E+02  0.7818608E-02  0.1314808E+00
         -3   -1    0    0    0  501 -0.00000000000E+00  0.00000000000E+00  0.16068363440E+02  0.16068632569E+02  0.93000000000E-01 0.  1.
          3   -1    0    0  501    0  0.00000000000E+00 -0.00000000000E+00 -0.11304248999E+03  0.11304252825E+03  0.93000000000E-01 0. -1.
         23    2    1    2    0    0  0.00000000000E+00  0.00000000000E+00 -0.96974126551E+02  0.12911116082E+03  0.85239137881E+02 0.  0.
        -11    1    3    3    0    0  0.39319343518E+02  0.15469177136E+02 -0.56937021900E+02  0.70902261452E+02  0.51100000000E-03 0.  1.
         11    1    3    3    0    0 -0.39319343518E+02 -0.15469177136E+02 -0.40037104651E+02  0.58208899363E+02  0.51100000000E-03 0. -1.
<mgrwt>
<rscale>  0 0.85239138E+02</rscale>
<asrwt>0</asrwt>
<pdfrwt beam="2">  1        3 0.17391175E-01 0.85239138E+02</pdfrwt>
<pdfrwt beam="1">  1       -3 0.24720796E-02 0.85239138E+02</pdfrwt>
<totfact> 0.39137767E+04</totfact>
</mgrwt>
</event>
<event>
 5    1  0.7431090E-001  0.9206732E+02  0.7818608E-02  0.1297921E+00
          3   -1    0    0  501    0  0.00000000000E+00  0.00000000000E+00  0.53493967031E+01  0.53502050509E+01  0.93000000000E-01 0. -1.
         -3   -1    0    0    0  501 -0.00000000000E+00 -0.00000000000E+00 -0.39610699289E+03  0.39610700381E+03  0.93000000000E-01 0.  1.
         23    2    1    2    0    0  0.00000000000E+00  0.00000000000E+00 -0.39075759618E+03  0.40145720886E+03  0.92067320839E+02 0.  0.
        -11    1    3    3    0    0 -0.27849388877E+01  0.44164836044E+02 -0.14008336200E+03  0.14690689887E+03  0.51100000000E-03 0. -1.
         11    1    3    3    0    0  0.27849388877E+01 -0.44164836044E+02 -0.25067423419E+03  0.25455030999E+03  0.51100000000E-03 0.  1.
<mgrwt>
<rscale>  0 0.92067321E+02</rscale>
<asrwt>0</asrwt>
<pdfrwt beam="1">  1        3 0.82304744E-03 0.92067321E+02</pdfrwt>
<pdfrwt beam="2">  1       -3 0.60939577E-01 0.92067321E+02</pdfrwt>
<totfact> 0.20027770E+04</totfact>
</mgrwt>
</event>
<event>
 5    1  0.7431090E-001  0.9241632E+02  0.7818608E-02  0.1297104E+00
          3   -1    0    0  501    0  0.00000000000E+00  0.00000000000E+00  0.68975617897E+02  0.68975680593E+02  0.93000000000E-01 0. -1.
         -3   -1    0    0    0  501 -0.00000000000E+00 -0.00000000000E+00 -0.30955635900E+02  0.30955775600E+02  0.93000000000E-01 0.  1.
         23    2    1    2    0    0  0.00000000000E+00  0.00000000000E+00  0.38019981996E+02  0.99931456193E+02  0.92416323806E+02 0.  0.
        -11    1    3    3    0    0  0.31392894630E+02 -0.29738175279E+01  0.55532893875E+02  0.63861253717E+02  0.51100000000E-03 0. -1.
         11    1    3    3    0    0 -0.31392894630E+02  0.29738175279E+01 -0.17512911879E+02  0.36070202476E+02  0.51100000000E-03 0.  1.
<mgrwt>
<rscale>  0 0.92416324E+02</rscale>
<asrwt>0</asrwt>
<pdfrwt beam="1">  1        3 0.10611649E-01 0.92416324E+02</pdfrwt>
<pdfrwt beam="2">  1       -3 0.47624211E-02 0.92416324E+02</pdfrwt>
<totfact> 0.33421770E+04</totfact>
</mgrwt>
</event>
<event>
 5    1  0.7431090E-001  0.8784495E+02  0.7818608E-02  0.1308156E+00
          3   -1    0    0  501    0  0.00000000000E+00  0.00000000000E+00  0.21334459905E+03  0.21334461932E+03  0.93000000000E-01 0. -1.
         -3   -1    0    0    0  501 -0.00000000000E+00 -0.00000000000E+00 -0.90423116999E+01  0.90427899389E+01  0.93000000000E-01 0.  1.
         23    2    1    2    0    0  0.00000000000E+00  0.00000000000E+00  0.20430228735E+03  0.22238740926E+03  0.87844949658E+02 0.  0.
        -11    1    3    3    0    0  0.12119886802E+02  0.29671561089E+02  0.17817857678E+03  0.18103838935E+03  0.51100000000E-03 0. -1.
         11    1    3    3    0    0 -0.12119886802E+02 -0.29671561089E+02  0.26123710573E+02  0.41349019915E+02  0.51100000000E-03 0.  1.
<mgrwt>
<rscale>  0 0.87844950E+02</rscale>
<asrwt>0</asrwt>
<pdfrwt beam="1">  1        3 0.32822283E-01 0.87844950E+02</pdfrwt>
<pdfrwt beam="2">  1       -3 0.13911633E-02 0.87844950E+02</pdfrwt>
<totfact> 0.30259400E+04</totfact>
</mgrwt>
</event>
<event>
 5    1  0.7431090E-001  0.9283094E+02  0.7818608E-02  0.1296137E+00
          3   -1    0    0  501    0  0.00000000000E+00  0.00000000000E+00  0.21356307661E+02  0.21356510153E+02  0.93000000000E-01 0. -1.
         -3   -1    0    0    0  501 -0.00000000000E+00 -0.00000000000E+00 -0.10087796293E+03  0.10087800579E+03  0.93000000000E-01 0.  1.
         23    2    1    2    0    0  0.00000000000E+00  0.00000000000E+00 -0.79521655265E+02  0.12223451595E+03  0.92830938985E+02 0.  0.
        -11    1    3    3    0    0  0.24987160968E+02 -0.59822273824E+01 -0.90660246733E+02  0.94230704103E+02  0.51100000000E-03 0.  1.
         11    1    3    3    0    0 -0.24987160968E+02  0.59822273824E+01  0.11138591468E+02  0.28003811845E+02  0.51100000000E-03 0. -1.
<mgrwt>
<rscale>  0 0.92830939E+02</rscale>
<asrwt>0</asrwt>
<pdfrwt beam="1">  1        3 0.32856047E-02 0.92830939E+02</pdfrwt>
<pdfrwt beam="2">  1       -3 0.15519705E-01 0.92830939E+02</pdfrwt>
<totfact> 0.31514868E+04</totfact>
</mgrwt>
</event>
<event>
 5    1  0.7431090E-001  0.9175063E+02  0.7818608E-02  0.1298667E+00
          3   -1    0    0  501    0  0.00000000000E+00  0.00000000000E+00  0.31641094710E+03  0.31641096077E+03  0.93000000000E-01 0. -1.
         -3   -1    0    0    0  501 -0.00000000000E+00 -0.00000000000E+00 -0.66509630395E+01  0.66516132143E+01  0.93000000000E-01 0.  1.
         23    2    1    2    0    0  0.00000000000E+00  0.00000000000E+00  0.30975998406E+03  0.32306257399E+03  0.91750634780E+02 0.  0.
        -11    1    3    3    0    0  0.42567904683E+02 -0.64025140988E+01  0.99036951554E+02  0.10798766814E+03  0.51100000000E-03 0.  1.
         11    1    3    3    0    0 -0.42567904683E+02  0.64025140988E+01  0.21072303251E+03  0.21507490585E+03  0.51100000000E-03 0. -1.
<mgrwt>
<rscale>  0 0.91750635E+02</rscale>
<asrwt>0</asrwt>
<pdfrwt beam="1">  1        3 0.48678640E-01 0.91750635E+02</pdfrwt>
<pdfrwt beam="2">  1       -3 0.10232765E-02 0.91750635E+02</pdfrwt>
<totfact> 0.22778472E+04</totfact>
</mgrwt>
</event>
<event>
 5    1  0.7431090E-001  0.8952326E+02  0.7818608E-02  0.1304010E+00
         -3   -1    0    0    0  501 -0.00000000000E+00  0.00000000000E+00  0.11265184059E+02  0.11265567934E+02  0.93000000000E-01 0.  1.
          3   -1    0    0  501    0  0.00000000000E+00 -0.00000000000E+00 -0.17785462524E+03  0.17785464955E+03  0.93000000000E-01 0. -1.
         23    2    1    2    0    0  0.00000000000E+00  0.00000000000E+00 -0.16658944118E+03  0.18912021749E+03  0.89523263735E+02 0.  0.
        -11    1    3    3    0    0  0.36494501745E+01  0.39242060075E+02 -0.12812538433E+03  0.13404988578E+03  0.51100000000E-03 0. -1.
         11    1    3    3    0    0 -0.36494501745E+01 -0.39242060075E+02 -0.38464056845E+02  0.55070331710E+02  0.51100000000E-03 0.  1.
<mgrwt>
<rscale>  0 0.89523264E+02</rscale>
<asrwt>0</asrwt>
<pdfrwt beam="2">  1        3 0.27362279E-01 0.89523264E+02</pdfrwt>
<pdfrwt beam="1">  1       -3 0.17331368E-02 0.89523264E+02</pdfrwt>
<totfact> 0.30539937E+04</totfact>
</mgrwt>
</event>
<event>
 5    1  0.7431090E-001  0.8824277E+02  0.7818608E-02  0.1307164E+00
         -3   -1    0    0    0  501 -0.00000000000E+00  0.00000000000E+00  0.25640585480E+02  0.25640754138E+02  0.93000000000E-01 0.  1.
          3   -1    0    0  501    0  0.00000000000E+00 -0.00000000000E+00 -0.75922027591E+02  0.75922084551E+02  0.93000000000E-01 0. -1.
         23    2    1    2    0    0  0.00000000000E+00  0.00000000000E+00 -0.50281442112E+02  0.10156283869E+03  0.88242771838E+02 0.  0.
        -11    1    3    3    0    0 -0.33342861251E+02 -0.26656045253E+02 -0.37978076542E+02  0.57136900888E+02  0.51100000000E-03 0. -1.
         11    1    3    3    0    0  0.33342861251E+02  0.26656045253E+02 -0.12303365569E+02  0.44425937801E+02  0.51100000000E-03 0.  1.
<mgrwt>
<rscale>  0 0.88242772E+02</rscale>
<asrwt>0</asrwt>
<pdfrwt beam="2">  1        3 0.11680329E-01 0.88242772E+02</pdfrwt>
<pdfrwt beam="1">  1       -3 0.39447228E-02 0.88242772E+02</pdfrwt>
<totfact> 0.37760649E+04</totfact>
</mgrwt>
</event>
<event>
 5    1  0.7431090E-001  0.9143211E+02  0.7818608E-02  0.1299420E+00
          3   -1    0    0  501    0  0.00000000000E+00  0.00000000000E+00  0.18465313101E+02  0.18465547296E+02  0.93000000000E-01 0. -1.
         -3   -1    0    0    0  501 -0.00000000000E+00 -0.00000000000E+00 -0.11318191704E+03  0.11318195525E+03  0.93000000000E-01 0.  1.
         23    2    1    2    0    0  0.00000000000E+00  0.00000000000E+00 -0.94716603943E+02  0.13164750255E+03  0.91432105219E+02 0.  0.
        -11    1    3    3    0    0 -0.12407177058E+02  0.37888993216E+02 -0.79568358134E+02  0.88997963268E+02  0.51100000000E-03 0.  1.
         11    1    3    3    0    0  0.12407177058E+02 -0.37888993216E+02 -0.15148245809E+02  0.42649539280E+02  0.51100000000E-03 0. -1.
<mgrwt>
<rscale>  0 0.91432105E+02</rscale>
<asrwt>0</asrwt>
<pdfrwt beam="1">  1        3 0.28408384E-02 0.91432105E+02</pdfrwt>
<pdfrwt beam="2">  1       -3 0.17412623E-01 0.91432105E+02</pdfrwt>
<totfact> 0.32223645E+04</totfact>
</mgrwt>
</event>
<event>
 5    1  0.7431090E-001  0.8952537E+02  0.7818608E-02  0.1304005E+00
          3   -1    0    0  501    0  0.00000000000E+00  0.00000000000E+00  0.42818487254E+03  0.42818488264E+03  0.93000000000E-01 0. -1.
         -3   -1    0    0    0  501 -0.00000000000E+00 -0.00000000000E+00 -0.46790435876E+01  0.46799677236E+01  0.93000000000E-01 0.  1.
         23    2    1    2    0    0  0.00000000000E+00  0.00000000000E+00  0.42350582896E+03  0.43286485037E+03  0.89525368044E+02 0.  0.
        -11    1    3    3    0    0 -0.42695292814E+02 -0.13098877711E+02  0.19706400602E+03  0.20206110733E+03  0.51100000000E-03 0. -1.
         11    1    3    3    0    0  0.42695292814E+02  0.13098877711E+02  0.22644182294E+03  0.23080374304E+03  0.51100000000E-03 0.  1.
<mgrwt>
<rscale>  0 0.89525368E+02</rscale>
<asrwt>0</asrwt>
<pdfrwt beam="1">  1        3 0.65874657E-01 0.89525368E+02</pdfrwt>
<pdfrwt beam="2">  1       -3 0.71992484E-03 0.89525368E+02</pdfrwt>
<totfact> 0.20641392E+04</totfact>
</mgrwt>
</event>
<event>
 5    1  0.7431090E-001  0.9123045E+02  0.7818608E-02  0.1299899E+00
         -3   -1    0    0    0  501 -0.00000000000E+00  0.00000000000E+00  0.24953914730E+02  0.24954088029E+02  0.93000000000E-01 0.  1.
          3   -1    0    0  501    0  0.00000000000E+00 -0.00000000000E+00 -0.83383169532E+02  0.83383221395E+02  0.93000000000E-01 0. -1.
         23    2    1    2    0    0  0.00000000000E+00  0.00000000000E+00 -0.58429254802E+02  0.10833730942E+03  0.91230448845E+02 0.  0.
        -11    1    3    3    0    0 -0.57947185426E+01  0.15441645755E+02  0.21289231880E+02  0.26930551070E+02  0.51100000000E-03 0.  1.
         11    1    3    3    0    0  0.57947185426E+01 -0.15441645755E+02 -0.79718486682E+02  0.81406758354E+02  0.51100000000E-03 0. -1.
<mgrwt>
<rscale>  0 0.91230449E+02</rscale>
<asrwt>0</asrwt>
<pdfrwt beam="2">  1        3 0.12828197E-01 0.91230449E+02</pdfrwt>
<pdfrwt beam="1">  1       -3 0.38390812E-02 0.91230449E+02</pdfrwt>
<totfact> 0.34009196E+04</totfact>
</mgrwt>
</event>
<event>
 5    1  0.7431090E-001  0.9225232E+02  0.7818608E-02  0.1297487E+00
          3   -1    0    0  501    0  0.00000000000E+00  0.00000000000E+00  0.13525658092E+03  0.13525661289E+03  0.93000000000E-01 0. -1.
         -3   -1    0    0    0  501 -0.00000000000E+00 -0.00000000000E+00 -0.15730099283E+02  0.15730374200E+02  0.93000000000E-01 0.  1.
         23    2    1    2    0    0  0.00000000000E+00  0.00000000000E+00  0.11952648163E+03  0.15098698709E+03  0.92252319529E+02 0.  0.
        -11    1    3    3    0    0 -0.23187779800E+02 -0.20013702600E+02  0.33181197573E+01  0.30809598226E+02  0.51100000000E-03 0.  1.
         11    1    3    3    0    0  0.23187779800E+02  0.20013702600E+02  0.11620836188E+03  0.12017738886E+03  0.51100000000E-03 0. -1.
<mgrwt>
<rscale>  0 0.92252320E+02</rscale>
<asrwt>0</asrwt>
<pdfrwt beam="1">  1        3 0.20808728E-01 0.92252320E+02</pdfrwt>
<pdfrwt beam="2">  1       -3 0.24200389E-02 0.92252320E+02</pdfrwt>
<totfact> 0.30267976E+04</totfact>
</mgrwt>
</event>
<event>
 5    1  0.7431090E-001  0.9275917E+02  0.7818608E-02  0.1296304E+00
         -3   -1    0    0    0  501 -0.00000000000E+00  0.00000000000E+00  0.14908975681E+03  0.14908978582E+03  0.93000000000E-01 0.  1.
          3   -1    0    0  501    0  0.00000000000E+00 -0.00000000000E+00 -0.14427812451E+02  0.14428112181E+02  0.93000000000E-01 0. -1.
         23    2    1    2    0    0  0.00000000000E+00  0.00000000000E+00  0.13466194436E+03  0.16351789800E+03  0.92759170472E+02 0.  0.
        -11    1    3    3    0    0  0.36412577075E+02  0.19546117868E+02  0.10443991982E+03  0.11231929196E+03  0.51100000000E-03 0.  1.
         11    1    3    3    0    0 -0.36412577075E+02 -0.19546117868E+02  0.30222024535E+02  0.51198606038E+02  0.51100000000E-03 0. -1.
<mgrwt>
<rscale>  0 0.92759170E+02</rscale>
<asrwt>0</asrwt>
<pdfrwt beam="2">  1        3 0.22196887E-02 0.92759170E+02</pdfrwt>
<pdfrwt beam="1">  1       -3 0.22936911E-01 0.92759170E+02</pdfrwt>
<totfact> 0.29110001E+04</totfact>
</mgrwt>
</event>
<event>
 5    1  0.7431090E-001  0.9084675E+02  0.7818608E-02  0.1300814E+00
         -3   -1    0    0    0  501 -0.00000000000E+00  0.00000000000E+00  0.14436202477E+03  0.14436205473E+03  0.93000000000E-01 0.  1.
          3   -1    0    0  501    0  0.00000000000E+00 -0.00000000000E+00 -0.14292239292E+02  0.14292541865E+02  0.93000000000E-01 0. -1.
         23    2    1    2    0    0  0.00000000000E+00  0.00000000000E+00  0.13006978548E+03  0.15865459659E+03  0.90846749668E+02 0.  0.
        -11    1    3    3    0    0 -0.25790451941E+02  0.37388374907E+02  0.64170484616E+02  0.78618630652E+02  0.51100000000E-03 0. -1.
         11    1    3    3    0    0  0.25790451941E+02 -0.37388374907E+02  0.65899300864E+02  0.80035965941E+02  0.51100000000E-03 0.  1.
<mgrwt>
<rscale>  0 0.90846750E+02</rscale>
<asrwt>0</asrwt>
<pdfrwt beam="2">  1        3 0.21988317E-02 0.90846750E+02</pdfrwt>
<pdfrwt beam="1">  1       -3 0.22209567E-01 0.90846750E+02</pdfrwt>
<totfact> 0.31090142E+04</totfact>
</mgrwt>
</event>
<event>
 5    1  0.7431090E-001  0.9017603E+02  0.7818608E-02  0.1302426E+00
         -3   -1    0    0    0  501 -0.00000000000E+00  0.00000000000E+00  0.25483432362E+02  0.25483602060E+02  0.93000000000E-01 0.  1.
          3   -1    0    0  501    0  0.00000000000E+00 -0.00000000000E+00 -0.79774085209E+02  0.79774139419E+02  0.93000000000E-01 0. -1.
         23    2    1    2    0    0  0.00000000000E+00  0.00000000000E+00 -0.54290652847E+02  0.10525774148E+03  0.90176034259E+02 0.  0.
        -11    1    3    3    0    0  0.38730162637E+02 -0.12632377053E+02 -0.49698492732E+02  0.64261517473E+02  0.51100000000E-03 0. -1.
         11    1    3    3    0    0 -0.38730162637E+02  0.12632377053E+02 -0.45921601158E+01  0.40996224005E+02  0.51100000000E-03 0.  1.
<mgrwt>
<rscale>  0 0.90176034E+02</rscale>
<asrwt>0</asrwt>
<pdfrwt beam="2">  1        3 0.12272953E-01 0.90176034E+02</pdfrwt>
<pdfrwt beam="1">  1       -3 0.39205453E-02 0.90176034E+02</pdfrwt>
<totfact> 0.35328388E+04</totfact>
</mgrwt>
</event>
<event>
 5    1  0.7431090E-001  0.8690321E+02  0.7818608E-02  0.1310529E+00
          3   -1    0    0  501    0  0.00000000000E+00  0.00000000000E+00  0.64513773023E+01  0.64520475895E+01  0.93000000000E-01 0. -1.
         -3   -1    0    0    0  501 -0.00000000000E+00 -0.00000000000E+00 -0.29264128655E+03  0.29264130133E+03  0.93000000000E-01 0.  1.
         23    2    1    2    0    0  0.00000000000E+00  0.00000000000E+00 -0.28618990925E+03  0.29909334891E+03  0.86903205989E+02 0.  0.
        -11    1    3    3    0    0 -0.38525971937E+02  0.19561935907E+02 -0.12727744938E+03  0.13441156561E+03  0.51100000000E-03 0. -1.
         11    1    3    3    0    0  0.38525971937E+02 -0.19561935907E+02 -0.15891245987E+03  0.16468178330E+03  0.51100000000E-03 0.  1.
<mgrwt>
<rscale>  0 0.86903206E+02</rscale>
<asrwt>0</asrwt>
<pdfrwt beam="1">  1        3 0.99257251E-03 0.86903206E+02</pdfrwt>
<pdfrwt beam="2">  1       -3 0.45021779E-01 0.86903206E+02</pdfrwt>
<totfact> 0.27353342E+04</totfact>
</mgrwt>
</event>
<event>
 5    1  0.7431090E-001  0.9226283E+02  0.7818608E-02  0.1297463E+00
         -3   -1    0    0    0  501 -0.00000000000E+00  0.00000000000E+00  0.12023622613E+02  0.12023982275E+02  0.93000000000E-01 0.  1.
          3   -1    0    0  501    0  0.00000000000E+00 -0.00000000000E+00 -0.17699085037E+03  0.17699087481E+03  0.93000000000E-01 0. -1.
         23    2    1    2    0    0  0.00000000000E+00  0.00000000000E+00 -0.16496722776E+03  0.18901485708E+03  0.92262830883E+02 0.  0.
        -11    1    3    3    0    0  0.41278924694E+02 -0.20583306135E+02 -0.81056338170E+02  0.93261739600E+02  0.51100000000E-03 0. -1.
         11    1    3    3    0    0 -0.41278924694E+02  0.20583306135E+02 -0.83910889589E+02  0.95753117481E+02  0.51100000000E-03 0.  1.
<mgrwt>
<rscale>  0 0.92262831E+02</rscale>
<asrwt>0</asrwt>
<pdfrwt beam="2">  1        3 0.27229389E-01 0.92262831E+02</pdfrwt>
<pdfrwt beam="1">  1       -3 0.18498178E-02 0.92262831E+02</pdfrwt>
<totfact> 0.28159942E+04</totfact>
</mgrwt>
</event>
<event>
 5    1  0.7431090E-001  0.9673049E+02  0.7818608E-02  0.1287325E+00
          3   -1    0    0  501    0  0.00000000000E+00  0.00000000000E+00  0.64373678988E+02  0.64373746166E+02  0.93000000000E-01 0. -1.
         -3   -1    0    0    0  501 -0.00000000000E+00 -0.00000000000E+00 -0.36337636655E+02  0.36337755664E+02  0.93000000000E-01 0.  1.
         23    2    1    2    0    0  0.00000000000E+00  0.00000000000E+00  0.28036042333E+02  0.10071150183E+03  0.96730486048E+02 0.  0.
        -11    1    3    3    0    0  0.82536199976E+01 -0.47643679017E+02  0.15136640739E+02  0.50667151948E+02  0.51100000000E-03 0.  1.
         11    1    3    3    0    0 -0.82536199976E+01  0.47643679017E+02  0.12899401594E+02  0.50044349882E+02  0.51100000000E-03 0. -1.
<mgrwt>
<rscale>  0 0.96730486E+02</rscale>
<asrwt>0</asrwt>
<pdfrwt beam="1">  1        3 0.99036572E-02 0.96730486E+02</pdfrwt>
<pdfrwt beam="2">  1       -3 0.55904200E-02 0.96730486E+02</pdfrwt>
<totfact> 0.29449856E+04</totfact>
</mgrwt>
</event>
<event>
 5    1  0.7431090E-001  0.9469805E+02  0.7818608E-02  0.1291858E+00
         -3   -1    0    0    0  501 -0.00000000000E+00  0.00000000000E+00  0.26426904617E+02  0.26427068257E+02  0.93000000000E-01 0.  1.
          3   -1    0    0  501    0  0.00000000000E+00 -0.00000000000E+00 -0.84834685602E+02  0.84834736578E+02  0.93000000000E-01 0. -1.
         23    2    1    2    0    0  0.00000000000E+00  0.00000000000E+00 -0.58407780985E+02  0.11126180483E+03  0.94698048213E+02 0.  0.
        -11    1    3    3    0    0 -0.35727631864E+02  0.12869449611E+02 -0.62432152717E+02  0.73074346422E+02  0.51100000000E-03 0. -1.
         11    1    3    3    0    0  0.35727631864E+02 -0.12869449611E+02  0.40243717320E+01  0.38187458412E+02  0.51100000000E-03 0.  1.
<mgrwt>
<rscale>  0 0.94698048E+02</rscale>
<asrwt>0</asrwt>
<pdfrwt beam="2">  1        3 0.13051507E-01 0.94698048E+02</pdfrwt>
<pdfrwt beam="1">  1       -3 0.40656942E-02 0.94698048E+02</pdfrwt>
<totfact> 0.30530258E+04</totfact>
</mgrwt>
</event>
<event>
 5    1  0.7431090E-001  0.8996655E+02  0.7818608E-02  0.1302933E+00
          3   -1    0    0  501    0  0.00000000000E+00  0.00000000000E+00  0.25090238819E+03  0.25090240542E+03  0.93000000000E-01 0. -1.
         -3   -1    0    0    0  501 -0.00000000000E+00 -0.00000000000E+00 -0.80645843391E+01  0.80651205548E+01  0.93000000000E-01 0.  1.
         23    2    1    2    0    0  0.00000000000E+00  0.00000000000E+00  0.24283780385E+03  0.25896752598E+03  0.89966552303E+02 0.  0.
        -11    1    3    3    0    0 -0.40724640001E+01 -0.37925584373E+02  0.52782822947E+02  0.65122663579E+02  0.51100000000E-03 0.  1.
         11    1    3    3    0    0  0.40724640001E+01  0.37925584373E+02  0.19005498090E+03  0.19384486240E+03  0.51100000000E-03 0. -1.
<mgrwt>
<rscale>  0 0.89966552E+02</rscale>
<asrwt>0</asrwt>
<pdfrwt beam="1">  1        3 0.38600412E-01 0.89966552E+02</pdfrwt>
<pdfrwt beam="2">  1       -3 0.12407478E-02 0.89966552E+02</pdfrwt>
<totfact> 0.26649346E+04</totfact>
</mgrwt>
</event>
<event>
 5    1  0.7431090E-001  0.9217451E+02  0.7818608E-02  0.1297670E+00
          3   -1    0    0  501    0  0.00000000000E+00  0.00000000000E+00  0.48786048827E+02  0.48786137469E+02  0.93000000000E-01 0. -1.
         -3   -1    0    0    0  501 -0.00000000000E+00 -0.00000000000E+00 -0.43537580132E+02  0.43537679460E+02  0.93000000000E-01 0.  1.
         23    2    1    2    0    0  0.00000000000E+00  0.00000000000E+00  0.52484686952E+01  0.92323816929E+02  0.92174512468E+02 0.  0.
        -11    1    3    3    0    0  0.28631193736E+02 -0.28809387323E+02  0.24438150835E+02  0.47401996468E+02  0.51100000000E-03 0. -1.
         11    1    3    3    0    0 -0.28631193736E+02  0.28809387323E+02 -0.19189682139E+02  0.44921820461E+02  0.51100000000E-03 0.  1.
<mgrwt>
<rscale>  0 0.92174512E+02</rscale>
<asrwt>0</asrwt>
<pdfrwt beam="1">  1        3 0.75055605E-02 0.92174512E+02</pdfrwt>
<pdfrwt beam="2">  1       -3 0.66981037E-02 0.92174512E+02</pdfrwt>
<totfact> 0.34218346E+04</totfact>
</mgrwt>
</event>
<event>
 5    1  0.7431090E-001  0.9160498E+02  0.7818608E-02  0.1299011E+00
         -3   -1    0    0    0  501 -0.00000000000E+00  0.00000000000E+00  0.75634594358E+01  0.75640311764E+01  0.93000000000E-01 0.  1.
          3   -1    0    0  501    0  0.00000000000E+00 -0.00000000000E+00 -0.27735776564E+03  0.27735778123E+03  0.93000000000E-01 0. -1.
         23    2    1    2    0    0  0.00000000000E+00  0.00000000000E+00 -0.26979430620E+03  0.28492181241E+03  0.91604975442E+02 0.  0.
        -11    1    3    3    0    0 -0.52535037624E+01  0.44840756368E+02 -0.11089008084E+03  0.11972845427E+03  0.51100000000E-03 0. -1.
         11    1    3    3    0    0  0.52535037624E+01 -0.44840756368E+02 -0.15890422537E+03  0.16519335814E+03  0.51100000000E-03 0.  1.
<mgrwt>
<rscale>  0 0.91604975E+02</rscale>
<asrwt>0</asrwt>
<pdfrwt beam="2">  1        3 0.42670463E-01 0.91604975E+02</pdfrwt>
<pdfrwt beam="1">  1       -3 0.11636545E-02 0.91604975E+02</pdfrwt>
<totfact> 0.24318135E+04</totfact>
</mgrwt>
</event>
<event>
 5    1  0.7431090E-001  0.8538974E+02  0.7818608E-02  0.1314416E+00
         -3   -1    0    0    0  501 -0.00000000000E+00  0.00000000000E+00  0.82264917394E+01  0.82270174023E+01  0.93000000000E-01 0.  1.
          3   -1    0    0  501    0  0.00000000000E+00 -0.00000000000E+00 -0.22157551251E+03  0.22157553203E+03  0.93000000000E-01 0. -1.
         23    2    1    2    0    0  0.00000000000E+00  0.00000000000E+00 -0.21334902077E+03  0.22980254943E+03  0.85389736271E+02 0.  0.
        -11    1    3    3    0    0 -0.17505417801E+02  0.27592195834E+02 -0.18062592244E+03  0.18355787311E+03  0.51100000000E-03 0. -1.
         11    1    3    3    0    0  0.17505417801E+02 -0.27592195834E+02 -0.32723098334E+02  0.46244676322E+02  0.51100000000E-03 0.  1.
<mgrwt>
<rscale>  0 0.85389736E+02</rscale>
<asrwt>0</asrwt>
<pdfrwt beam="2">  1        3 0.34088578E-01 0.85389736E+02</pdfrwt>
<pdfrwt beam="1">  1       -3 0.12656562E-02 0.85389736E+02</pdfrwt>
<totfact> 0.32219211E+04</totfact>
</mgrwt>
</event>
<event>
 5    1  0.7431090E-001  0.9169690E+02  0.7818608E-02  0.1298794E+00
          3   -1    0    0  501    0  0.00000000000E+00  0.00000000000E+00  0.77150807514E+01  0.77156412567E+01  0.93000000000E-01 0.  1.
         -3   -1    0    0    0  501 -0.00000000000E+00 -0.00000000000E+00 -0.27245338307E+03  0.27245339894E+03  0.93000000000E-01 0. -1.
         23    2    1    2    0    0  0.00000000000E+00  0.00000000000E+00 -0.26473830232E+03  0.28016904020E+03  0.91696904918E+02 0.  0.
        -11    1    3    3    0    0 -0.36633868178E+02 -0.20900249872E+02 -0.77438534102E+02  0.88179290690E+02  0.51100000000E-03 0. -1.
         11    1    3    3    0    0  0.36633868178E+02  0.20900249872E+02 -0.18729976821E+03  0.19198974951E+03  0.51100000000E-03 0.  1.
<mgrwt>
<rscale>  0 0.91696905E+02</rscale>
<asrwt>0</asrwt>
<pdfrwt beam="1">  1        3 0.11869800E-02 0.91696905E+02</pdfrwt>
<pdfrwt beam="2">  1       -3 0.41915942E-01 0.91696905E+02</pdfrwt>
<totfact> 0.24436073E+04</totfact>
</mgrwt>
</event>
<event>
 5    1  0.7431090E-001  0.9091309E+02  0.7818608E-02  0.1300655E+00
         -3   -1    0    0    0  501 -0.00000000000E+00  0.00000000000E+00  0.97777748692E+02  0.97777792919E+02  0.93000000000E-01 0.  1.
          3   -1    0    0  501    0  0.00000000000E+00 -0.00000000000E+00 -0.21132441023E+02  0.21132645660E+02  0.93000000000E-01 0. -1.
         23    2    1    2    0    0  0.00000000000E+00  0.00000000000E+00  0.76645307669E+02  0.11891043858E+03  0.90913086052E+02 0.  0.
        -11    1    3    3    0    0  0.19845630884E+02 -0.93420990622E+01 -0.13752669122E+02  0.25889375974E+02  0.51100000000E-03 0. -1.
         11    1    3    3    0    0 -0.19845630884E+02  0.93420990622E+01  0.90397976791E+02  0.93021062605E+02  0.51100000000E-03 0.  1.
<mgrwt>
<rscale>  0 0.90913086E+02</rscale>
<asrwt>0</asrwt>
<pdfrwt beam="2">  1        3 0.32511639E-02 0.90913086E+02</pdfrwt>
<pdfrwt beam="1">  1       -3 0.15042750E-01 0.90913086E+02</pdfrwt>
<totfact> 0.33585925E+04</totfact>
</mgrwt>
</event>
<event>
 5    1  0.7431090E-001  0.9057126E+02  0.7818608E-02  0.1301474E+00
         -3   -1    0    0    0  501 -0.00000000000E+00  0.00000000000E+00  0.13942991812E+03  0.13942994913E+03  0.93000000000E-01 0. -1.
          3   -1    0    0  501    0  0.00000000000E+00 -0.00000000000E+00 -0.14708201975E+02  0.14708495991E+02  0.93000000000E-01 0.  1.
         23    2    1    2    0    0  0.00000000000E+00  0.00000000000E+00  0.12472171614E+03  0.15413844512E+03  0.90571263587E+02 0.  0.
        -11    1    3    3    0    0 -0.28672309175E+02  0.89514090216E+01  0.46845730872E+01  0.30400234575E+02  0.51100000000E-03 0.  1.
         11    1    3    3    0    0  0.28672309175E+02 -0.89514090216E+01  0.12003714306E+03  0.12373821055E+03  0.51100000000E-03 0. -1.
<mgrwt>
<rscale>  0 0.90571264E+02</rscale>
<asrwt>0</asrwt>
<pdfrwt beam="2">  1        3 0.22628254E-02 0.90571264E+02</pdfrwt>
<pdfrwt beam="1">  1       -3 0.21450781E-01 0.90571264E+02</pdfrwt>
<totfact> 0.31621332E+04</totfact>
</mgrwt>
</event>
<event>
 5    1  0.7431090E-001  0.8387163E+02  0.7818608E-02  0.1318410E+00
         -3   -1    0    0    0  501 -0.00000000000E+00  0.00000000000E+00  0.12819699132E+03  0.12819702506E+03  0.93000000000E-01 0.  1.
          3   -1    0    0  501    0  0.00000000000E+00 -0.00000000000E+00 -0.13717855948E+02  0.13718171191E+02  0.93000000000E-01 0. -1.
         23    2    1    2    0    0  0.00000000000E+00  0.00000000000E+00  0.11447913538E+03  0.14191519625E+03  0.83871631019E+02 0.  0.
        -11    1    3    3    0    0 -0.24441529011E+02  0.33223839194E+02  0.44420018531E+02  0.60616415910E+02  0.51100000000E-03 0. -1.
         11    1    3    3    0    0  0.24441529011E+02 -0.33223839194E+02  0.70059116844E+02  0.81298780338E+02  0.51100000000E-03 0.  1.
<mgrwt>
<rscale>  0 0.83871631E+02</rscale>
<asrwt>0</asrwt>
<pdfrwt beam="2">  1        3 0.21104663E-02 0.83871631E+02</pdfrwt>
<pdfrwt beam="1">  1       -3 0.19722640E-01 0.83871631E+02</pdfrwt>
<totfact> 0.39833647E+04</totfact>
</mgrwt>
</event>
<event>
 5    1  0.7431090E-001  0.9526326E+02  0.7818608E-02  0.1290584E+00
         -3   -1    0    0    0  501 -0.00000000000E+00  0.00000000000E+00  0.82789572016E+02  0.82789624251E+02  0.93000000000E-01 0.  1.
          3   -1    0    0  501    0  0.00000000000E+00 -0.00000000000E+00 -0.27403942454E+02  0.27404100260E+02  0.93000000000E-01 0. -1.
         23    2    1    2    0    0  0.00000000000E+00  0.00000000000E+00  0.55385629561E+02  0.11019372451E+03  0.95263261331E+02 0.  0.
        -11    1    3    3    0    0 -0.24226693319E+02 -0.38508877255E+02  0.44006620895E+02  0.63296516330E+02  0.51100000000E-03 0.  1.
         11    1    3    3    0    0  0.24226693319E+02  0.38508877255E+02  0.11379008666E+02  0.46897208180E+02  0.51100000000E-03 0. -1.
<mgrwt>
<rscale>  0 0.95263261E+02</rscale>
<asrwt>0</asrwt>
<pdfrwt beam="2">  1        3 0.42160073E-02 0.95263261E+02</pdfrwt>
<pdfrwt beam="1">  1       -3 0.12736873E-01 0.95263261E+02</pdfrwt>
<totfact> 0.30105680E+04</totfact>
</mgrwt>
</event>
<event>
 5    1  0.7431090E-001  0.9211824E+02  0.7818608E-02  0.1297802E+00
          3   -1    0    0  501    0  0.00000000000E+00  0.00000000000E+00  0.15804207920E+02  0.15804481547E+02  0.93000000000E-01 0. -1.
         -3   -1    0    0    0  501 -0.00000000000E+00 -0.00000000000E+00 -0.13423131969E+03  0.13423135191E+03  0.93000000000E-01 0.  1.
         23    2    1    2    0    0  0.00000000000E+00  0.00000000000E+00 -0.11842711177E+03  0.15003583346E+03  0.92118242049E+02 0.  0.
        -11    1    3    3    0    0 -0.23883202001E+02  0.16271804119E+02 -0.11762720767E+03  0.12112530261E+03  0.51100000000E-03 0.  1.
         11    1    3    3    0    0  0.23883202001E+02 -0.16271804119E+02 -0.79990410178E+00  0.28910530849E+02  0.51100000000E-03 0. -1.
<mgrwt>
<rscale>  0 0.92118242E+02</rscale>
<asrwt>0</asrwt>
<pdfrwt beam="1">  1        3 0.24314402E-02 0.92118242E+02</pdfrwt>
<pdfrwt beam="2">  1       -3 0.20650995E-01 0.92118242E+02</pdfrwt>
<totfact> 0.30445209E+04</totfact>
</mgrwt>
</event>
<event>
 5    1  0.7431090E-001  0.8996121E+02  0.7818608E-02  0.1302946E+00
         -3   -1    0    0    0  501 -0.00000000000E+00  0.00000000000E+00  0.70974511448E+01  0.70980604219E+01  0.93000000000E-01 0.  1.
          3   -1    0    0  501    0  0.00000000000E+00 -0.00000000000E+00 -0.28505495178E+03  0.28505496695E+03  0.93000000000E-01 0. -1.
         23    2    1    2    0    0  0.00000000000E+00  0.00000000000E+00 -0.27795750063E+03  0.29215302737E+03  0.89961209660E+02 0.  0.
        -11    1    3    3    0    0  0.40264446250E+02 -0.18099572393E+02 -0.11096039084E+03  0.11941954819E+03  0.51100000000E-03 0.  1.
         11    1    3    3    0    0 -0.40264446250E+02  0.18099572393E+02 -0.16699710979E+03  0.17273347918E+03  0.51100000000E-03 0. -1.
<mgrwt>
<rscale>  0 0.89961210E+02</rscale>
<asrwt>0</asrwt>
<pdfrwt beam="2">  1        3 0.43854647E-01 0.89961210E+02</pdfrwt>
<pdfrwt beam="1">  1       -3 0.10919638E-02 0.89961210E+02</pdfrwt>
<totfact> 0.25229334E+04</totfact>
</mgrwt>
</event>
<event>
 5    1  0.7431090E-001  0.9162315E+02  0.7818608E-02  0.1298968E+00
          3   -1    0    0  501    0  0.00000000000E+00  0.00000000000E+00  0.53398910058E+02  0.53398991043E+02  0.93000000000E-01 0. -1.
         -3   -1    0    0    0  501 -0.00000000000E+00 -0.00000000000E+00 -0.39302143226E+02  0.39302253258E+02  0.93000000000E-01 0.  1.
         23    2    1    2    0    0  0.00000000000E+00  0.00000000000E+00  0.14096766832E+02  0.92701244301E+02  0.91623151331E+02 0.  0.
        -11    1    3    3    0    0 -0.12996957013E+02  0.43649455300E+02  0.12056845264E+02  0.47112242120E+02  0.51100000000E-03 0.  1.
         11    1    3    3    0    0  0.12996957013E+02 -0.43649455300E+02  0.20399215677E+01  0.45589002181E+02  0.51100000000E-03 0. -1.
<mgrwt>
<rscale>  0 0.91623151E+02</rscale>
<asrwt>0</asrwt>
<pdfrwt beam="1">  1        3 0.82152316E-02 0.91623151E+02</pdfrwt>
<pdfrwt beam="2">  1       -3 0.60464983E-02 0.91623151E+02</pdfrwt>
<totfact> 0.34755680E+04</totfact>
</mgrwt>
</event>
<event>
 5    1  0.7431090E-001  0.9460499E+02  0.7818608E-02  0.1292068E+00
          3   -1    0    0  501    0  0.00000000000E+00  0.00000000000E+00  0.18286600170E+02  0.18286836653E+02  0.93000000000E-01 0. -1.
         -3   -1    0    0    0  501 -0.00000000000E+00 -0.00000000000E+00 -0.12235772566E+03  0.12235776100E+03  0.93000000000E-01 0.  1.
         23    2    1    2    0    0  0.00000000000E+00  0.00000000000E+00 -0.10407112549E+03  0.14064459766E+03  0.94604987656E+02 0.  0.
        -11    1    3    3    0    0  0.47675569741E+00 -0.37973420527E+02 -0.10109950206E+02  0.39299097394E+02  0.51100000000E-03 0. -1.
         11    1    3    3    0    0 -0.47675569741E+00  0.37973420527E+02 -0.93961175284E+02  0.10134550026E+03  0.51100000000E-03 0.  1.
<mgrwt>
<rscale>  0 0.94604988E+02</rscale>
<asrwt>0</asrwt>
<pdfrwt beam="1">  1        3 0.28133441E-02 0.94604988E+02</pdfrwt>
<pdfrwt beam="2">  1       -3 0.18824286E-01 0.94604988E+02</pdfrwt>
<totfact> 0.28844653E+04</totfact>
</mgrwt>
</event>
<event>
 5    1  0.7431090E-001  0.9407457E+02  0.7818608E-02  0.1293274E+00
          3   -1    0    0  501    0  0.00000000000E+00  0.00000000000E+00  0.25134722384E+03  0.25134724104E+03  0.93000000000E-01 0. -1.
         -3   -1    0    0    0  501 -0.00000000000E+00 -0.00000000000E+00 -0.88023245112E+01  0.88028157881E+01  0.93000000000E-01 0.  1.
         23    2    1    2    0    0  0.00000000000E+00  0.00000000000E+00  0.24254489933E+03  0.26015005683E+03  0.94074565531E+02 0.  0.
        -11    1    3    3    0    0 -0.38465457381E+02  0.26412324187E+02  0.13770336468E+03  0.14539401269E+03  0.51100000000E-03 0. -1.
         11    1    3    3    0    0  0.38465457381E+02 -0.26412324187E+02  0.10484153464E+03  0.11475604414E+03  0.51100000000E-03 0.  1.
<mgrwt>
<rscale>  0 0.94074566E+02</rscale>
<asrwt>0</asrwt>
<pdfrwt beam="1">  1        3 0.38668848E-01 0.94074566E+02</pdfrwt>
<pdfrwt beam="2">  1       -3 0.13542427E-02 0.94074566E+02</pdfrwt>
<totfact> 0.23583220E+04</totfact>
</mgrwt>
</event>
<event>
 5    1  0.7431090E-001  0.9186044E+02  0.7818608E-02  0.1298408E+00
          3   -1    0    0  501    0  0.00000000000E+00  0.00000000000E+00  0.15220865471E+03  0.15220868312E+03  0.93000000000E-01 0. -1.
         -3   -1    0    0    0  501 -0.00000000000E+00 -0.00000000000E+00 -0.13859638522E+02  0.13859950540E+02  0.93000000000E-01 0.  1.
         23    2    1    2    0    0  0.00000000000E+00  0.00000000000E+00  0.13834901618E+03  0.16606863366E+03  0.91860442006E+02 0.  0.
        -11    1    3    3    0    0  0.29031330847E+02  0.27979794253E+02  0.10894271959E+03  0.11616455229E+03  0.51100000000E-03 0. -1.
         11    1    3    3    0    0 -0.29031330847E+02 -0.27979794253E+02  0.29406296592E+02  0.49904081363E+02  0.51100000000E-03 0.  1.
<mgrwt>
<rscale>  0 0.91860442E+02</rscale>
<asrwt>0</asrwt>
<pdfrwt beam="1">  1        3 0.23416740E-01 0.91860442E+02</pdfrwt>
<pdfrwt beam="2">  1       -3 0.21322784E-02 0.91860442E+02</pdfrwt>
<totfact> 0.29743778E+04</totfact>
</mgrwt>
</event>
<event>
 5    1  0.7431090E-001  0.9047211E+02  0.7818608E-02  0.1301712E+00
         -3   -1    0    0    0  501 -0.00000000000E+00  0.00000000000E+00  0.20353046335E+03  0.20353048460E+03  0.93000000000E-01 0.  1.
          3   -1    0    0  501    0  0.00000000000E+00 -0.00000000000E+00 -0.10053788827E+02  0.10054218954E+02  0.93000000000E-01 0. -1.
         23    2    1    2    0    0  0.00000000000E+00  0.00000000000E+00  0.19347667453E+03  0.21358470355E+03  0.90472106236E+02 0.  0.
        -11    1    3    3    0    0  0.30178802635E+02 -0.29040711456E+02  0.13709161284E+03  0.14334654988E+03  0.51100000000E-03 0.  1.
         11    1    3    3    0    0 -0.30178802635E+02  0.29040711456E+02  0.56385061685E+02  0.70238153676E+02  0.51100000000E-03 0. -1.
<mgrwt>
<rscale>  0 0.90472106E+02</rscale>
<asrwt>0</asrwt>
<pdfrwt beam="2">  1        3 0.15467713E-02 0.90472106E+02</pdfrwt>
<pdfrwt beam="1">  1       -3 0.31312417E-01 0.90472106E+02</pdfrwt>
<totfact> 0.28396106E+04</totfact>
</mgrwt>
</event>
<event>
 5    1  0.7431090E-001  0.8954372E+02  0.7818608E-02  0.1303960E+00
         -3   -1    0    0    0  501 -0.00000000000E+00  0.00000000000E+00  0.33861364105E+02  0.33861491816E+02  0.93000000000E-01 0.  1.
          3   -1    0    0  501    0  0.00000000000E+00 -0.00000000000E+00 -0.59197555185E+02  0.59197628237E+02  0.93000000000E-01 0. -1.
         23    2    1    2    0    0  0.00000000000E+00  0.00000000000E+00 -0.25336191081E+02  0.93059120053E+02  0.89543716958E+02 0.  0.
        -11    1    3    3    0    0 -0.78289438780E+01  0.36226597970E+02  0.13434909565E+02  0.39422779684E+02  0.51100000000E-03 0.  1.
         11    1    3    3    0    0  0.78289438780E+01 -0.36226597970E+02 -0.38771100645E+02  0.53636340370E+02  0.51100000000E-03 0. -1.
<mgrwt>
<rscale>  0 0.89543717E+02</rscale>
<asrwt>0</asrwt>
<pdfrwt beam="2">  1        3 0.91073316E-02 0.89543717E+02</pdfrwt>
<pdfrwt beam="1">  1       -3 0.52094561E-02 0.89543717E+02</pdfrwt>
<totfact> 0.36965698E+04</totfact>
</mgrwt>
</event>
<event>
 5    1  0.7431090E-001  0.9152050E+02  0.7818608E-02  0.1299211E+00
          3   -1    0    0  501    0  0.00000000000E+00  0.00000000000E+00  0.42222612453E+02  0.42222714874E+02  0.93000000000E-01 0. -1.
         -3   -1    0    0    0  501 -0.00000000000E+00 -0.00000000000E+00 -0.49594084344E+02  0.49594171542E+02  0.93000000000E-01 0.  1.
         23    2    1    2    0    0  0.00000000000E+00  0.00000000000E+00 -0.73714718909E+01  0.91816886416E+02  0.91520500617E+02 0.  0.
        -11    1    3    3    0    0 -0.24504945749E+02 -0.37465139745E+02 -0.13196491914E+02  0.46672009399E+02  0.51100000000E-03 0.  1.
         11    1    3    3    0    0  0.24504945749E+02  0.37465139745E+02  0.58250200232E+01  0.45144877016E+02  0.51100000000E-03 0. -1.
<mgrwt>
<rscale>  0 0.91520501E+02</rscale>
<asrwt>0</asrwt>
<pdfrwt beam="1">  1        3 0.64958011E-02 0.91520501E+02</pdfrwt>
<pdfrwt beam="2">  1       -3 0.76298737E-02 0.91520501E+02</pdfrwt>
<totfact> 0.34929182E+04</totfact>
</mgrwt>
</event>
<event>
 5    1  0.7431090E-001  0.9003736E+02  0.7818608E-02  0.1302761E+00
          3   -1    0    0  501    0  0.00000000000E+00  0.00000000000E+00  0.24316512595E+03  0.24316514373E+03  0.93000000000E-01 0. -1.
         -3   -1    0    0    0  501 -0.00000000000E+00 -0.00000000000E+00 -0.83343127822E+01  0.83348316451E+01  0.93000000000E-01 0.  1.
         23    2    1    2    0    0  0.00000000000E+00  0.00000000000E+00  0.23483081317E+03  0.25149997538E+03  0.90037363370E+02 0.  0.
        -11    1    3    3    0    0 -0.39763034839E+02  0.19700440541E+02  0.96238808613E+02  0.10597695306E+03  0.51100000000E-03 0.  1.
         11    1    3    3    0    0  0.39763034839E+02 -0.19700440541E+02  0.13859200455E+03  0.14552302231E+03  0.51100000000E-03 0. -1.
<mgrwt>
<rscale>  0 0.90037363E+02</rscale>
<asrwt>0</asrwt>
<pdfrwt beam="1">  1        3 0.37410054E-01 0.90037363E+02</pdfrwt>
<pdfrwt beam="2">  1       -3 0.12822435E-02 0.90037363E+02</pdfrwt>
<totfact> 0.26931434E+04</totfact>
</mgrwt>
</event>
<event>
 5    1  0.7431090E-001  0.8248344E+02  0.7818608E-02  0.1322148E+00
         -3   -1    0    0    0  501 -0.00000000000E+00  0.00000000000E+00  0.72234924030E+02  0.72234983897E+02  0.93000000000E-01 0.  1.
          3   -1    0    0  501    0  0.00000000000E+00 -0.00000000000E+00 -0.23546334014E+02  0.23546517672E+02  0.93000000000E-01 0. -1.
         23    2    1    2    0    0  0.00000000000E+00  0.00000000000E+00  0.48688590016E+02  0.95781501569E+02  0.82483436186E+02 0.  0.
        -11    1    3    3    0    0 -0.25341754866E+02 -0.28021274065E+02  0.43547779583E+02  0.57652453953E+02  0.51100000000E-03 0.  1.
         11    1    3    3    0    0  0.25341754866E+02  0.28021274065E+02  0.51408104326E+01  0.38129047616E+02  0.51100000000E-03 0. -1.
<mgrwt>
<rscale>  0 0.82483436E+02</rscale>
<asrwt>0</asrwt>
<pdfrwt beam="2">  1        3 0.36225317E-02 0.82483436E+02</pdfrwt>
<pdfrwt beam="1">  1       -3 0.11113084E-01 0.82483436E+02</pdfrwt>
<totfact> 0.45874105E+04</totfact>
</mgrwt>
</event>
<event>
 5    1  0.7431090E-001  0.9016897E+02  0.7818608E-02  0.1302443E+00
          3   -1    0    0  501    0  0.00000000000E+00  0.00000000000E+00  0.11458515948E+03  0.11458519722E+03  0.93000000000E-01 0. -1.
         -3   -1    0    0    0  501 -0.00000000000E+00 -0.00000000000E+00 -0.17738705326E+02  0.17738949114E+02  0.93000000000E-01 0.  1.
         23    2    1    2    0    0  0.00000000000E+00  0.00000000000E+00  0.96846454155E+02  0.13232414634E+03  0.90168974825E+02 0.  0.
        -11    1    3    3    0    0  0.25523748890E+02 -0.36675092939E+02  0.39607539552E+02  0.59709977300E+02  0.51100000000E-03 0. -1.
         11    1    3    3    0    0 -0.25523748890E+02  0.36675092939E+02  0.57238914603E+02  0.72614169035E+02  0.51100000000E-03 0.  1.
<mgrwt>
<rscale>  0 0.90168975E+02</rscale>
<asrwt>0</asrwt>
<pdfrwt beam="1">  1        3 0.17628508E-01 0.90168975E+02</pdfrwt>
<pdfrwt beam="2">  1       -3 0.27290532E-02 0.90168975E+02</pdfrwt>
<totfact> 0.33414045E+04</totfact>
</mgrwt>
</event>
<event>
 5    1  0.7431090E-001  0.9228796E+02  0.7818608E-02  0.1297404E+00
         -3   -1    0    0    0  501 -0.00000000000E+00  0.00000000000E+00  0.79150061704E+02  0.79150116341E+02  0.93000000000E-01 0.  1.
          3   -1    0    0  501    0  0.00000000000E+00 -0.00000000000E+00 -0.26901503196E+02  0.26901663948E+02  0.93000000000E-01 0. -1.
         23    2    1    2    0    0  0.00000000000E+00  0.00000000000E+00  0.52248558508E+02  0.10605178029E+03  0.92287963659E+02 0.  0.
        -11    1    3    3    0    0 -0.25324311213E+02  0.14834280219E+01  0.70418304626E+02  0.74848239283E+02  0.51100000000E-03 0.  1.
         11    1    3    3    0    0  0.25324311213E+02 -0.14834280219E+01 -0.18169746117E+02  0.31203541006E+02  0.51100000000E-03 0. -1.
<mgrwt>
<rscale>  0 0.92287964E+02</rscale>
<asrwt>0</asrwt>
<pdfrwt beam="2">  1        3 0.41387094E-02 0.92287964E+02</pdfrwt>
<pdfrwt beam="1">  1       -3 0.12176949E-01 0.92287964E+02</pdfrwt>
<totfact> 0.33117859E+04</totfact>
</mgrwt>
</event>
<event>
 5    1  0.7431090E-001  0.9565879E+02  0.7818608E-02  0.1289699E+00
         -3   -1    0    0    0  501 -0.00000000000E+00  0.00000000000E+00  0.82489517160E+02  0.82489569584E+02  0.93000000000E-01 0.  1.
          3   -1    0    0  501    0  0.00000000000E+00 -0.00000000000E+00 -0.27732488340E+02  0.27732644276E+02  0.93000000000E-01 0. -1.
         23    2    1    2    0    0  0.00000000000E+00  0.00000000000E+00  0.54757028820E+02  0.11022221386E+03  0.95658790621E+02 0.  0.
        -11    1    3    3    0    0 -0.21176468787E+02  0.42882259460E+02  0.28030371459E+02  0.55434941428E+02  0.51100000000E-03 0. -1.
         11    1    3    3    0    0  0.21176468787E+02 -0.42882259460E+02  0.26726657360E+02  0.54787272433E+02  0.51100000000E-03 0.  1.
<mgrwt>
<rscale>  0 0.95658791E+02</rscale>
<asrwt>0</asrwt>
<pdfrwt beam="2">  1        3 0.42665528E-02 0.95658791E+02</pdfrwt>
<pdfrwt beam="1">  1       -3 0.12690711E-01 0.95658791E+02</pdfrwt>
<totfact> 0.29764411E+04</totfact>
</mgrwt>
</event>
<event>
 5    1  0.7431090E-001  0.9167002E+02  0.7818608E-02  0.1298857E+00
         -3   -1    0    0    0  501 -0.00000000000E+00  0.00000000000E+00  0.90510860901E+02  0.90510908680E+02  0.93000000000E-01 0.  1.
          3   -1    0    0  501    0  0.00000000000E+00 -0.00000000000E+00 -0.23210857086E+02  0.23211043399E+02  0.93000000000E-01 0. -1.
         23    2    1    2    0    0  0.00000000000E+00  0.00000000000E+00  0.67300003816E+02  0.11372195208E+03  0.91670016205E+02 0.  0.
        -11    1    3    3    0    0 -0.11337995611E+01 -0.36223447938E+02 -0.11613909412E+01  0.36259791934E+02  0.51100000000E-03 0. -1.
         11    1    3    3    0    0  0.11337995611E+01  0.36223447938E+02  0.68461394757E+02  0.77462160145E+02  0.51100000000E-03 0.  1.
<mgrwt>
<rscale>  0 0.91670016E+02</rscale>
<asrwt>0</asrwt>
<pdfrwt beam="2">  1        3 0.35709191E-02 0.91670016E+02</pdfrwt>
<pdfrwt beam="1">  1       -3 0.13924766E-01 0.91670016E+02</pdfrwt>
<totfact> 0.33191895E+04</totfact>
</mgrwt>
</event>
<event>
 5    1  0.7431090E-001  0.9037136E+02  0.7818608E-02  0.1301955E+00
         -3   -1    0    0    0  501 -0.00000000000E+00  0.00000000000E+00  0.68108433108E+02  0.68108496603E+02  0.93000000000E-01 0.  1.
          3   -1    0    0  501    0  0.00000000000E+00 -0.00000000000E+00 -0.29977717425E+02  0.29977861682E+02  0.93000000000E-01 0. -1.
         23    2    1    2    0    0  0.00000000000E+00  0.00000000000E+00  0.38130715683E+02  0.98086358285E+02  0.90371357205E+02 0.  0.
        -11    1    3    3    0    0 -0.21173450213E+02 -0.24721559534E+02  0.53082228803E+02  0.62267114231E+02  0.51100000000E-03 0.  1.
         11    1    3    3    0    0  0.21173450213E+02  0.24721559534E+02 -0.14951513120E+02  0.35819244053E+02  0.51100000000E-03 0. -1.
<mgrwt>
<rscale>  0 0.90371357E+02</rscale>
<asrwt>0</asrwt>
<pdfrwt beam="2">  1        3 0.46119725E-02 0.90371357E+02</pdfrwt>
<pdfrwt beam="1">  1       -3 0.10478236E-01 0.90371357E+02</pdfrwt>
<totfact> 0.35664618E+04</totfact>
</mgrwt>
</event>
<event>
 5    1  0.7431090E-001  0.8848660E+02  0.7818608E-02  0.1306559E+00
         -3   -1    0    0    0  501 -0.00000000000E+00  0.00000000000E+00  0.11031202138E+02  0.11031594156E+02  0.93000000000E-01 0.  1.
          3   -1    0    0  501    0  0.00000000000E+00 -0.00000000000E+00 -0.17744488427E+03  0.17744490864E+03  0.93000000000E-01 0. -1.
         23    2    1    2    0    0  0.00000000000E+00  0.00000000000E+00 -0.16641368214E+03  0.18847650280E+03  0.88486600714E+02 0.  0.
        -11    1    3    3    0    0  0.37677926726E+02 -0.21231405464E+01 -0.34016475940E+02  0.50806048102E+02  0.51100000000E-03 0.  1.
         11    1    3    3    0    0 -0.37677926726E+02  0.21231405464E+01 -0.13239720620E+03  0.13767045470E+03  0.51100000000E-03 0. -1.
<mgrwt>
<rscale>  0 0.88486601E+02</rscale>
<asrwt>0</asrwt>
<pdfrwt beam="2">  1        3 0.27299243E-01 0.88486601E+02</pdfrwt>
<pdfrwt beam="1">  1       -3 0.16971402E-02 0.88486601E+02</pdfrwt>
<totfact> 0.31548802E+04</totfact>
</mgrwt>
</event>
<event>
 5    1  0.7431090E-001  0.9365767E+02  0.7818608E-02  0.1294228E+00
          3   -1    0    0  501    0  0.00000000000E+00  0.00000000000E+00  0.75752402817E+02  0.75752459904E+02  0.93000000000E-01 0. -1.
         -3   -1    0    0    0  501 -0.00000000000E+00 -0.00000000000E+00 -0.28948637594E+02  0.28948786979E+02  0.93000000000E-01 0.  1.
         23    2    1    2    0    0  0.00000000000E+00  0.00000000000E+00  0.46803765223E+02  0.10470124688E+03  0.93657667384E+02 0.  0.
        -11    1    3    3    0    0 -0.34886306053E+02  0.21456513773E+02  0.48783789971E+02  0.63696895509E+02  0.51100000000E-03 0. -1.
         11    1    3    3    0    0  0.34886306053E+02 -0.21456513773E+02 -0.19800247481E+01  0.41004351374E+02  0.51100000000E-03 0.  1.
<mgrwt>
<rscale>  0 0.93657667E+02</rscale>
<asrwt>0</asrwt>
<pdfrwt beam="1">  1        3 0.11654232E-01 0.93657667E+02</pdfrwt>
<pdfrwt beam="2">  1       -3 0.44536524E-02 0.93657667E+02</pdfrwt>
<totfact> 0.31901208E+04</totfact>
</mgrwt>
</event>
<event>
 4    1  0.7431090E-001  0.1360777E+03  0.7818608E-02  0.1218706E+00
          3   -1    0    0  501    0  0.00000000000E+00  0.00000000000E+00  0.13654782053E+03  0.13654785220E+03  0.93000000000E-01 0.  1.
         -3   -1    0    0    0  501 -0.00000000000E+00 -0.00000000000E+00 -0.33902183795E+02  0.33902311353E+02  0.93000000000E-01 0. -1.
        -11    1    1    2    0    0 -0.58434768777E+02  0.20173122621E+02  0.15723870090E+02  0.63787280622E+02  0.51100000000E-03 0. -1.
         11    1    1    2    0    0  0.58434768777E+02 -0.20173122621E+02  0.86921766647E+02  0.10666288293E+03  0.51100000000E-03 0.  1.
<mgrwt>
<rscale>  0 0.13607767E+03</rscale>
<asrwt>0</asrwt>
<pdfrwt beam="1">  1        3 0.21007369E-01 0.13607767E+03</pdfrwt>
<pdfrwt beam="2">  1       -3 0.52157328E-02 0.13607767E+03</pdfrwt>
<totfact> 0.99211690E+03</totfact>
</mgrwt>
</event>
<event>
 5    1  0.7431090E-001  0.9126643E+02  0.7818608E-02  0.1299814E+00
         -3   -1    0    0    0  501 -0.00000000000E+00  0.00000000000E+00  0.75037714933E+01  0.75043477813E+01  0.93000000000E-01 0.  1.
          3   -1    0    0  501    0  0.00000000000E+00 -0.00000000000E+00 -0.27750127682E+03  0.27750129241E+03  0.93000000000E-01 0. -1.
         23    2    1    2    0    0  0.00000000000E+00  0.00000000000E+00 -0.26999750533E+03  0.28500564019E+03  0.91266434437E+02 0.  0.
        -11    1    3    3    0    0 -0.24346021281E+02  0.36788177095E+02 -0.98542064462E+02  0.10796590756E+03  0.51100000000E-03 0. -1.
         11    1    3    3    0    0  0.24346021281E+02 -0.36788177095E+02 -0.17145544087E+03  0.17703973263E+03  0.51100000000E-03 0.  1.
<mgrwt>
<rscale>  0 0.91266434E+02</rscale>
<asrwt>0</asrwt>
<pdfrwt beam="2">  1        3 0.42692542E-01 0.91266434E+02</pdfrwt>
<pdfrwt beam="1">  1       -3 0.11544721E-02 0.91266434E+02</pdfrwt>
<totfact> 0.24558204E+04</totfact>
</mgrwt>
</event>
<event>
 5    1  0.7431090E-001  0.9195558E+02  0.7818608E-02  0.1298184E+00
          3   -1    0    0  501    0  0.00000000000E+00  0.00000000000E+00  0.72092768534E+02  0.72092828520E+02  0.93000000000E-01 0.  1.
         -3   -1    0    0    0  501 -0.00000000000E+00 -0.00000000000E+00 -0.29322590027E+02  0.29322737507E+02  0.93000000000E-01 0. -1.
         23    2    1    2    0    0  0.00000000000E+00  0.00000000000E+00  0.42770178507E+02  0.10141556603E+03  0.91955580924E+02 0.  0.
        -11    1    3    3    0    0 -0.21396811592E+02  0.28916573125E+02 -0.10195796602E+02  0.37389116280E+02  0.51100000000E-03 0. -1.
         11    1    3    3    0    0  0.21396811592E+02 -0.28916573125E+02  0.52965975109E+02  0.64026449746E+02  0.51100000000E-03 0.  1.
<mgrwt>
<rscale>  0 0.91955581E+02</rscale>
<asrwt>0</asrwt>
<pdfrwt beam="1">  1        3 0.11091211E-01 0.91955581E+02</pdfrwt>
<pdfrwt beam="2">  1       -3 0.45111836E-02 0.91955581E+02</pdfrwt>
<totfact> 0.33773855E+04</totfact>
</mgrwt>
</event>
<event>
 5    1  0.7431090E-001  0.9122530E+02  0.7818608E-02  0.1299911E+00
          3   -1    0    0  501    0  0.00000000000E+00  0.00000000000E+00  0.29546566578E+02  0.29546712940E+02  0.93000000000E-01 0. -1.
         -3   -1    0    0    0  501 -0.00000000000E+00 -0.00000000000E+00 -0.70414389234E+02  0.70414450649E+02  0.93000000000E-01 0.  1.
         23    2    1    2    0    0  0.00000000000E+00  0.00000000000E+00 -0.40867822656E+02  0.99961163589E+02  0.91225299657E+02 0.  0.
        -11    1    3    3    0    0  0.11565634983E+02  0.22660046478E+02  0.21050061743E+02  0.33020398523E+02  0.51100000000E-03 0. -1.
         11    1    3    3    0    0 -0.11565634983E+02 -0.22660046478E+02 -0.61917884399E+02  0.66940765066E+02  0.51100000000E-03 0.  1.
<mgrwt>
<rscale>  0 0.91225300E+02</rscale>
<asrwt>0</asrwt>
<pdfrwt beam="1">  1        3 0.45456416E-02 0.91225300E+02</pdfrwt>
<pdfrwt beam="2">  1       -3 0.10832999E-01 0.91225300E+02</pdfrwt>
<totfact> 0.34625027E+04</totfact>
</mgrwt>
</event>
<event>
 5    1  0.7431090E-001  0.9228748E+02  0.7818608E-02  0.1297405E+00
          3   -1    0    0  501    0  0.00000000000E+00  0.00000000000E+00  0.56928643500E+01  0.56936239345E+01  0.93000000000E-01 0. -1.
         -3   -1    0    0    0  501 -0.00000000000E+00 -0.00000000000E+00 -0.37399421612E+03  0.37399422768E+03  0.93000000000E-01 0.  1.
         23    2    1    2    0    0  0.00000000000E+00  0.00000000000E+00 -0.36830135177E+03  0.37968785161E+03  0.92287479922E+02 0.  0.
        -11    1    3    3    0    0  0.14088397789E+02 -0.41468618667E+02 -0.12437232575E+03  0.13185827505E+03  0.51100000000E-03 0. -1.
         11    1    3    3    0    0 -0.14088397789E+02  0.41468618667E+02 -0.24392902601E+03  0.24782957656E+03  0.51100000000E-03 0.  1.
<mgrwt>
<rscale>  0 0.92287480E+02</rscale>
<asrwt>0</asrwt>
<pdfrwt beam="1">  1        3 0.87588490E-03 0.92287480E+02</pdfrwt>
<pdfrwt beam="2">  1       -3 0.57537612E-01 0.92287480E+02</pdfrwt>
<totfact> 0.20551388E+04</totfact>
</mgrwt>
</event>
<event>
 5    1  0.7431090E-001  0.9125453E+02  0.7818608E-02  0.1299842E+00
         -3   -1    0    0    0  501 -0.00000000000E+00  0.00000000000E+00  0.73922321947E+02  0.73922380448E+02  0.93000000000E-01 0.  1.
          3   -1    0    0  501    0  0.00000000000E+00 -0.00000000000E+00 -0.28162489306E+02  0.28162642861E+02  0.93000000000E-01 0. -1.
         23    2    1    2    0    0  0.00000000000E+00  0.00000000000E+00  0.45759832642E+02  0.10208502331E+03  0.91254532493E+02 0.  0.
        -11    1    3    3    0    0 -0.32032799229E+02 -0.31417542058E+02  0.32151188431E+02  0.55198379444E+02  0.51100000000E-03 0.  1.
         11    1    3    3    0    0  0.32032799229E+02  0.31417542058E+02  0.13608644211E+02  0.46886643865E+02  0.51100000000E-03 0. -1.
<mgrwt>
<rscale>  0 0.91254532E+02</rscale>
<asrwt>0</asrwt>
<pdfrwt beam="2">  1        3 0.43327070E-02 0.91254532E+02</pdfrwt>
<pdfrwt beam="1">  1       -3 0.11372681E-01 0.91254532E+02</pdfrwt>
<totfact> 0.34438640E+04</totfact>
</mgrwt>
</event>
<event>
 5    1  0.7431090E-001  0.9033996E+02  0.7818608E-02  0.1302031E+00
         -3   -1    0    0    0  501 -0.00000000000E+00  0.00000000000E+00  0.65935032180E+02  0.65935097767E+02  0.93000000000E-01 0.  1.
          3   -1    0    0  501    0  0.00000000000E+00 -0.00000000000E+00 -0.30944355261E+02  0.30944495012E+02  0.93000000000E-01 0. -1.
         23    2    1    2    0    0  0.00000000000E+00  0.00000000000E+00  0.34990676919E+02  0.96879592779E+02  0.90339958080E+02 0.  0.
        -11    1    3    3    0    0 -0.25626322821E+02 -0.35482568032E+02  0.29466100877E+02  0.52763359983E+02  0.51100000000E-03 0. -1.
         11    1    3    3    0    0  0.25626322821E+02  0.35482568032E+02  0.55245760416E+01  0.44116232797E+02  0.51100000000E-03 0.  1.
<mgrwt>
<rscale>  0 0.90339958E+02</rscale>
<asrwt>0</asrwt>
<pdfrwt beam="2">  1        3 0.47606858E-02 0.90339958E+02</pdfrwt>
<pdfrwt beam="1">  1       -3 0.10143867E-01 0.90339958E+02</pdfrwt>
<totfact> 0.35791120E+04</totfact>
</mgrwt>
</event>
<event>
 5    1  0.7431090E-001  0.1012067E+03  0.7818608E-02  0.1277779E+00
         -3   -1    0    0    0  501 -0.00000000000E+00  0.00000000000E+00  0.33274362285E+02  0.33274492250E+02  0.93000000000E-01 0.  1.
          3   -1    0    0  501    0  0.00000000000E+00 -0.00000000000E+00 -0.76956746008E+02  0.76956802201E+02  0.93000000000E-01 0. -1.
         23    2    1    2    0    0  0.00000000000E+00  0.00000000000E+00 -0.43682383722E+02  0.11023129445E+03  0.10120665803E+03 0.  0.
        -11    1    3    3    0    0 -0.27891493873E+02 -0.24185355170E+01  0.24071082104E+02  0.36921561972E+02  0.51100000000E-03 0.  1.
         11    1    3    3    0    0  0.27891493873E+02  0.24185355170E+01 -0.67753465826E+02  0.73309732480E+02  0.51100000000E-03 0. -1.
<mgrwt>
<rscale>  0 0.10120666E+03</rscale>
<asrwt>0</asrwt>
<pdfrwt beam="2">  1        3 0.11839514E-01 0.10120666E+03</pdfrwt>
<pdfrwt beam="1">  1       -3 0.51191470E-02 0.10120666E+03</pdfrwt>
<totfact> 0.25493918E+04</totfact>
</mgrwt>
</event>
<event>
 5    1  0.7431090E-001  0.9021157E+02  0.7818608E-02  0.1302340E+00
          3   -1    0    0  501    0  0.00000000000E+00  0.00000000000E+00  0.19604361958E+03  0.19604364164E+03  0.93000000000E-01 0. -1.
         -3   -1    0    0    0  501 -0.00000000000E+00 -0.00000000000E+00 -0.10377724667E+02  0.10378141368E+02  0.93000000000E-01 0.  1.
         23    2    1    2    0    0  0.00000000000E+00  0.00000000000E+00  0.18566589491E+03  0.20642178301E+03  0.90211573347E+02 0.  0.
        -11    1    3    3    0    0  0.75673641282E+01 -0.32680416188E+02  0.16183097685E+03  0.16527110960E+03  0.51100000000E-03 0. -1.
         11    1    3    3    0    0 -0.75673641282E+01  0.32680416188E+02  0.23834918066E+02  0.41150673403E+02  0.51100000000E-03 0.  1.
<mgrwt>
<rscale>  0 0.90211573E+02</rscale>
<asrwt>0</asrwt>
<pdfrwt beam="1">  1        3 0.30160590E-01 0.90211573E+02</pdfrwt>
<pdfrwt beam="2">  1       -3 0.15966068E-02 0.90211573E+02</pdfrwt>
<totfact> 0.28988727E+04</totfact>
</mgrwt>
</event>
<event>
 5    1  0.7431090E-001  0.9141695E+02  0.7818608E-02  0.1299456E+00
         -3   -1    0    0    0  501 -0.00000000000E+00  0.00000000000E+00  0.68590303345E+02  0.68590366393E+02  0.93000000000E-01 0.  1.
          3   -1    0    0  501    0  0.00000000000E+00 -0.00000000000E+00 -0.30459908705E+02  0.30460050678E+02  0.93000000000E-01 0. -1.
         23    2    1    2    0    0  0.00000000000E+00  0.00000000000E+00  0.38130394640E+02  0.99050417071E+02  0.91416946605E+02 0.  0.
        -11    1    3    3    0    0 -0.10243409829E+02 -0.42452710973E+02  0.33686626926E+02  0.55153866118E+02  0.51100000000E-03 0.  1.
         11    1    3    3    0    0  0.10243409829E+02  0.42452710973E+02  0.44437677142E+01  0.43896550954E+02  0.51100000000E-03 0. -1.
<mgrwt>
<rscale>  0 0.91416947E+02</rscale>
<asrwt>0</asrwt>
<pdfrwt beam="2">  1        3 0.46861556E-02 0.91416947E+02</pdfrwt>
<pdfrwt beam="1">  1       -3 0.10552370E-01 0.91416947E+02</pdfrwt>
<totfact> 0.34494514E+04</totfact>
</mgrwt>
</event>
<event>
 5    1  0.7431090E-001  0.9747193E+02  0.7818608E-02  0.1285704E+00
         -3   -1    0    0    0  501 -0.00000000000E+00  0.00000000000E+00  0.17331352631E+02  0.17331602148E+02  0.93000000000E-01 0.  1.
          3   -1    0    0  501    0  0.00000000000E+00 -0.00000000000E+00 -0.13704484383E+03  0.13704487539E+03  0.93000000000E-01 0. -1.
         23    2    1    2    0    0  0.00000000000E+00  0.00000000000E+00 -0.11971349120E+03  0.15437647754E+03  0.97471928475E+02 0.  0.
        -11    1    3    3    0    0 -0.44348780191E+02  0.18119969190E+02 -0.74026850765E+02  0.88176653499E+02  0.51100000000E-03 0. -1.
         11    1    3    3    0    0  0.44348780191E+02 -0.18119969190E+02 -0.45686640436E+02  0.66199824037E+02  0.51100000000E-03 0.  1.
<mgrwt>
<rscale>  0 0.97471928E+02</rscale>
<asrwt>0</asrwt>
<pdfrwt beam="2">  1        3 0.21083843E-01 0.97471928E+02</pdfrwt>
<pdfrwt beam="1">  1       -3 0.26663837E-02 0.97471928E+02</pdfrwt>
<totfact> 0.25884700E+04</totfact>
</mgrwt>
</event>
<event>
 5    1  0.7431090E-001  0.9486131E+02  0.7818608E-02  0.1291489E+00
          3   -1    0    0  501    0  0.00000000000E+00  0.00000000000E+00  0.11475537746E+02  0.11475914585E+02  0.93000000000E-01 0. -1.
         -3   -1    0    0    0  501 -0.00000000000E+00 -0.00000000000E+00 -0.19603661017E+03  0.19603663223E+03  0.93000000000E-01 0.  1.
         23    2    1    2    0    0  0.00000000000E+00  0.00000000000E+00 -0.18456107242E+03  0.20751254681E+03  0.94861307346E+02 0.  0.
        -11    1    3    3    0    0  0.11921628564E+02  0.33457611369E+02 -0.16104471804E+03  0.16491494231E+03  0.51100000000E-03 0.  1.
         11    1    3    3    0    0 -0.11921628564E+02 -0.33457611369E+02 -0.23516354378E+02  0.42597604506E+02  0.51100000000E-03 0. -1.
<mgrwt>
<rscale>  0 0.94861307E+02</rscale>
<asrwt>0</asrwt>
<pdfrwt beam="1">  1        3 0.17654982E-02 0.94861307E+02</pdfrwt>
<pdfrwt beam="2">  1       -3 0.30159507E-01 0.94861307E+02</pdfrwt>
<totfact> 0.25254832E+04</totfact>
</mgrwt>
</event>
<event>
 5    1  0.7431090E-001  0.9098518E+02  0.7818608E-02  0.1300483E+00
         -3   -1    0    0    0  501 -0.00000000000E+00  0.00000000000E+00  0.10745358360E+02  0.10745760805E+02  0.93000000000E-01 0.  1.
          3   -1    0    0  501    0  0.00000000000E+00 -0.00000000000E+00 -0.19259781725E+03  0.19259783970E+03  0.93000000000E-01 0. -1.
         23    2    1    2    0    0  0.00000000000E+00  0.00000000000E+00 -0.18185245889E+03  0.20334360051E+03  0.90985180460E+02 0.  0.
        -11    1    3    3    0    0 -0.31628459358E+02  0.30689111539E+02 -0.65700970914E+02  0.79112569088E+02  0.51100000000E-03 0.  1.
         11    1    3    3    0    0  0.31628459358E+02 -0.30689111539E+02 -0.11615148798E+03  0.12423103142E+03  0.51100000000E-03 0. -1.
<mgrwt>
<rscale>  0 0.90985180E+02</rscale>
<asrwt>0</asrwt>
<pdfrwt beam="2">  1        3 0.29630464E-01 0.90985180E+02</pdfrwt>
<pdfrwt beam="1">  1       -3 0.16531649E-02 0.90985180E+02</pdfrwt>
<totfact> 0.28487947E+04</totfact>
</mgrwt>
</event>
<event>
 5    1  0.7431090E-001  0.8621630E+02  0.7818608E-02  0.1312282E+00
          3   -1    0    0  501    0  0.00000000000E+00  0.00000000000E+00  0.67733980582E+02  0.67734044428E+02  0.93000000000E-01 0. -1.
         -3   -1    0    0    0  501 -0.00000000000E+00 -0.00000000000E+00 -0.27435296689E+02  0.27435454313E+02  0.93000000000E-01 0.  1.
         23    2    1    2    0    0  0.00000000000E+00  0.00000000000E+00  0.40298683894E+02  0.95169498741E+02  0.86216295253E+02 0.  0.
        -11    1    3    3    0    0 -0.35453759747E+02 -0.20023484895E+02  0.45228702970E+01  0.40967857932E+02  0.51100000000E-03 0.  1.
         11    1    3    3    0    0  0.35453759747E+02  0.20023484895E+02  0.35775813597E+02  0.54201640809E+02  0.51100000000E-03 0. -1.
<mgrwt>
<rscale>  0 0.86216295E+02</rscale>
<asrwt>0</asrwt>
<pdfrwt beam="1">  1        3 0.10420629E-01 0.86216295E+02</pdfrwt>
<pdfrwt beam="2">  1       -3 0.42208320E-02 0.86216295E+02</pdfrwt>
<totfact> 0.40768725E+04</totfact>
</mgrwt>
</event>
<event>
 5    1  0.7431090E-001  0.9138155E+02  0.7818608E-02  0.1299540E+00
          3   -1    0    0  501    0  0.00000000000E+00  0.00000000000E+00  0.21733323798E+02  0.21733522778E+02  0.93000000000E-01 0. -1.
         -3   -1    0    0    0  501 -0.00000000000E+00 -0.00000000000E+00 -0.96056749093E+02  0.96056794114E+02  0.93000000000E-01 0.  1.
         23    2    1    2    0    0  0.00000000000E+00  0.00000000000E+00 -0.74323425295E+02  0.11779031689E+03  0.91381547403E+02 0.  0.
        -11    1    3    3    0    0  0.11319353755E+02 -0.17236702642E+02 -0.89717533259E+02  0.92056870801E+02  0.51100000000E-03 0.  1.
         11    1    3    3    0    0 -0.11319353755E+02  0.17236702642E+02  0.15394107964E+02  0.25733446090E+02  0.51100000000E-03 0. -1.
<mgrwt>
<rscale>  0 0.91381547E+02</rscale>
<asrwt>0</asrwt>
<pdfrwt beam="1">  1        3 0.33436071E-02 0.91381547E+02</pdfrwt>
<pdfrwt beam="2">  1       -3 0.14777980E-01 0.91381547E+02</pdfrwt>
<totfact> 0.33196598E+04</totfact>
</mgrwt>
</event>
<event>
 5    1  0.7431090E-001  0.9072607E+02  0.7818608E-02  0.1301103E+00
          3   -1    0    0  501    0  0.00000000000E+00  0.00000000000E+00  0.19277907736E+02  0.19278132059E+02  0.93000000000E-01 0. -1.
         -3   -1    0    0    0  501 -0.00000000000E+00 -0.00000000000E+00 -0.10674335001E+03  0.10674339052E+03  0.93000000000E-01 0.  1.
         23    2    1    2    0    0  0.00000000000E+00  0.00000000000E+00 -0.87465442270E+02  0.12602152258E+03  0.90726074319E+02 0.  0.
        -11    1    3    3    0    0 -0.26972467666E+02  0.36242613516E+02 -0.49419975357E+02  0.66958009312E+02  0.51100000000E-03 0.  1.
         11    1    3    3    0    0  0.26972467666E+02 -0.36242613516E+02 -0.38045466913E+02  0.59063513266E+02  0.51100000000E-03 0. -1.
<mgrwt>
<rscale>  0 0.90726074E+02</rscale>
<asrwt>0</asrwt>
<pdfrwt beam="1">  1        3 0.29658524E-02 0.90726074E+02</pdfrwt>
<pdfrwt beam="2">  1       -3 0.16422074E-01 0.90726074E+02</pdfrwt>
<totfact> 0.33285517E+04</totfact>
</mgrwt>
</event>
<event>
 5    1  0.7431090E-001  0.8881034E+02  0.7818608E-02  0.1305758E+00
          3   -1    0    0  501    0  0.00000000000E+00  0.00000000000E+00  0.18740980240E+02  0.18741210989E+02  0.93000000000E-01 0. -1.
         -3   -1    0    0    0  501 -0.00000000000E+00 -0.00000000000E+00 -0.10521340145E+03  0.10521344255E+03  0.93000000000E-01 0.  1.
         23    2    1    2    0    0  0.00000000000E+00  0.00000000000E+00 -0.86472421210E+02  0.12395465354E+03  0.88810340077E+02 0.  0.
        -11    1    3    3    0    0 -0.23988338730E+02 -0.37288624791E+02 -0.46637079201E+02  0.64349818107E+02  0.51100000000E-03 0. -1.
         11    1    3    3    0    0  0.23988338730E+02  0.37288624791E+02 -0.39835342010E+02  0.59604835434E+02  0.51100000000E-03 0.  1.
<mgrwt>
<rscale>  0 0.88810340E+02</rscale>
<asrwt>0</asrwt>
<pdfrwt beam="1">  1        3 0.28832487E-02 0.88810340E+02</pdfrwt>
<pdfrwt beam="2">  1       -3 0.16186698E-01 0.88810340E+02</pdfrwt>
<totfact> 0.35412759E+04</totfact>
</mgrwt>
</event>
<event>
 5    1  0.7431090E-001  0.9085079E+02  0.7818608E-02  0.1300804E+00
         -3   -1    0    0    0  501 -0.00000000000E+00  0.00000000000E+00  0.28857713440E+02  0.28857863295E+02  0.93000000000E-01 0.  1.
          3   -1    0    0  501    0  0.00000000000E+00 -0.00000000000E+00 -0.71504479471E+02  0.71504539950E+02  0.93000000000E-01 0. -1.
         23    2    1    2    0    0  0.00000000000E+00  0.00000000000E+00 -0.42646766032E+02  0.10036240325E+03  0.90850786084E+02 0.  0.
        -11    1    3    3    0    0  0.20690868755E+02 -0.17842950140E+02  0.18766290136E+02  0.33145988675E+02  0.51100000000E-03 0.  1.
         11    1    3    3    0    0 -0.20690868755E+02  0.17842950140E+02 -0.61413056168E+02  0.67216414570E+02  0.51100000000E-03 0. -1.
<mgrwt>
<rscale>  0 0.90850786E+02</rscale>
<asrwt>0</asrwt>
<pdfrwt beam="2">  1        3 0.11000705E-01 0.90850786E+02</pdfrwt>
<pdfrwt beam="1">  1       -3 0.44396644E-02 0.90850786E+02</pdfrwt>
<totfact> 0.34983510E+04</totfact>
</mgrwt>
</event>
<event>
 5    1  0.7431090E-001  0.9176217E+02  0.7818608E-02  0.1298640E+00
         -3   -1    0    0    0  501 -0.00000000000E+00  0.00000000000E+00  0.48420646916E+02  0.48420736227E+02  0.93000000000E-01 0.  1.
          3   -1    0    0  501    0  0.00000000000E+00 -0.00000000000E+00 -0.43474538310E+02  0.43474637782E+02  0.93000000000E-01 0. -1.
         23    2    1    2    0    0  0.00000000000E+00  0.00000000000E+00  0.49461086058E+01  0.91895374009E+02  0.91762169623E+02 0.  0.
        -11    1    3    3    0    0 -0.36730833497E+02 -0.25933430903E+02  0.11617408602E+02  0.46439865963E+02  0.51100000000E-03 0.  1.
         11    1    3    3    0    0  0.36730833497E+02  0.25933430903E+02 -0.66712999967E+01  0.45455508046E+02  0.51100000000E-03 0. -1.
<mgrwt>
<rscale>  0 0.91762170E+02</rscale>
<asrwt>0</asrwt>
<pdfrwt beam="2">  1        3 0.66884051E-02 0.91762170E+02</pdfrwt>
<pdfrwt beam="1">  1       -3 0.74493448E-02 0.91762170E+02</pdfrwt>
<totfact> 0.34672438E+04</totfact>
</mgrwt>
</event>
<event>
 5    1  0.7431090E-001  0.9062655E+02  0.7818608E-02  0.1301341E+00
          3   -1    0    0  501    0  0.00000000000E+00  0.00000000000E+00  0.14922488056E+02  0.14922777851E+02  0.93000000000E-01 0.  1.
         -3   -1    0    0    0  501 -0.00000000000E+00 -0.00000000000E+00 -0.13759557019E+03  0.13759560162E+03  0.93000000000E-01 0. -1.
         23    2    1    2    0    0  0.00000000000E+00  0.00000000000E+00 -0.12267308213E+03  0.15251837947E+03  0.90626546860E+02 0.  0.
        -11    1    3    3    0    0 -0.35617666325E+02  0.26610487116E+02 -0.46611450227E+02  0.64415553025E+02  0.51100000000E-03 0.  1.
         11    1    3    3    0    0  0.35617666325E+02 -0.26610487116E+02 -0.76061631904E+02  0.88102826443E+02  0.51100000000E-03 0. -1.
<mgrwt>
<rscale>  0 0.90626547E+02</rscale>
<asrwt>0</asrwt>
<pdfrwt beam="1">  1        3 0.22957922E-02 0.90626547E+02</pdfrwt>
<pdfrwt beam="2">  1       -3 0.21168573E-01 0.90626547E+02</pdfrwt>
<totfact> 0.31668913E+04</totfact>
</mgrwt>
</event>
<event>
 5    1  0.7431090E-001  0.8801061E+02  0.7818608E-02  0.1307742E+00
          3   -1    0    0  501    0  0.00000000000E+00  0.00000000000E+00  0.42933974600E+03  0.42933975607E+03  0.93000000000E-01 0. -1.
         -3   -1    0    0    0  501 -0.00000000000E+00 -0.00000000000E+00 -0.45098470932E+01  0.45108058930E+01  0.93000000000E-01 0.  1.
         23    2    1    2    0    0  0.00000000000E+00  0.00000000000E+00  0.42482989890E+03  0.43385056196E+03  0.88010607955E+02 0.  0.
        -11    1    3    3    0    0  0.12791718828E+02  0.41316803788E+02  0.25238985739E+03  0.25606902675E+03  0.51100000000E-03 0. -1.
         11    1    3    3    0    0 -0.12791718828E+02 -0.41316803788E+02  0.17244004151E+03  0.17778153521E+03  0.51100000000E-03 0.  1.
<mgrwt>
<rscale>  0 0.88010608E+02</rscale>
<asrwt>0</asrwt>
<pdfrwt beam="1">  1        3 0.66052366E-01 0.88010608E+02</pdfrwt>
<pdfrwt beam="2">  1       -3 0.69389692E-03 0.88010608E+02</pdfrwt>
<totfact> 0.21570016E+04</totfact>
</mgrwt>
</event>
<event>
 5    1  0.7431090E-001  0.9529844E+02  0.7818608E-02  0.1290505E+00
         -3   -1    0    0    0  501 -0.00000000000E+00  0.00000000000E+00  0.36741229415E+03  0.36741230593E+03  0.93000000000E-01 0.  1.
          3   -1    0    0  501    0  0.00000000000E+00 -0.00000000000E+00 -0.61792036564E+01  0.61799034642E+01  0.93000000000E-01 0. -1.
         23    2    1    2    0    0  0.00000000000E+00  0.00000000000E+00  0.36123309050E+03  0.37359220939E+03  0.95298443037E+02 0.  0.
        -11    1    3    3    0    0 -0.33637878932E+02 -0.32997673921E+02  0.15287000210E+03  0.15996746834E+03  0.51100000000E-03 0. -1.
         11    1    3    3    0    0  0.33637878932E+02  0.32997673921E+02  0.20836308839E+03  0.21362474105E+03  0.51100000000E-03 0.  1.
<mgrwt>
<rscale>  0 0.95298443E+02</rscale>
<asrwt>0</asrwt>
<pdfrwt beam="2">  1        3 0.95070154E-03 0.95298443E+02</pdfrwt>
<pdfrwt beam="1">  1       -3 0.56525018E-01 0.95298443E+02</pdfrwt>
<totfact> 0.19025032E+04</totfact>
</mgrwt>
</event>
<event>
 5    1  0.7431090E-001  0.7914518E+02  0.7818608E-02  0.1331495E+00
          3   -1    0    0  501    0  0.00000000000E+00  0.00000000000E+00  0.64972993414E+02  0.64973059972E+02  0.93000000000E-01 0. -1.
         -3   -1    0    0    0  501 -0.00000000000E+00 -0.00000000000E+00 -0.24101994554E+02  0.24102173978E+02  0.93000000000E-01 0.  1.
         23    2    1    2    0    0  0.00000000000E+00  0.00000000000E+00  0.40870998860E+02  0.89075233951E+02  0.79145175188E+02 0.  0.
        -11    1    3    3    0    0 -0.35906802269E+02 -0.20363632959E+01  0.18552641399E+01  0.36012320530E+02  0.51100000000E-03 0.  1.
         11    1    3    3    0    0  0.35906802269E+02  0.20363632959E+01  0.39015734720E+02  0.53062913421E+02  0.51100000000E-03 0. -1.
<mgrwt>
<rscale>  0 0.79145175E+02</rscale>
<asrwt>0</asrwt>
<pdfrwt beam="1">  1        3 0.99958639E-02 0.79145175E+02</pdfrwt>
<pdfrwt beam="2">  1       -3 0.37080181E-02 0.79145175E+02</pdfrwt>
<totfact> 0.52016808E+04</totfact>
</mgrwt>
</event>
<event>
 5    1  0.7431090E-001  0.8597564E+02  0.7818608E-02  0.1312901E+00
         -3   -1    0    0    0  501 -0.00000000000E+00  0.00000000000E+00  0.18338237509E+02  0.18338473327E+02  0.93000000000E-01 0.  1.
          3   -1    0    0  501    0  0.00000000000E+00 -0.00000000000E+00 -0.10076955372E+03  0.10076959664E+03  0.93000000000E-01 0. -1.
         23    2    1    2    0    0  0.00000000000E+00  0.00000000000E+00 -0.82431316212E+02  0.11910806996E+03  0.85975638630E+02 0.  0.
        -11    1    3    3    0    0  0.22407557603E+02 -0.27096836318E+02 -0.75477049380E+02  0.83265371911E+02  0.51100000000E-03 0. -1.
         11    1    3    3    0    0 -0.22407557603E+02  0.27096836318E+02 -0.69542668316E+01  0.35842698051E+02  0.51100000000E-03 0.  1.
<mgrwt>
<rscale>  0 0.85975639E+02</rscale>
<asrwt>0</asrwt>
<pdfrwt beam="2">  1        3 0.15503029E-01 0.85975639E+02</pdfrwt>
<pdfrwt beam="1">  1       -3 0.28212888E-02 0.85975639E+02</pdfrwt>
<totfact> 0.39037747E+04</totfact>
</mgrwt>
</event>
<event>
 5    1  0.7431090E-001  0.9022914E+02  0.7818608E-02  0.1302298E+00
          3   -1    0    0  501    0  0.00000000000E+00  0.00000000000E+00  0.32616621970E+03  0.32616623296E+03  0.93000000000E-01 0. -1.
         -3   -1    0    0    0  501 -0.00000000000E+00 -0.00000000000E+00 -0.62397850363E+01  0.62404780505E+01  0.93000000000E-01 0.  1.
         23    2    1    2    0    0  0.00000000000E+00  0.00000000000E+00  0.31992643467E+03  0.33240671101E+03  0.90229141231E+02 0.  0.
        -11    1    3    3    0    0 -0.27132831871E+02  0.30378129134E+02  0.23142797202E+03  0.23498495171E+03  0.51100000000E-03 0. -1.
         11    1    3    3    0    0  0.27132831871E+02 -0.30378129134E+02  0.88498462645E+02  0.97421759304E+02  0.51100000000E-03 0.  1.
<mgrwt>
<rscale>  0 0.90229141E+02</rscale>
<asrwt>0</asrwt>
<pdfrwt beam="1">  1        3 0.50179477E-01 0.90229141E+02</pdfrwt>
<pdfrwt beam="2">  1       -3 0.96002118E-03 0.90229141E+02</pdfrwt>
<totfact> 0.23476724E+04</totfact>
</mgrwt>
</event>
<event>
 5    1  0.7431090E-001  0.9090785E+02  0.7818608E-02  0.1300668E+00
         -3   -1    0    0    0  501 -0.00000000000E+00  0.00000000000E+00  0.81655973716E+02  0.81656026676E+02  0.93000000000E-01 0.  1.
          3   -1    0    0  501    0  0.00000000000E+00 -0.00000000000E+00 -0.25301853515E+02  0.25302024431E+02  0.93000000000E-01 0. -1.
         23    2    1    2    0    0  0.00000000000E+00  0.00000000000E+00  0.56354120201E+02  0.10695805111E+03  0.90907853527E+02 0.  0.
        -11    1    3    3    0    0 -0.17403024452E+02 -0.11918964235E+02 -0.19194897543E+02  0.28519660946E+02  0.51100000000E-03 0. -1.
         11    1    3    3    0    0  0.17403024452E+02  0.11918964235E+02  0.75549017745E+02  0.78438390161E+02  0.51100000000E-03 0.  1.
<mgrwt>
<rscale>  0 0.90907854E+02</rscale>
<asrwt>0</asrwt>
<pdfrwt beam="2">  1        3 0.38926101E-02 0.90907854E+02</pdfrwt>
<pdfrwt beam="1">  1       -3 0.12562475E-01 0.90907854E+02</pdfrwt>
<totfact> 0.34439910E+04</totfact>
</mgrwt>
</event>
<event>
 5    1  0.7431090E-001  0.9072194E+02  0.7818608E-02  0.1301113E+00
         -3   -1    0    0    0  501 -0.00000000000E+00  0.00000000000E+00  0.17759321068E+02  0.17759564572E+02  0.93000000000E-01 0.  1.
          3   -1    0    0  501    0  0.00000000000E+00 -0.00000000000E+00 -0.11586022571E+03  0.11586026304E+03  0.93000000000E-01 0. -1.
         23    2    1    2    0    0  0.00000000000E+00  0.00000000000E+00 -0.98100904645E+02  0.13361982761E+03  0.90721942431E+02 0.  0.
        -11    1    3    3    0    0  0.39568415478E+02  0.18421563375E+02 -0.30855881221E+02  0.53451837264E+02  0.51100000000E-03 0.  1.
         11    1    3    3    0    0 -0.39568415478E+02 -0.18421563375E+02 -0.67245023424E+02  0.80167990347E+02  0.51100000000E-03 0. -1.
<mgrwt>
<rscale>  0 0.90721942E+02</rscale>
<asrwt>0</asrwt>
<pdfrwt beam="2">  1        3 0.17824671E-01 0.90721942E+02</pdfrwt>
<pdfrwt beam="1">  1       -3 0.27322249E-02 0.90721942E+02</pdfrwt>
<totfact> 0.32780524E+04</totfact>
</mgrwt>
</event>
<event>
 5    1  0.7431090E-001  0.9105576E+02  0.7818608E-02  0.1300315E+00
         -3   -1    0    0    0  501 -0.00000000000E+00  0.00000000000E+00  0.91540464608E+01  0.91545188627E+01  0.93000000000E-01 0.  1.
          3   -1    0    0  501    0  0.00000000000E+00 -0.00000000000E+00 -0.22642773052E+03  0.22642774962E+03  0.93000000000E-01 0. -1.
         23    2    1    2    0    0  0.00000000000E+00  0.00000000000E+00 -0.21727368406E+03  0.23558226848E+03  0.91055760049E+02 0.  0.
        -11    1    3    3    0    0  0.44999833443E+02 -0.18322644047E+01 -0.12588528268E+03  0.13369908974E+03  0.51100000000E-03 0. -1.
         11    1    3    3    0    0 -0.44999833443E+02  0.18322644047E+01 -0.91388401382E+02  0.10188317874E+03  0.51100000000E-03 0.  1.
<mgrwt>
<rscale>  0 0.91055760E+02</rscale>
<asrwt>0</asrwt>
<pdfrwt beam="2">  1        3 0.34835069E-01 0.91055760E+02</pdfrwt>
<pdfrwt beam="1">  1       -3 0.14083528E-02 0.91055760E+02</pdfrwt>
<totfact> 0.26853809E+04</totfact>
</mgrwt>
</event>
<event>
 5    1  0.7431090E-001  0.9273442E+02  0.7818608E-02  0.1296362E+00
          3   -1    0    0  501    0  0.00000000000E+00  0.00000000000E+00  0.20801399026E+02  0.20801606919E+02  0.93000000000E-01 0. -1.
         -3   -1    0    0    0  501 -0.00000000000E+00 -0.00000000000E+00 -0.10335375868E+03  0.10335380052E+03  0.93000000000E-01 0.  1.
         23    2    1    2    0    0  0.00000000000E+00  0.00000000000E+00 -0.82552359650E+02  0.12415540744E+03  0.92734422476E+02 0.  0.
        -11    1    3    3    0    0  0.64537796368E+01 -0.36722595300E+02 -0.43740972684E+01  0.37541084219E+02  0.51100000000E-03 0. -1.
         11    1    3    3    0    0 -0.64537796368E+01  0.36722595300E+02 -0.78178262381E+02  0.86614323217E+02  0.51100000000E-03 0.  1.
<mgrwt>
<rscale>  0 0.92734422E+02</rscale>
<asrwt>0</asrwt>
<pdfrwt beam="1">  1        3 0.32002345E-02 0.92734422E+02</pdfrwt>
<pdfrwt beam="2">  1       -3 0.15900597E-01 0.92734422E+02</pdfrwt>
<totfact> 0.31480742E+04</totfact>
</mgrwt>
</event>
<event>
 5    1  0.7431090E-001  0.9198383E+02  0.7818608E-02  0.1298117E+00
          3   -1    0    0  501    0  0.00000000000E+00  0.00000000000E+00  0.11831448376E+02  0.11831813879E+02  0.93000000000E-01 0. -1.
         -3   -1    0    0    0  501 -0.00000000000E+00 -0.00000000000E+00 -0.17877940498E+03  0.17877942917E+03  0.93000000000E-01 0.  1.
         23    2    1    2    0    0  0.00000000000E+00  0.00000000000E+00 -0.16694795660E+03  0.19061124304E+03  0.91983834242E+02 0.  0.
        -11    1    3    3    0    0 -0.32593151798E+02  0.13976083629E+02 -0.14415912764E+03  0.14845705958E+03  0.51100000000E-03 0.  1.
         11    1    3    3    0    0  0.32593151798E+02 -0.13976083629E+02 -0.22788828962E+02  0.42154183463E+02  0.51100000000E-03 0. -1.
<mgrwt>
<rscale>  0 0.91983834E+02</rscale>
<asrwt>0</asrwt>
<pdfrwt beam="1">  1        3 0.18202529E-02 0.91983834E+02</pdfrwt>
<pdfrwt beam="2">  1       -3 0.27504552E-01 0.91983834E+02</pdfrwt>
<totfact> 0.28307795E+04</totfact>
</mgrwt>
</event>
<event>
 5    1  0.7431090E-001  0.8869321E+02  0.7818608E-02  0.1306047E+00
          3   -1    0    0  501    0  0.00000000000E+00  0.00000000000E+00  0.55714068018E+02  0.55714145637E+02  0.93000000000E-01 0. -1.
         -3   -1    0    0    0  501 -0.00000000000E+00 -0.00000000000E+00 -0.35298304303E+02  0.35298426816E+02  0.93000000000E-01 0.  1.
         23    2    1    2    0    0  0.00000000000E+00  0.00000000000E+00  0.20415763715E+02  0.91012572453E+02  0.88693206823E+02 0.  0.
        -11    1    3    3    0    0 -0.56978661102E+01  0.43103456553E+02  0.12475501075E+01  0.43496321989E+02  0.51100000000E-03 0.  1.
         11    1    3    3    0    0  0.56978661102E+01 -0.43103456553E+02  0.19168213608E+02  0.47516250464E+02  0.51100000000E-03 0. -1.
<mgrwt>
<rscale>  0 0.88693207E+02</rscale>
<asrwt>0</asrwt>
<pdfrwt beam="1">  1        3 0.85714105E-02 0.88693207E+02</pdfrwt>
<pdfrwt beam="2">  1       -3 0.54305238E-02 0.88693207E+02</pdfrwt>
<totfact> 0.38105030E+04</totfact>
</mgrwt>
</event>
<event>
 5    1  0.7431090E-001  0.9145353E+02  0.7818608E-02  0.1299369E+00
         -3   -1    0    0    0  501 -0.00000000000E+00  0.00000000000E+00  0.17636394367E+02  0.17636639569E+02  0.93000000000E-01 0.  1.
          3   -1    0    0  501    0  0.00000000000E+00 -0.00000000000E+00 -0.11855700226E+03  0.11855703873E+03  0.93000000000E-01 0. -1.
         23    2    1    2    0    0  0.00000000000E+00  0.00000000000E+00 -0.10092060789E+03  0.13619367830E+03  0.91453534171E+02 0.  0.
        -11    1    3    3    0    0 -0.24567518389E+02 -0.22759132933E+01 -0.10779388293E+03  0.11058148099E+03  0.51100000000E-03 0. -1.
         11    1    3    3    0    0  0.24567518389E+02  0.22759132933E+01  0.68732750375E+01  0.25612197312E+02  0.51100000000E-03 0.  1.
<mgrwt>
<rscale>  0 0.91453534E+02</rscale>
<asrwt>0</asrwt>
<pdfrwt beam="2">  1        3 0.18239560E-01 0.91453534E+02</pdfrwt>
<pdfrwt beam="1">  1       -3 0.27133132E-02 0.91453534E+02</pdfrwt>
<totfact> 0.31909441E+04</totfact>
</mgrwt>
</event>
<event>
 5    1  0.7431090E-001  0.9358059E+02  0.7818608E-02  0.1294405E+00
          3   -1    0    0  501    0  0.00000000000E+00  0.00000000000E+00  0.40736770005E+02  0.40736876162E+02  0.93000000000E-01 0. -1.
         -3   -1    0    0    0  501 -0.00000000000E+00 -0.00000000000E+00 -0.53743164454E+02  0.53743244920E+02  0.93000000000E-01 0.  1.
         23    2    1    2    0    0  0.00000000000E+00  0.00000000000E+00 -0.13006394449E+02  0.94480121082E+02  0.93580590847E+02 0.  0.
        -11    1    3    3    0    0 -0.82169184447E+01 -0.94282672805E+01  0.39018137966E+02  0.40973467796E+02  0.51100000000E-03 0. -1.
         11    1    3    3    0    0  0.82169184447E+01  0.94282672805E+01 -0.52024532415E+02  0.53506653286E+02  0.51100000000E-03 0.  1.
<mgrwt>
<rscale>  0 0.93580591E+02</rscale>
<asrwt>0</asrwt>
<pdfrwt beam="1">  1        3 0.62672097E-02 0.93580591E+02</pdfrwt>
<pdfrwt beam="2">  1       -3 0.82681935E-02 0.93580591E+02</pdfrwt>
<totfact> 0.32679085E+04</totfact>
</mgrwt>
</event>
<event>
 5    1  0.7431090E-001  0.9183600E+02  0.7818608E-02  0.1298466E+00
         -3   -1    0    0    0  501 -0.00000000000E+00  0.00000000000E+00  0.10354504157E+03  0.10354508334E+03  0.93000000000E-01 0.  1.
          3   -1    0    0  501    0  0.00000000000E+00 -0.00000000000E+00 -0.20362605477E+02  0.20362817851E+02  0.93000000000E-01 0. -1.
         23    2    1    2    0    0  0.00000000000E+00  0.00000000000E+00  0.83182436096E+02  0.12390790119E+03  0.91835996767E+02 0.  0.
        -11    1    3    3    0    0  0.30058824192E+02 -0.33867686613E+02  0.31323809567E+02  0.55061185551E+02  0.51100000000E-03 0.  1.
         11    1    3    3    0    0 -0.30058824192E+02  0.33867686613E+02  0.51858626530E+02  0.68846715638E+02  0.51100000000E-03 0. -1.
<mgrwt>
<rscale>  0 0.91835997E+02</rscale>
<asrwt>0</asrwt>
<pdfrwt beam="2">  1        3 0.31327280E-02 0.91835997E+02</pdfrwt>
<pdfrwt beam="1">  1       -3 0.15930026E-01 0.91835997E+02</pdfrwt>
<totfact> 0.32342745E+04</totfact>
</mgrwt>
</event>
<event>
 5    1  0.7431090E-001  0.9210354E+02  0.7818608E-02  0.1297836E+00
         -3   -1    0    0    0  501 -0.00000000000E+00  0.00000000000E+00  0.24851498062E+03  0.24851499802E+03  0.93000000000E-01 0.  1.
          3   -1    0    0  501    0  0.00000000000E+00 -0.00000000000E+00 -0.85334823359E+01  0.85339890893E+01  0.93000000000E-01 0. -1.
         23    2    1    2    0    0  0.00000000000E+00  0.00000000000E+00  0.23998149828E+03  0.25704898711E+03  0.92103540952E+02 0.  0.
        -11    1    3    3    0    0 -0.23665368118E+02  0.34085499389E+02  0.17573096855E+03  0.18056368468E+03  0.51100000000E-03 0.  1.
         11    1    3    3    0    0  0.23665368118E+02 -0.34085499389E+02  0.64250529731E+02  0.76485302429E+02  0.51100000000E-03 0. -1.
<mgrwt>
<rscale>  0 0.92103541E+02</rscale>
<asrwt>0</asrwt>
<pdfrwt beam="2">  1        3 0.13128838E-02 0.92103541E+02</pdfrwt>
<pdfrwt beam="1">  1       -3 0.38233113E-01 0.92103541E+02</pdfrwt>
<totfact> 0.25095913E+04</totfact>
</mgrwt>
</event>
<event>
 5    1  0.7431090E-001  0.7831271E+02  0.7818608E-02  0.1333909E+00
          3   -1    0    0  501    0  0.00000000000E+00  0.00000000000E+00  0.13093618084E+02  0.13093948355E+02  0.93000000000E-01 0. -1.
         -3   -1    0    0    0  501 -0.00000000000E+00 -0.00000000000E+00 -0.11709491132E+03  0.11709494825E+03  0.93000000000E-01 0.  1.
         23    2    1    2    0    0  0.00000000000E+00  0.00000000000E+00 -0.10400129323E+03  0.13018889660E+03  0.78312705258E+02 0.  0.
        -11    1    3    3    0    0  0.68832320422E+01 -0.20842352768E+02  0.19048969643E+01  0.22032049042E+02  0.51100000000E-03 0. -1.
         11    1    3    3    0    0 -0.68832320422E+01  0.20842352768E+02 -0.10590619020E+03  0.10815684756E+03  0.51100000000E-03 0.  1.
<mgrwt>
<rscale>  0 0.78312705E+02</rscale>
<asrwt>0</asrwt>
<pdfrwt beam="1">  1        3 0.20144311E-02 0.78312705E+02</pdfrwt>
<pdfrwt beam="2">  1       -3 0.18014629E-01 0.78312705E+02</pdfrwt>
<totfact> 0.48996961E+04</totfact>
</mgrwt>
</event>
<event>
 5    1  0.7431090E-001  0.9182378E+02  0.7818608E-02  0.1298494E+00
          3   -1    0    0  501    0  0.00000000000E+00  0.00000000000E+00  0.12034247891E+02  0.12034607235E+02  0.93000000000E-01 0. -1.
         -3   -1    0    0    0  501 -0.00000000000E+00 -0.00000000000E+00 -0.17515557553E+03  0.17515560022E+03  0.93000000000E-01 0.  1.
         23    2    1    2    0    0  0.00000000000E+00  0.00000000000E+00 -0.16312132764E+03  0.18719020746E+03  0.91823778165E+02 0.  0.
        -11    1    3    3    0    0 -0.30904499082E+02 -0.28396938028E+02 -0.11950387547E+03  0.12665958474E+03  0.51100000000E-03 0.  1.
         11    1    3    3    0    0  0.30904499082E+02  0.28396938028E+02 -0.43617452171E+02  0.60530622721E+02  0.51100000000E-03 0. -1.
<mgrwt>
<rscale>  0 0.91823778E+02</rscale>
<asrwt>0</asrwt>
<pdfrwt beam="1">  1        3 0.18514524E-02 0.91823778E+02</pdfrwt>
<pdfrwt beam="2">  1       -3 0.26947039E-01 0.91823778E+02</pdfrwt>
<totfact> 0.28621312E+04</totfact>
</mgrwt>
</event>
<event>
 5    1  0.7431090E-001  0.8914595E+02  0.7818608E-02  0.1304933E+00
         -3   -1    0    0    0  501 -0.00000000000E+00  0.00000000000E+00  0.14713874324E+02  0.14714168228E+02  0.93000000000E-01 0.  1.
          3   -1    0    0  501    0  0.00000000000E+00 -0.00000000000E+00 -0.13502396206E+03  0.13502399409E+03  0.93000000000E-01 0. -1.
         23    2    1    2    0    0  0.00000000000E+00  0.00000000000E+00 -0.12031008774E+03  0.14973816232E+03  0.89145947988E+02 0.  0.
        -11    1    3    3    0    0  0.36107686101E+02 -0.17200310403E+02 -0.93204303707E+02  0.10142316256E+03  0.51100000000E-03 0. -1.
         11    1    3    3    0    0 -0.36107686101E+02  0.17200310403E+02 -0.27105784031E+02  0.48314999759E+02  0.51100000000E-03 0.  1.
<mgrwt>
<rscale>  0 0.89145948E+02</rscale>
<asrwt>0</asrwt>
<pdfrwt beam="2">  1        3 0.20772941E-01 0.89145948E+02</pdfrwt>
<pdfrwt beam="1">  1       -3 0.22636981E-02 0.89145948E+02</pdfrwt>
<totfact> 0.33287755E+04</totfact>
</mgrwt>
</event>
<event>
 5    1  0.7431090E-001  0.9202652E+02  0.7818608E-02  0.1298017E+00
         -3   -1    0    0    0  501 -0.00000000000E+00  0.00000000000E+00  0.60425950991E+01  0.60433107261E+01  0.93000000000E-01 0.  1.
          3   -1    0    0  501    0  0.00000000000E+00 -0.00000000000E+00 -0.35036110044E+03  0.35036111278E+03  0.93000000000E-01 0. -1.
         23    2    1    2    0    0  0.00000000000E+00  0.00000000000E+00 -0.34431850534E+03  0.35640442350E+03  0.92026517790E+02 0.  0.
        -11    1    3    3    0    0 -0.36318203766E+02  0.24060880857E+02 -0.22950902116E+03  0.23360721031E+03  0.51100000000E-03 0. -1.
         11    1    3    3    0    0  0.36318203766E+02 -0.24060880857E+02 -0.11480948417E+03  0.12279721320E+03  0.51100000000E-03 0.  1.
<mgrwt>
<rscale>  0 0.92026518E+02</rscale>
<asrwt>0</asrwt>
<pdfrwt beam="2">  1        3 0.53901748E-01 0.92026518E+02</pdfrwt>
<pdfrwt beam="1">  1       -3 0.92968629E-03 0.92026518E+02</pdfrwt>
<totfact> 0.21460259E+04</totfact>
</mgrwt>
</event>
<event>
 5    1  0.7431090E-001  0.9116131E+02  0.7818608E-02  0.1300064E+00
          3   -1    0    0  501    0  0.00000000000E+00  0.00000000000E+00  0.19673416270E+02  0.19673636083E+02  0.93000000000E-01 0. -1.
         -3   -1    0    0    0  501 -0.00000000000E+00 -0.00000000000E+00 -0.10560340251E+03  0.10560344346E+03  0.93000000000E-01 0.  1.
         23    2    1    2    0    0  0.00000000000E+00  0.00000000000E+00 -0.85929986243E+02  0.12527707955E+03  0.91161308262E+02 0.  0.
        -11    1    3    3    0    0  0.24868262032E+02  0.32339705099E+02 -0.70903199945E+02  0.81801899397E+02  0.51100000000E-03 0.  1.
         11    1    3    3    0    0 -0.24868262032E+02 -0.32339705099E+02 -0.15026786298E+02  0.43475180150E+02  0.51100000000E-03 0. -1.
<mgrwt>
<rscale>  0 0.91161308E+02</rscale>
<asrwt>0</asrwt>
<pdfrwt beam="1">  1        3 0.30266995E-02 0.91161308E+02</pdfrwt>
<pdfrwt beam="2">  1       -3 0.16246697E-01 0.91161308E+02</pdfrwt>
<totfact> 0.32906147E+04</totfact>
</mgrwt>
</event>
<event>
 5    1  0.7431090E-001  0.9288088E+02  0.7818608E-02  0.1296021E+00
          3   -1    0    0  501    0  0.00000000000E+00  0.00000000000E+00  0.68153632273E+01  0.68159977201E+01  0.93000000000E-01 0. -1.
         -3   -1    0    0    0  501 -0.00000000000E+00 -0.00000000000E+00 -0.31643358455E+03  0.31643359822E+03  0.93000000000E-01 0.  1.
         23    2    1    2    0    0  0.00000000000E+00  0.00000000000E+00 -0.30961822132E+03  0.32324959594E+03  0.92880882307E+02 0.  0.
        -11    1    3    3    0    0  0.13266929840E+02  0.44435576598E+02 -0.16346277446E+03  0.16991353839E+03  0.51100000000E-03 0.  1.
         11    1    3    3    0    0 -0.13266929840E+02 -0.44435576598E+02 -0.14615544687E+03  0.15333605755E+03  0.51100000000E-03 0. -1.
<mgrwt>
<rscale>  0 0.92880882E+02</rscale>
<asrwt>0</asrwt>
<pdfrwt beam="1">  1        3 0.10485675E-02 0.92880882E+02</pdfrwt>
<pdfrwt beam="2">  1       -3 0.48682128E-01 0.92880882E+02</pdfrwt>
<totfact> 0.22025432E+04</totfact>
</mgrwt>
</event>
<event>
 5    1  0.7431090E-001  0.9164758E+02  0.7818608E-02  0.1298910E+00
          3   -1    0    0  501    0  0.00000000000E+00  0.00000000000E+00  0.23958522799E+02  0.23958703298E+02  0.93000000000E-01 0. -1.
         -3   -1    0    0    0  501 -0.00000000000E+00 -0.00000000000E+00 -0.87643414565E+02  0.87643463907E+02  0.93000000000E-01 0.  1.
         23    2    1    2    0    0  0.00000000000E+00  0.00000000000E+00 -0.63684891765E+02  0.11160216720E+03  0.91647576540E+02 0.  0.
        -11    1    3    3    0    0 -0.17280674528E+02  0.34938552172E+02 -0.61181833573E+02  0.72543372541E+02  0.51100000000E-03 0.  1.
         11    1    3    3    0    0  0.17280674528E+02 -0.34938552172E+02 -0.25030581923E+01  0.39058794664E+02  0.51100000000E-03 0. -1.
<mgrwt>
<rscale>  0 0.91647577E+02</rscale>
<asrwt>0</asrwt>
<pdfrwt beam="1">  1        3 0.36859443E-02 0.91647577E+02</pdfrwt>
<pdfrwt beam="2">  1       -3 0.13483620E-01 0.91647577E+02</pdfrwt>
<totfact> 0.33361361E+04</totfact>
</mgrwt>
</event>
<event>
 5    1  0.7431090E-001  0.9323280E+02  0.7818608E-02  0.1295207E+00
         -3   -1    0    0    0  501 -0.00000000000E+00  0.00000000000E+00  0.51395086066E+02  0.51395170209E+02  0.93000000000E-01 0.  1.
          3   -1    0    0  501    0  0.00000000000E+00 -0.00000000000E+00 -0.42281862134E+02  0.42281964412E+02  0.93000000000E-01 0. -1.
         23    2    1    2    0    0  0.00000000000E+00  0.00000000000E+00  0.91132239321E+01  0.93677134621E+02  0.93232798415E+02 0.  0.
        -11    1    3    3    0    0 -0.32364332841E+02 -0.27348008383E+02  0.24084387959E+02  0.48738294456E+02  0.51100000000E-03 0.  1.
         11    1    3    3    0    0  0.32364332841E+02  0.27348008383E+02 -0.14971164027E+02  0.44938840165E+02  0.51100000000E-03 0. -1.
<mgrwt>
<rscale>  0 0.93232798E+02</rscale>
<asrwt>0</asrwt>
<pdfrwt beam="2">  1        3 0.65049162E-02 0.93232798E+02</pdfrwt>
<pdfrwt beam="1">  1       -3 0.79069507E-02 0.93232798E+02</pdfrwt>
<totfact> 0.33070428E+04</totfact>
</mgrwt>
</event>
<event>
 5    1  0.7431090E-001  0.9171571E+02  0.7818608E-02  0.1298749E+00
          3   -1    0    0  501    0  0.00000000000E+00  0.00000000000E+00  0.50077974050E+02  0.50078060405E+02  0.93000000000E-01 0. -1.
         -3   -1    0    0    0  501 -0.00000000000E+00 -0.00000000000E+00 -0.41993198928E+02  0.41993301909E+02  0.93000000000E-01 0.  1.
         23    2    1    2    0    0  0.00000000000E+00  0.00000000000E+00  0.80847751220E+01  0.92071362314E+02  0.91715713864E+02 0.  0.
        -11    1    3    3    0    0 -0.28663713287E+02  0.47742172486E+01 -0.31571105887E+02  0.42908464631E+02  0.51100000000E-03 0.  1.
         11    1    3    3    0    0  0.28663713287E+02 -0.47742172486E+01  0.39655881009E+02  0.49162897684E+02  0.51100000000E-03 0. -1.
<mgrwt>
<rscale>  0 0.91715714E+02</rscale>
<asrwt>0</asrwt>
<pdfrwt beam="1">  1        3 0.77043183E-02 0.91715714E+02</pdfrwt>
<pdfrwt beam="2">  1       -3 0.64605067E-02 0.91715714E+02</pdfrwt>
<totfact> 0.34707111E+04</totfact>
</mgrwt>
</event>
<event>
 5    1  0.7431090E-001  0.8954821E+02  0.7818608E-02  0.1303949E+00
         -3   -1    0    0    0  501 -0.00000000000E+00  0.00000000000E+00  0.46172731561E+02  0.46172825220E+02  0.93000000000E-01 0.  1.
          3   -1    0    0  501    0  0.00000000000E+00 -0.00000000000E+00 -0.43417652294E+02  0.43417751896E+02  0.93000000000E-01 0. -1.
         23    2    1    2    0    0  0.00000000000E+00  0.00000000000E+00  0.27550792677E+01  0.89590577116E+02  0.89548205154E+02 0.  0.
        -11    1    3    3    0    0  0.31244912534E+02 -0.18216243377E+02  0.27784046489E+02  0.45607338462E+02  0.51100000000E-03 0.  1.
         11    1    3    3    0    0 -0.31244912534E+02  0.18216243377E+02 -0.25028967222E+02  0.43983238654E+02  0.51100000000E-03 0. -1.
<mgrwt>
<rscale>  0 0.89548205E+02</rscale>
<asrwt>0</asrwt>
<pdfrwt beam="2">  1        3 0.66796537E-02 0.89548205E+02</pdfrwt>
<pdfrwt beam="1">  1       -3 0.71035120E-02 0.89548205E+02</pdfrwt>
<totfact> 0.37241996E+04</totfact>
</mgrwt>
</event>
<event>
 5    1  0.7431090E-001  0.8987812E+02  0.7818608E-02  0.1303147E+00
          3   -1    0    0  501    0  0.00000000000E+00  0.00000000000E+00  0.10666935512E+02  0.10667340915E+02  0.93000000000E-01 0. -1.
         -3   -1    0    0    0  501 -0.00000000000E+00 -0.00000000000E+00 -0.18932112532E+03  0.18932114816E+03  0.93000000000E-01 0.  1.
         23    2    1    2    0    0  0.00000000000E+00  0.00000000000E+00 -0.17865418981E+03  0.19998848908E+03  0.89878118735E+02 0.  0.
        -11    1    3    3    0    0 -0.56210431851E+01  0.37081612122E+02 -0.34241546450E+02  0.50785092179E+02  0.51100000000E-03 0. -1.
         11    1    3    3    0    0  0.56210431851E+01 -0.37081612122E+02 -0.14441264336E+03  0.14920339690E+03  0.51100000000E-03 0.  1.
<mgrwt>
<rscale>  0 0.89878119E+02</rscale>
<asrwt>0</asrwt>
<pdfrwt beam="1">  1        3 0.16411001E-02 0.89878119E+02</pdfrwt>
<pdfrwt beam="2">  1       -3 0.29126357E-01 0.89878119E+02</pdfrwt>
<totfact> 0.29620150E+04</totfact>
</mgrwt>
</event>
<event>
 5    1  0.7431090E-001  0.9140965E+02  0.7818608E-02  0.1299473E+00
         -3   -1    0    0    0  501 -0.00000000000E+00  0.00000000000E+00  0.62613451056E+02  0.62613520123E+02  0.93000000000E-01 0.  1.
          3   -1    0    0  501    0  0.00000000000E+00 -0.00000000000E+00 -0.33362187544E+02  0.33362317167E+02  0.93000000000E-01 0. -1.
         23    2    1    2    0    0  0.00000000000E+00  0.00000000000E+00  0.29251263512E+02  0.95975837289E+02  0.91409654448E+02 0.  0.
        -11    1    3    3    0    0  0.17157807758E+02  0.57512685430E+01 -0.29440679775E+02  0.34557504001E+02  0.51100000000E-03 0. -1.
         11    1    3    3    0    0 -0.17157807758E+02 -0.57512685430E+01  0.58691943287E+02  0.61418333288E+02  0.51100000000E-03 0.  1.
<mgrwt>
<rscale>  0 0.91409654E+02</rscale>
<asrwt>0</asrwt>
<pdfrwt beam="2">  1        3 0.51326596E-02 0.91409654E+02</pdfrwt>
<pdfrwt beam="1">  1       -3 0.96328538E-02 0.91409654E+02</pdfrwt>
<totfact> 0.34730896E+04</totfact>
</mgrwt>
</event>
<event>
 5    1  0.7431090E-001  0.8903937E+02  0.7818608E-02  0.1305195E+00
         -3   -1    0    0    0  501 -0.00000000000E+00  0.00000000000E+00  0.66140753138E+02  0.66140818521E+02  0.93000000000E-01 0.  1.
          3   -1    0    0  501    0  0.00000000000E+00 -0.00000000000E+00 -0.29966275967E+02  0.29966420279E+02  0.93000000000E-01 0. -1.
         23    2    1    2    0    0  0.00000000000E+00  0.00000000000E+00  0.36174477171E+02  0.96107238800E+02  0.89039365177E+02 0.  0.
        -11    1    3    3    0    0  0.43297092211E+02  0.67129597179E+01  0.95676529863E+01  0.44846872868E+02  0.51100000000E-03 0. -1.
         11    1    3    3    0    0 -0.43297092211E+02 -0.67129597179E+01  0.26606824184E+02  0.51260365932E+02  0.51100000000E-03 0.  1.
<mgrwt>
<rscale>  0 0.89039365E+02</rscale>
<asrwt>0</asrwt>
<pdfrwt beam="2">  1        3 0.46102124E-02 0.89039365E+02</pdfrwt>
<pdfrwt beam="1">  1       -3 0.10175517E-01 0.89039365E+02</pdfrwt>
<totfact> 0.37289538E+04</totfact>
</mgrwt>
</event>
<event>
 5    1  0.7431090E-001  0.9094700E+02  0.7818608E-02  0.1300574E+00
         -3   -1    0    0    0  501 -0.00000000000E+00  0.00000000000E+00  0.45393085451E+02  0.45393180719E+02  0.93000000000E-01 0.  1.
          3   -1    0    0  501    0  0.00000000000E+00 -0.00000000000E+00 -0.45553864116E+02  0.45553959047E+02  0.93000000000E-01 0. -1.
         23    2    1    2    0    0  0.00000000000E+00  0.00000000000E+00 -0.16077866463E+00  0.90947139766E+02  0.90946997652E+02 0.  0.
        -11    1    3    3    0    0 -0.16147972279E+02 -0.50744830295E+01  0.42125502146E+02  0.45398957236E+02  0.51100000000E-03 0.  1.
         11    1    3    3    0    0  0.16147972279E+02  0.50744830295E+01 -0.42286280811E+02  0.45548182530E+02  0.51100000000E-03 0. -1.
<mgrwt>
<rscale>  0 0.90946998E+02</rscale>
<asrwt>0</asrwt>
<pdfrwt beam="2">  1        3 0.70083015E-02 0.90946998E+02</pdfrwt>
<pdfrwt beam="1">  1       -3 0.69835662E-02 0.90946998E+02</pdfrwt>
<totfact> 0.35600325E+04</totfact>
</mgrwt>
</event>
<event>
 5    1  0.7431090E-001  0.9149652E+02  0.7818608E-02  0.1299268E+00
         -3   -1    0    0    0  501 -0.00000000000E+00  0.00000000000E+00  0.12830063582E+03  0.12830066953E+03  0.93000000000E-01 0.  1.
          3   -1    0    0  501    0  0.00000000000E+00 -0.00000000000E+00 -0.16312326691E+02  0.16312591795E+02  0.93000000000E-01 0. -1.
         23    2    1    2    0    0  0.00000000000E+00  0.00000000000E+00  0.11198830913E+03  0.14461326133E+03  0.91496524352E+02 0.  0.
        -11    1    3    3    0    0 -0.63017780033E+01 -0.40835611735E+02  0.24955938175E+02  0.48270678908E+02  0.51100000000E-03 0. -1.
         11    1    3    3    0    0  0.63017780033E+01  0.40835611735E+02  0.87032370959E+02  0.96342582417E+02  0.51100000000E-03 0.  1.
<mgrwt>
<rscale>  0 0.91496524E+02</rscale>
<asrwt>0</asrwt>
<pdfrwt beam="2">  1        3 0.25096117E-02 0.91496524E+02</pdfrwt>
<pdfrwt beam="1">  1       -3 0.19738583E-01 0.91496524E+02</pdfrwt>
<totfact> 0.31341925E+04</totfact>
</mgrwt>
</event>
<event>
 5    1  0.7431090E-001  0.8547270E+02  0.7818608E-02  0.1314201E+00
         -3   -1    0    0    0  501 -0.00000000000E+00  0.00000000000E+00  0.41309728208E+01  0.41320195360E+01  0.93000000000E-01 0.  1.
          3   -1    0    0  501    0  0.00000000000E+00 -0.00000000000E+00 -0.44206536905E+03  0.44206537883E+03  0.93000000000E-01 0. -1.
         23    2    1    2    0    0  0.00000000000E+00  0.00000000000E+00 -0.43793439622E+03  0.44619739836E+03  0.85472702719E+02 0.  0.
        -11    1    3    3    0    0  0.26888904846E+02  0.32899806444E+02 -0.19505294796E+03  0.19962731020E+03  0.51100000000E-03 0.  1.
         11    1    3    3    0    0 -0.26888904846E+02 -0.32899806444E+02 -0.24288144826E+03  0.24657008817E+03  0.51100000000E-03 0. -1.
<mgrwt>
<rscale>  0 0.85472703E+02</rscale>
<asrwt>0</asrwt>
<pdfrwt beam="2">  1        3 0.68010101E-01 0.85472703E+02</pdfrwt>
<pdfrwt beam="1">  1       -3 0.63561590E-03 0.85472703E+02</pdfrwt>
<totfact> 0.22907077E+04</totfact>
</mgrwt>
</event>
<event>
 5    1  0.7431090E-001  0.9105438E+02  0.7818608E-02  0.1300318E+00
         -3   -1    0    0    0  501 -0.00000000000E+00  0.00000000000E+00  0.61965032045E+02  0.61965101835E+02  0.93000000000E-01 0.  1.
          3   -1    0    0  501    0  0.00000000000E+00 -0.00000000000E+00 -0.33449758062E+02  0.33449887345E+02  0.93000000000E-01 0. -1.
         23    2    1    2    0    0  0.00000000000E+00  0.00000000000E+00  0.28515273984E+02  0.95414989180E+02  0.91054375566E+02 0.  0.
        -11    1    3    3    0    0 -0.27473357949E+02 -0.20474735295E+02 -0.17156787688E+02  0.38319127683E+02  0.51100000000E-03 0. -1.
         11    1    3    3    0    0  0.27473357949E+02  0.20474735295E+02  0.45672061672E+02  0.57095861496E+02  0.51100000000E-03 0.  1.
<mgrwt>
<rscale>  0 0.91054376E+02</rscale>
<asrwt>0</asrwt>
<pdfrwt beam="2">  1        3 0.51461320E-02 0.91054376E+02</pdfrwt>
<pdfrwt beam="1">  1       -3 0.95330971E-02 0.91054376E+02</pdfrwt>
<totfact> 0.35144397E+04</totfact>
</mgrwt>
</event>
<event>
 5    1  0.7431090E-001  0.9163636E+02  0.7818608E-02  0.1298937E+00
         -3   -1    0    0    0  501 -0.00000000000E+00  0.00000000000E+00  0.49806469127E+02  0.49806555953E+02  0.93000000000E-01 0.  1.
          3   -1    0    0  501    0  0.00000000000E+00 -0.00000000000E+00 -0.42149082385E+02  0.42149184985E+02  0.93000000000E-01 0. -1.
         23    2    1    2    0    0  0.00000000000E+00  0.00000000000E+00  0.76573867418E+01  0.91955740938E+02  0.91636361341E+02 0.  0.
        -11    1    3    3    0    0 -0.21679007031E+02 -0.81750231572E+01 -0.35837486422E+02  0.42674767518E+02  0.51100000000E-03 0. -1.
         11    1    3    3    0    0  0.21679007031E+02  0.81750231572E+01  0.43494873163E+02  0.49280973420E+02  0.51100000000E-03 0.  1.
<mgrwt>
<rscale>  0 0.91636361E+02</rscale>
<asrwt>0</asrwt>
<pdfrwt beam="2">  1        3 0.64844889E-02 0.91636361E+02</pdfrwt>
<pdfrwt beam="1">  1       -3 0.76625482E-02 0.91636361E+02</pdfrwt>
<totfact> 0.34798244E+04</totfact>
</mgrwt>
</event>
<event>
 5    1  0.7431090E-001  0.8418257E+02  0.7818608E-02  0.1317584E+00
          3   -1    0    0  501    0  0.00000000000E+00  0.00000000000E+00  0.38606923193E+02  0.38607035206E+02  0.93000000000E-01 0. -1.
         -3   -1    0    0    0  501 -0.00000000000E+00 -0.00000000000E+00 -0.45889895975E+02  0.45889990211E+02  0.93000000000E-01 0.  1.
         23    2    1    2    0    0  0.00000000000E+00  0.00000000000E+00 -0.72829727825E+01  0.84497025417E+02  0.84182573089E+02 0.  0.
        -11    1    3    3    0    0 -0.39259819622E+02 -0.67944415332E+01 -0.17263418955E+02  0.43422615153E+02  0.51100000000E-03 0.  1.
         11    1    3    3    0    0  0.39259819622E+02  0.67944415332E+01  0.99804461725E+01  0.41074410264E+02  0.51100000000E-03 0. -1.
<mgrwt>
<rscale>  0 0.84182573E+02</rscale>
<asrwt>0</asrwt>
<pdfrwt beam="1">  1        3 0.59395425E-02 0.84182573E+02</pdfrwt>
<pdfrwt beam="2">  1       -3 0.70599998E-02 0.84182573E+02</pdfrwt>
<totfact> 0.44521377E+04</totfact>
</mgrwt>
</event>
<event>
 5    1  0.7431090E-001  0.9320720E+02  0.7818608E-02  0.1295266E+00
          3   -1    0    0  501    0  0.00000000000E+00  0.00000000000E+00  0.12538488342E+03  0.12538491791E+03  0.93000000000E-01 0. -1.
         -3   -1    0    0    0  501 -0.00000000000E+00 -0.00000000000E+00 -0.17321667018E+02  0.17321916674E+02  0.93000000000E-01 0.  1.
         23    2    1    2    0    0  0.00000000000E+00  0.00000000000E+00  0.10806321640E+03  0.14270683458E+03  0.93207198743E+02 0.  0.
        -11    1    3    3    0    0  0.27140115913E+02 -0.29094456130E+02  0.16879162615E+02  0.43220127257E+02  0.51100000000E-03 0.  1.
         11    1    3    3    0    0 -0.27140115913E+02  0.29094456130E+02  0.91184053783E+02  0.99486707322E+02  0.51100000000E-03 0. -1.
<mgrwt>
<rscale>  0 0.93207199E+02</rscale>
<asrwt>0</asrwt>
<pdfrwt beam="1">  1        3 0.19290005E-01 0.93207199E+02</pdfrwt>
<pdfrwt beam="2">  1       -3 0.26648936E-02 0.93207199E+02</pdfrwt>
<totfact> 0.29914361E+04</totfact>
</mgrwt>
</event>
<event>
 5    1  0.7431090E-001  0.8965035E+02  0.7818608E-02  0.1303701E+00
         -3   -1    0    0    0  501 -0.00000000000E+00  0.00000000000E+00  0.11181507911E+03  0.11181511779E+03  0.93000000000E-01 0.  1.
          3   -1    0    0  501    0  0.00000000000E+00 -0.00000000000E+00 -0.17969651567E+02  0.17969892221E+02  0.93000000000E-01 0. -1.
         23    2    1    2    0    0  0.00000000000E+00  0.00000000000E+00  0.93845427547E+02  0.12978501001E+03  0.89650346079E+02 0.  0.
        -11    1    3    3    0    0 -0.99622622175E+01 -0.27420949015E+02  0.96189392699E+02  0.10051643836E+03  0.51100000000E-03 0.  1.
         11    1    3    3    0    0  0.99622622175E+01  0.27420949015E+02 -0.23439651519E+01  0.29268571647E+02  0.51100000000E-03 0. -1.
<mgrwt>
<rscale>  0 0.89650346E+02</rscale>
<asrwt>0</asrwt>
<pdfrwt beam="2">  1        3 0.27645832E-02 0.89650346E+02</pdfrwt>
<pdfrwt beam="1">  1       -3 0.17202341E-01 0.89650346E+02</pdfrwt>
<totfact> 0.34115444E+04</totfact>
</mgrwt>
</event>
<event>
 5    1  0.7431090E-001  0.9507229E+02  0.7818608E-02  0.1291013E+00
          3   -1    0    0  501    0  0.00000000000E+00  0.00000000000E+00  0.99415974458E+02  0.99416017957E+02  0.93000000000E-01 0. -1.
         -3   -1    0    0    0  501 -0.00000000000E+00 -0.00000000000E+00 -0.22729453950E+02  0.22729644209E+02  0.93000000000E-01 0.  1.
         23    2    1    2    0    0  0.00000000000E+00  0.00000000000E+00  0.76686520508E+02  0.12214566217E+03  0.95072290170E+02 0.  0.
        -11    1    3    3    0    0 -0.41531256198E+02 -0.19587205441E+02  0.22546317985E+02  0.51155061464E+02  0.51100000000E-03 0.  1.
         11    1    3    3    0    0  0.41531256198E+02  0.19587205441E+02  0.54140202523E+02  0.70990600702E+02  0.51100000000E-03 0. -1.
<mgrwt>
<rscale>  0 0.95072290E+02</rscale>
<asrwt>0</asrwt>
<pdfrwt beam="1">  1        3 0.15294783E-01 0.95072290E+02</pdfrwt>
<pdfrwt beam="2">  1       -3 0.34968570E-02 0.95072290E+02</pdfrwt>
<totfact> 0.29532638E+04</totfact>
</mgrwt>
</event>
<event>
 5    1  0.7431090E-001  0.9122123E+02  0.7818608E-02  0.1299921E+00
          3   -1    0    0  501    0  0.00000000000E+00  0.00000000000E+00  0.21189155575E+03  0.21189157615E+03  0.93000000000E-01 0. -1.
         -3   -1    0    0    0  501 -0.00000000000E+00 -0.00000000000E+00 -0.98176497678E+01  0.98180902401E+01  0.93000000000E-01 0.  1.
         23    2    1    2    0    0  0.00000000000E+00  0.00000000000E+00  0.20207390598E+03  0.22170966639E+03  0.91221229413E+02 0.  0.
        -11    1    3    3    0    0 -0.99912405831E+01 -0.37448341168E+02  0.15947552477E+03  0.16411778132E+03  0.51100000000E-03 0. -1.
         11    1    3    3    0    0  0.99912405831E+01  0.37448341168E+02  0.42598381207E+02  0.57591885073E+02  0.51100000000E-03 0.  1.
<mgrwt>
<rscale>  0 0.91221229E+02</rscale>
<asrwt>0</asrwt>
<pdfrwt beam="1">  1        3 0.32598734E-01 0.91221229E+02</pdfrwt>
<pdfrwt beam="2">  1       -3 0.15104432E-02 0.91221229E+02</pdfrwt>
<totfact> 0.27377839E+04</totfact>
</mgrwt>
</event>
<event>
 5    1  0.7431090E-001  0.9330448E+02  0.7818608E-02  0.1295041E+00
          3   -1    0    0  501    0  0.00000000000E+00  0.00000000000E+00  0.48798897898E+02  0.48798986517E+02  0.93000000000E-01 0. -1.
         -3   -1    0    0    0  501 -0.00000000000E+00 -0.00000000000E+00 -0.44599833609E+02  0.44599930571E+02  0.93000000000E-01 0.  1.
         23    2    1    2    0    0  0.00000000000E+00  0.00000000000E+00  0.41990642890E+01  0.93398917088E+02  0.93304477772E+02 0.  0.
        -11    1    3    3    0    0  0.21114851353E+02  0.41593993508E+02  0.13679372831E+01  0.46666567222E+02  0.51100000000E-03 0.  1.
         11    1    3    3    0    0 -0.21114851353E+02 -0.41593993508E+02  0.28311270059E+01  0.46732349866E+02  0.51100000000E-03 0. -1.
<mgrwt>
<rscale>  0 0.93304478E+02</rscale>
<asrwt>0</asrwt>
<pdfrwt beam="1">  1        3 0.75075370E-02 0.93304478E+02</pdfrwt>
<pdfrwt beam="2">  1       -3 0.68615271E-02 0.93304478E+02</pdfrwt>
<totfact> 0.33020283E+04</totfact>
</mgrwt>
</event>
<event>
 5    1  0.7431090E-001  0.9506138E+02  0.7818608E-02  0.1291038E+00
         -3   -1    0    0    0  501 -0.00000000000E+00  0.00000000000E+00  0.10314111792E+03  0.10314115984E+03  0.93000000000E-01 0.  1.
          3   -1    0    0  501    0  0.00000000000E+00 -0.00000000000E+00 -0.21903499656E+02  0.21903697089E+02  0.93000000000E-01 0. -1.
         23    2    1    2    0    0  0.00000000000E+00  0.00000000000E+00  0.81237618260E+02  0.12504485693E+03  0.95061378198E+02 0.  0.
        -11    1    3    3    0    0 -0.18697652502E+01 -0.31436718975E+02  0.87448264548E+02  0.92946018176E+02  0.51100000000E-03 0.  1.
         11    1    3    3    0    0  0.18697652502E+01  0.31436718975E+02 -0.62106462879E+01  0.32098838758E+02  0.51100000000E-03 0. -1.
<mgrwt>
<rscale>  0 0.95061378E+02</rscale>
<asrwt>0</asrwt>
<pdfrwt beam="2">  1        3 0.33697875E-02 0.95061378E+02</pdfrwt>
<pdfrwt beam="1">  1       -3 0.15867883E-01 0.95061378E+02</pdfrwt>
<totfact> 0.29369747E+04</totfact>
</mgrwt>
</event>
<event>
 5    1  0.7431090E-001  0.9254642E+02  0.7818608E-02  0.1296800E+00
         -3   -1    0    0    0  501 -0.00000000000E+00  0.00000000000E+00  0.27680246041E+02  0.27680402271E+02  0.93000000000E-01 0.  1.
          3   -1    0    0  501    0  0.00000000000E+00 -0.00000000000E+00 -0.77354766994E+02  0.77354822899E+02  0.93000000000E-01 0. -1.
         23    2    1    2    0    0  0.00000000000E+00  0.00000000000E+00 -0.49674520953E+02  0.10503522517E+03  0.92546423456E+02 0.  0.
        -11    1    3    3    0    0 -0.26309118833E+02 -0.33750955640E+02 -0.48572598966E+01  0.43068430600E+02  0.51100000000E-03 0.  1.
         11    1    3    3    0    0  0.26309118833E+02  0.33750955640E+02 -0.44817261057E+02  0.61966794570E+02  0.51100000000E-03 0. -1.
<mgrwt>
<rscale>  0 0.92546423E+02</rscale>
<asrwt>0</asrwt>
<pdfrwt beam="2">  1        3 0.11900750E-01 0.92546423E+02</pdfrwt>
<pdfrwt beam="1">  1       -3 0.42585157E-02 0.92546423E+02</pdfrwt>
<totfact> 0.32935233E+04</totfact>
</mgrwt>
</event>
<event>
 5    1  0.7431090E-001  0.1084504E+03  0.7818608E-02  0.1263467E+00
          3   -1    0    0  501    0  0.00000000000E+00  0.00000000000E+00  0.17066789744E+02  0.17067043129E+02  0.93000000000E-01 0. -1.
         -3   -1    0    0    0  501 -0.00000000000E+00 -0.00000000000E+00 -0.17228480781E+03  0.17228483291E+03  0.93000000000E-01 0.  1.
         23    2    1    2    0    0  0.00000000000E+00  0.00000000000E+00 -0.15521801807E+03  0.18935187604E+03  0.10845044872E+03 0.  0.
        -11    1    3    3    0    0 -0.34110851515E+02  0.25300219226E+02 -0.13647516968E+03  0.14293048389E+03  0.51100000000E-03 0.  1.
         11    1    3    3    0    0  0.34110851515E+02 -0.25300219226E+02 -0.18742848388E+02  0.46421392158E+02  0.51100000000E-03 0. -1.
<mgrwt>
<rscale>  0 0.10845045E+03</rscale>
<asrwt>0</asrwt>
<pdfrwt beam="1">  1        3 0.26256815E-02 0.10845045E+03</pdfrwt>
<pdfrwt beam="2">  1       -3 0.26505375E-01 0.10845045E+03</pdfrwt>
<totfact> 0.18097409E+04</totfact>
</mgrwt>
</event>
<event>
 5    1  0.7431090E-001  0.9117332E+02  0.7818608E-02  0.1300035E+00
          3   -1    0    0  501    0  0.00000000000E+00  0.00000000000E+00  0.62801888098E+02  0.62801956957E+02  0.93000000000E-01 0. -1.
         -3   -1    0    0    0  501 -0.00000000000E+00 -0.00000000000E+00 -0.33090308519E+02  0.33090439206E+02  0.93000000000E-01 0.  1.
         23    2    1    2    0    0  0.00000000000E+00  0.00000000000E+00  0.29711579579E+02  0.95892396163E+02  0.91173316715E+02 0.  0.
        -11    1    3    3    0    0  0.37816690526E+02  0.14197088118E+02  0.37079644036E+02  0.54832101870E+02  0.51100000000E-03 0. -1.
         11    1    3    3    0    0 -0.37816690526E+02 -0.14197088118E+02 -0.73680644564E+01  0.41060294294E+02  0.51100000000E-03 0.  1.
<mgrwt>
<rscale>  0 0.91173317E+02</rscale>
<asrwt>0</asrwt>
<pdfrwt beam="1">  1        3 0.96618442E-02 0.91173317E+02</pdfrwt>
<pdfrwt beam="2">  1       -3 0.50908321E-02 0.91173317E+02</pdfrwt>
<totfact> 0.34982300E+04</totfact>
</mgrwt>
</event>
<event>
 5    1  0.7431090E-001  0.9046447E+02  0.7818608E-02  0.1301731E+00
          3   -1    0    0  501    0  0.00000000000E+00  0.00000000000E+00  0.20311027436E+03  0.20311029565E+03  0.93000000000E-01 0. -1.
         -3   -1    0    0    0  501 -0.00000000000E+00 -0.00000000000E+00 -0.10072889066E+02  0.10073318377E+02  0.93000000000E-01 0.  1.
         23    2    1    2    0    0  0.00000000000E+00  0.00000000000E+00  0.19303738529E+03  0.21318361403E+03  0.90464474624E+02 0.  0.
        -11    1    3    3    0    0  0.26319146106E+02  0.14669141589E+02  0.17019809069E+02  0.34605708600E+02  0.51100000000E-03 0.  1.
         11    1    3    3    0    0 -0.26319146106E+02 -0.14669141589E+02  0.17601757622E+03  0.17857790543E+03  0.51100000000E-03 0. -1.
<mgrwt>
<rscale>  0 0.90464475E+02</rscale>
<asrwt>0</asrwt>
<pdfrwt beam="1">  1        3 0.31247768E-01 0.90464475E+02</pdfrwt>
<pdfrwt beam="2">  1       -3 0.15497100E-02 0.90464475E+02</pdfrwt>
<totfact> 0.28424930E+04</totfact>
</mgrwt>
</event>
<event>
 5    1  0.7431090E-001  0.9372067E+02  0.7818608E-02  0.1294084E+00
          3   -1    0    0  501    0  0.00000000000E+00  0.00000000000E+00  0.31878139480E+03  0.31878140837E+03  0.93000000000E-01 0. -1.
         -3   -1    0    0    0  501 -0.00000000000E+00 -0.00000000000E+00 -0.68880632214E+01  0.68886910181E+01  0.93000000000E-01 0.  1.
         23    2    1    2    0    0  0.00000000000E+00  0.00000000000E+00  0.31189333158E+03  0.32567009939E+03  0.93720666609E+02 0.  0.
        -11    1    3    3    0    0  0.19788432827E+02 -0.39682687278E+02  0.20859952115E+03  0.21326054011E+03  0.51100000000E-03 0. -1.
         11    1    3    3    0    0 -0.19788432827E+02  0.39682687278E+02  0.10329381044E+03  0.11240955928E+03  0.51100000000E-03 0.  1.
<mgrwt>
<rscale>  0 0.93720667E+02</rscale>
<asrwt>0</asrwt>
<pdfrwt beam="1">  1        3 0.49043338E-01 0.93720667E+02</pdfrwt>
<pdfrwt beam="2">  1       -3 0.10597514E-02 0.93720667E+02</pdfrwt>
<totfact> 0.21425467E+04</totfact>
</mgrwt>
</event>
<event>
 5    1  0.7431090E-001  0.8960110E+02  0.7818608E-02  0.1303821E+00
         -3   -1    0    0    0  501 -0.00000000000E+00  0.00000000000E+00  0.19053235496E+02  0.19053462463E+02  0.93000000000E-01 0.  1.
          3   -1    0    0  501    0  0.00000000000E+00 -0.00000000000E+00 -0.10534024577E+03  0.10534028682E+03  0.93000000000E-01 0. -1.
         23    2    1    2    0    0  0.00000000000E+00  0.00000000000E+00 -0.86287010274E+02  0.12439374929E+03  0.89601097758E+02 0.  0.
        -11    1    3    3    0    0 -0.34905044244E+02  0.13594410836E+02 -0.90262097583E+01  0.38531059972E+02  0.51100000000E-03 0.  1.
         11    1    3    3    0    0  0.34905044244E+02 -0.13594410836E+02 -0.77260800516E+02  0.85862689315E+02  0.51100000000E-03 0. -1.
<mgrwt>
<rscale>  0 0.89601098E+02</rscale>
<asrwt>0</asrwt>
<pdfrwt beam="2">  1        3 0.16206212E-01 0.89601098E+02</pdfrwt>
<pdfrwt beam="1">  1       -3 0.29312877E-02 0.89601098E+02</pdfrwt>
<totfact> 0.34541343E+04</totfact>
</mgrwt>
</event>
<event>
 5    1  0.7431090E-001  0.8985217E+02  0.7818608E-02  0.1303210E+00
          3   -1    0    0  501    0  0.00000000000E+00  0.00000000000E+00  0.27696063642E+02  0.27696219783E+02  0.93000000000E-01 0. -1.
         -3   -1    0    0    0  501 -0.00000000000E+00 -0.00000000000E+00 -0.72874692040E+02  0.72874751382E+02  0.93000000000E-01 0.  1.
         23    2    1    2    0    0  0.00000000000E+00  0.00000000000E+00 -0.45178628398E+02  0.10057097116E+03  0.89852166234E+02 0.  0.
        -11    1    3    3    0    0 -0.64236334608E+01 -0.20225623794E+02 -0.66911284934E+02  0.70195861534E+02  0.51100000000E-03 0.  1.
         11    1    3    3    0    0  0.64236334608E+01  0.20225623794E+02  0.21732656536E+02  0.30375109630E+02  0.51100000000E-03 0. -1.
<mgrwt>
<rscale>  0 0.89852166E+02</rscale>
<asrwt>0</asrwt>
<pdfrwt beam="1">  1        3 0.42609495E-02 0.89852166E+02</pdfrwt>
<pdfrwt beam="2">  1       -3 0.11211508E-01 0.89852166E+02</pdfrwt>
<totfact> 0.36034381E+04</totfact>
</mgrwt>
</event>
<event>
 5    1  0.7431090E-001  0.8394797E+02  0.7818608E-02  0.1318207E+00
          3   -1    0    0  501    0  0.00000000000E+00  0.00000000000E+00  0.22992885124E+02  0.22993073204E+02  0.93000000000E-01 0. -1.
         -3   -1    0    0    0  501 -0.00000000000E+00 -0.00000000000E+00 -0.76623835134E+02  0.76623891572E+02  0.93000000000E-01 0.  1.
         23    2    1    2    0    0  0.00000000000E+00  0.00000000000E+00 -0.53630950009E+02  0.99616964775E+02  0.83947965265E+02 0.  0.
        -11    1    3    3    0    0 -0.20368943309E+02  0.21692408812E+02  0.83134284978E+01  0.30896076535E+02  0.51100000000E-03 0. -1.
         11    1    3    3    0    0  0.20368943309E+02 -0.21692408812E+02 -0.61944378507E+02  0.68720888240E+02  0.51100000000E-03 0.  1.
<mgrwt>
<rscale>  0 0.83947965E+02</rscale>
<asrwt>0</asrwt>
<pdfrwt beam="1">  1        3 0.35373858E-02 0.83947965E+02</pdfrwt>
<pdfrwt beam="2">  1       -3 0.11788301E-01 0.83947965E+02</pdfrwt>
<totfact> 0.43388662E+04</totfact>
</mgrwt>
</event>
<event>
 5    1  0.7431090E-001  0.9388235E+02  0.7818608E-02  0.1293713E+00
         -3   -1    0    0    0  501 -0.00000000000E+00  0.00000000000E+00  0.14583998540E+02  0.14584295061E+02  0.93000000000E-01 0.  1.
          3   -1    0    0  501    0  0.00000000000E+00 -0.00000000000E+00 -0.15108660684E+03  0.15108663546E+03  0.93000000000E-01 0. -1.
         23    2    1    2    0    0  0.00000000000E+00  0.00000000000E+00 -0.13650260830E+03  0.16567093052E+03  0.93882347371E+02 0.  0.
        -11    1    3    3    0    0 -0.21923422955E+02 -0.35699958394E+02 -0.10561682978E+03  0.11362234919E+03  0.51100000000E-03 0. -1.
         11    1    3    3    0    0  0.21923422955E+02  0.35699958394E+02 -0.30885778522E+02  0.52048581331E+02  0.51100000000E-03 0.  1.
<mgrwt>
<rscale>  0 0.93882347E+02</rscale>
<asrwt>0</asrwt>
<pdfrwt beam="2">  1        3 0.23244117E-01 0.93882347E+02</pdfrwt>
<pdfrwt beam="1">  1       -3 0.22437172E-02 0.93882347E+02</pdfrwt>
<totfact> 0.28058129E+04</totfact>
</mgrwt>
</event>
<event>
 5    1  0.7431090E-001  0.9549637E+02  0.7818608E-02  0.1290062E+00
         -3   -1    0    0    0  501 -0.00000000000E+00  0.00000000000E+00  0.12733877177E+02  0.12734216779E+02  0.93000000000E-01 0.  1.
          3   -1    0    0  501    0  0.00000000000E+00 -0.00000000000E+00 -0.17903850306E+03  0.17903852721E+03  0.93000000000E-01 0. -1.
         23    2    1    2    0    0  0.00000000000E+00  0.00000000000E+00 -0.16630462588E+03  0.19177274399E+03  0.95496370341E+02 0.  0.
        -11    1    3    3    0    0  0.20556608859E+02  0.40838413394E+02 -0.11079939629E+03  0.11986182209E+03  0.51100000000E-03 0. -1.
         11    1    3    3    0    0 -0.20556608859E+02 -0.40838413394E+02 -0.55505229592E+02  0.71910921901E+02  0.51100000000E-03 0.  1.
<mgrwt>
<rscale>  0 0.95496370E+02</rscale>
<asrwt>0</asrwt>
<pdfrwt beam="2">  1        3 0.27544411E-01 0.95496370E+02</pdfrwt>
<pdfrwt beam="1">  1       -3 0.19590861E-02 0.95496370E+02</pdfrwt>
<totfact> 0.25518970E+04</totfact>
</mgrwt>
</event>
<event>
 5    1  0.7431090E-001  0.8995743E+02  0.7818608E-02  0.1302955E+00
          3   -1    0    0  501    0  0.00000000000E+00  0.00000000000E+00  0.20828222129E+02  0.20828429755E+02  0.93000000000E-01 0. -1.
         -3   -1    0    0    0  501 -0.00000000000E+00 -0.00000000000E+00 -0.97131185499E+02  0.97131230021E+02  0.93000000000E-01 0.  1.
         23    2    1    2    0    0  0.00000000000E+00  0.00000000000E+00 -0.76302963370E+02  0.11795965978E+03  0.89957429462E+02 0.  0.
        -11    1    3    3    0    0 -0.26598465298E+02  0.29359169613E+02 -0.10222518267E+02  0.40913800564E+02  0.51100000000E-03 0. -1.
         11    1    3    3    0    0  0.26598465298E+02 -0.29359169613E+02 -0.66080445103E+02  0.77045859213E+02  0.51100000000E-03 0.  1.
<mgrwt>
<rscale>  0 0.89957429E+02</rscale>
<asrwt>0</asrwt>
<pdfrwt beam="1">  1        3 0.32043613E-02 0.89957429E+02</pdfrwt>
<pdfrwt beam="2">  1       -3 0.14943278E-01 0.89957429E+02</pdfrwt>
<totfact> 0.34629247E+04</totfact>
</mgrwt>
</event>
<event>
 5    1  0.7431090E-001  0.9134075E+02  0.7818608E-02  0.1299637E+00
         -3   -1    0    0    0  501 -0.00000000000E+00  0.00000000000E+00  0.32083084400E+02  0.32083219191E+02  0.93000000000E-01 0.  1.
          3   -1    0    0  501    0  0.00000000000E+00 -0.00000000000E+00 -0.65011622810E+02  0.65011689329E+02  0.93000000000E-01 0. -1.
         23    2    1    2    0    0  0.00000000000E+00  0.00000000000E+00 -0.32928538410E+02  0.97094908520E+02  0.91340750044E+02 0.  0.
        -11    1    3    3    0    0 -0.20324729413E+02  0.39186520275E+02 -0.40174385958E+01  0.44326265466E+02  0.51100000000E-03 0.  1.
         11    1    3    3    0    0  0.20324729413E+02 -0.39186520275E+02 -0.28911099814E+02  0.52768643054E+02  0.51100000000E-03 0. -1.
<mgrwt>
<rscale>  0 0.91340750E+02</rscale>
<asrwt>0</asrwt>
<pdfrwt beam="2">  1        3 0.10001804E-01 0.91340750E+02</pdfrwt>
<pdfrwt beam="1">  1       -3 0.49358746E-02 0.91340750E+02</pdfrwt>
<totfact> 0.34717386E+04</totfact>
</mgrwt>
</event>
<event>
 5    1  0.7431090E-001  0.9328316E+02  0.7818608E-02  0.1295090E+00
         -3   -1    0    0    0  501 -0.00000000000E+00  0.00000000000E+00  0.25396042636E+02  0.25396212918E+02  0.93000000000E-01 0.  1.
          3   -1    0    0  501    0  0.00000000000E+00 -0.00000000000E+00 -0.85659981528E+02  0.85660032012E+02  0.93000000000E-01 0. -1.
         23    2    1    2    0    0  0.00000000000E+00  0.00000000000E+00 -0.60263938892E+02  0.11105624493E+03  0.93283156075E+02 0.  0.
        -11    1    3    3    0    0 -0.35033043599E+02  0.14142177690E+02  0.24311357547E+01  0.37857968183E+02  0.51100000000E-03 0.  1.
         11    1    3    3    0    0  0.35033043599E+02 -0.14142177690E+02 -0.62695074646E+02  0.73198276748E+02  0.51100000000E-03 0. -1.
<mgrwt>
<rscale>  0 0.93283156E+02</rscale>
<asrwt>0</asrwt>
<pdfrwt beam="2">  1        3 0.13178476E-01 0.93283156E+02</pdfrwt>
<pdfrwt beam="1">  1       -3 0.39071005E-02 0.93283156E+02</pdfrwt>
<totfact> 0.31825328E+04</totfact>
</mgrwt>
</event>
<event>
 5    1  0.7431090E-001  0.9092092E+02  0.7818608E-02  0.1300637E+00
          3   -1    0    0  501    0  0.00000000000E+00  0.00000000000E+00  0.26542180710E+03  0.26542182339E+03  0.93000000000E-01 0. -1.
         -3   -1    0    0    0  501 -0.00000000000E+00 -0.00000000000E+00 -0.77860047018E+01  0.77865601016E+01  0.93000000000E-01 0.  1.
         23    2    1    2    0    0  0.00000000000E+00  0.00000000000E+00  0.25763580240E+03  0.27320838350E+03  0.90920922424E+02 0.  0.
        -11    1    3    3    0    0 -0.34455111257E+02 -0.29003962401E+02  0.14740680514E+03  0.15413354836E+03  0.51100000000E-03 0.  1.
         11    1    3    3    0    0  0.34455111257E+02  0.29003962401E+02  0.11022899726E+03  0.11907483514E+03  0.51100000000E-03 0. -1.
<mgrwt>
<rscale>  0 0.90920922E+02</rscale>
<asrwt>0</asrwt>
<pdfrwt beam="1">  1        3 0.40834159E-01 0.90920922E+02</pdfrwt>
<pdfrwt beam="2">  1       -3 0.11978911E-02 0.90920922E+02</pdfrwt>
<totfact> 0.25296528E+04</totfact>
</mgrwt>
</event>
<event>
 5    1  0.7431090E-001  0.9676955E+02  0.7818608E-02  0.1287240E+00
         -3   -1    0    0    0  501 -0.00000000000E+00  0.00000000000E+00  0.78767805946E+02  0.78767860848E+02  0.93000000000E-01 0.  1.
          3   -1    0    0  501    0  0.00000000000E+00 -0.00000000000E+00 -0.29721223183E+02  0.29721368685E+02  0.93000000000E-01 0. -1.
         23    2    1    2    0    0  0.00000000000E+00  0.00000000000E+00  0.49046582763E+02  0.10848922953E+03  0.96769549157E+02 0.  0.
        -11    1    3    3    0    0  0.43459723045E+02  0.17675219376E+02  0.11261678492E+02  0.48249210458E+02  0.51100000000E-03 0. -1.
         11    1    3    3    0    0 -0.43459723045E+02 -0.17675219376E+02  0.37784904271E+02  0.60240019075E+02  0.51100000000E-03 0.  1.
<mgrwt>
<rscale>  0 0.96769549E+02</rscale>
<asrwt>0</asrwt>
<pdfrwt beam="2">  1        3 0.45725113E-02 0.96769549E+02</pdfrwt>
<pdfrwt beam="1">  1       -3 0.12118139E-01 0.96769549E+02</pdfrwt>
<totfact> 0.28941550E+04</totfact>
</mgrwt>
</event>
<event>
 4    1  0.7431090E-001  0.4052560E+02  0.7818608E-02  0.1504379E+00
         -3   -1    0    0    0  501 -0.00000000000E+00  0.00000000000E+00  0.10737989076E+02  0.10738391798E+02  0.93000000000E-01 0.  1.
          3   -1    0    0  501    0  0.00000000000E+00 -0.00000000000E+00 -0.38235131608E+02  0.38235244711E+02  0.93000000000E-01 0. -1.
        -11    1    1    2    0    0 -0.33158224512E+01 -0.12955144919E+02 -0.32145415678E+02  0.34816062497E+02  0.51100000000E-03 0. -1.
         11    1    1    2    0    0  0.33158224512E+01  0.12955144919E+02  0.46482731458E+01  0.14157574012E+02  0.51100000000E-03 0.  1.
<mgrwt>
<rscale>  0 0.40525600E+02</rscale>
<asrwt>0</asrwt>
<pdfrwt beam="2">  1        3 0.58823675E-02 0.40525600E+02</pdfrwt>
<pdfrwt beam="1">  1       -3 0.16520380E-02 0.40525600E+02</pdfrwt>
<totfact> 0.31961731E+05</totfact>
</mgrwt>
</event>
<event>
 5    1  0.7431090E-001  0.9331989E+02  0.7818608E-02  0.1295006E+00
         -3   -1    0    0    0  501 -0.00000000000E+00  0.00000000000E+00  0.10182914819E+02  0.10183339492E+02  0.93000000000E-01 0.  1.
          3   -1    0    0  501    0  0.00000000000E+00 -0.00000000000E+00 -0.21379936303E+03  0.21379938326E+03  0.93000000000E-01 0. -1.
         23    2    1    2    0    0  0.00000000000E+00  0.00000000000E+00 -0.20361644822E+03  0.22398272275E+03  0.93319891278E+02 0.  0.
        -11    1    3    3    0    0 -0.31551606380E+02  0.78287540295E+01 -0.18214577059E+03  0.18502398493E+03  0.51100000000E-03 0. -1.
         11    1    3    3    0    0  0.31551606380E+02 -0.78287540295E+01 -0.21470677622E+02  0.38958737821E+02  0.51100000000E-03 0.  1.
<mgrwt>
<rscale>  0 0.93319891E+02</rscale>
<asrwt>0</asrwt>
<pdfrwt beam="2">  1        3 0.32892241E-01 0.93319891E+02</pdfrwt>
<pdfrwt beam="1">  1       -3 0.15666367E-02 0.93319891E+02</pdfrwt>
<totfact> 0.25643423E+04</totfact>
</mgrwt>
</event>
<event>
 5    1  0.7431090E-001  0.9084656E+02  0.7818608E-02  0.1300814E+00
         -3   -1    0    0    0  501 -0.00000000000E+00  0.00000000000E+00  0.10254313361E+03  0.10254317579E+03  0.93000000000E-01 0.  1.
          3   -1    0    0  501    0  0.00000000000E+00 -0.00000000000E+00 -0.20120887174E+02  0.20121102099E+02  0.93000000000E-01 0. -1.
         23    2    1    2    0    0  0.00000000000E+00  0.00000000000E+00  0.82422246439E+02  0.12266427789E+03  0.90846564938E+02 0.  0.
        -11    1    3    3    0    0  0.20534435269E+02 -0.40334854990E+02  0.36032299201E+02  0.57852313219E+02  0.51100000000E-03 0.  1.
         11    1    3    3    0    0 -0.20534435269E+02  0.40334854990E+02  0.46389947238E+02  0.64811964666E+02  0.51100000000E-03 0. -1.
<mgrwt>
<rscale>  0 0.90846565E+02</rscale>
<asrwt>0</asrwt>
<pdfrwt beam="2">  1        3 0.30955409E-02 0.90846565E+02</pdfrwt>
<pdfrwt beam="1">  1       -3 0.15775886E-01 0.90846565E+02</pdfrwt>
<totfact> 0.33394050E+04</totfact>
</mgrwt>
</event>
<event>
 5    1  0.7431090E-001  0.9107200E+02  0.7818608E-02  0.1300276E+00
         -3   -1    0    0    0  501 -0.00000000000E+00  0.00000000000E+00  0.13401138329E+02  0.13401461022E+02  0.93000000000E-01 0.  1.
          3   -1    0    0  501    0  0.00000000000E+00 -0.00000000000E+00 -0.15472548435E+03  0.15472551230E+03  0.93000000000E-01 0. -1.
         23    2    1    2    0    0  0.00000000000E+00  0.00000000000E+00 -0.14132434602E+03  0.16812697332E+03  0.91071995585E+02 0.  0.
        -11    1    3    3    0    0  0.28435733039E+02 -0.33080623908E+02 -0.94775263614E+02  0.10433249343E+03  0.51100000000E-03 0. -1.
         11    1    3    3    0    0 -0.28435733039E+02  0.33080623908E+02 -0.46549082402E+02  0.63794479889E+02  0.51100000000E-03 0.  1.
<mgrwt>
<rscale>  0 0.91071996E+02</rscale>
<asrwt>0</asrwt>
<pdfrwt beam="2">  1        3 0.23803947E-01 0.91071996E+02</pdfrwt>
<pdfrwt beam="1">  1       -3 0.20617407E-02 0.91071996E+02</pdfrwt>
<totfact> 0.30327940E+04</totfact>
</mgrwt>
</event>
<event>
 5    1  0.7431090E-001  0.9157050E+02  0.7818608E-02  0.1299092E+00
          3   -1    0    0  501    0  0.00000000000E+00  0.00000000000E+00  0.22029168753E+03  0.22029170716E+03  0.93000000000E-01 0. -1.
         -3   -1    0    0    0  501 -0.00000000000E+00 -0.00000000000E+00 -0.95157219063E+01  0.95161763539E+01  0.93000000000E-01 0.  1.
         23    2    1    2    0    0  0.00000000000E+00  0.00000000000E+00  0.21077596562E+03  0.22980788352E+03  0.91570495472E+02 0.  0.
        -11    1    3    3    0    0  0.27561105627E+02  0.24150948269E+02  0.36503101462E+02  0.51723875167E+02  0.51100000000E-03 0.  1.
         11    1    3    3    0    0 -0.27561105627E+02 -0.24150948269E+02  0.17427286416E+03  0.17808400835E+03  0.51100000000E-03 0. -1.
<mgrwt>
<rscale>  0 0.91570495E+02</rscale>
<asrwt>0</asrwt>
<pdfrwt beam="1">  1        3 0.33891067E-01 0.91570495E+02</pdfrwt>
<pdfrwt beam="2">  1       -3 0.14639936E-02 0.91570495E+02</pdfrwt>
<totfact> 0.26715187E+04</totfact>
</mgrwt>
</event>
<event>
 5    1  0.7431090E-001  0.9125236E+02  0.7818608E-02  0.1299847E+00
         -3   -1    0    0    0  501 -0.00000000000E+00  0.00000000000E+00  0.29801944152E+02  0.29802089260E+02  0.93000000000E-01 0.  1.
          3   -1    0    0  501    0  0.00000000000E+00 -0.00000000000E+00 -0.69852420758E+02  0.69852482667E+02  0.93000000000E-01 0. -1.
         23    2    1    2    0    0  0.00000000000E+00  0.00000000000E+00 -0.40050476606E+02  0.99654571927E+02  0.91252359036E+02 0.  0.
        -11    1    3    3    0    0 -0.44609721964E+01 -0.29200817464E+02  0.17949523384E+02  0.34565494405E+02  0.51100000000E-03 0.  1.
         11    1    3    3    0    0  0.44609721964E+01  0.29200817464E+02 -0.57999999991E+02  0.65089077522E+02  0.51100000000E-03 0. -1.
<mgrwt>
<rscale>  0 0.91252359E+02</rscale>
<asrwt>0</asrwt>
<pdfrwt beam="2">  1        3 0.10746542E-01 0.91252359E+02</pdfrwt>
<pdfrwt beam="1">  1       -3 0.45849304E-02 0.91252359E+02</pdfrwt>
<totfact> 0.34618394E+04</totfact>
</mgrwt>
</event>
<event>
 5    1  0.7431090E-001  0.9869999E+02  0.7818608E-02  0.1283054E+00
          3   -1    0    0  501    0  0.00000000000E+00  0.00000000000E+00  0.24604283269E+03  0.24604285027E+03  0.93000000000E-01 0. -1.
         -3   -1    0    0    0  501 -0.00000000000E+00 -0.00000000000E+00 -0.98981296642E+01  0.98985665553E+01  0.93000000000E-01 0.  1.
         23    2    1    2    0    0  0.00000000000E+00  0.00000000000E+00  0.23614470303E+03  0.25594141682E+03  0.98699990261E+02 0.  0.
        -11    1    3    3    0    0  0.49176879622E+02 -0.35228023507E+01  0.11248274229E+03  0.12281344772E+03  0.51100000000E-03 0. -1.
         11    1    3    3    0    0 -0.49176879622E+02  0.35228023507E+01  0.12366196073E+03  0.13312796911E+03  0.51100000000E-03 0.  1.
<mgrwt>
<rscale>  0 0.98699990E+02</rscale>
<asrwt>0</asrwt>
<pdfrwt beam="1">  1        3 0.37852780E-01 0.98699990E+02</pdfrwt>
<pdfrwt beam="2">  1       -3 0.15228241E-02 0.98699990E+02</pdfrwt>
<totfact> 0.20854563E+04</totfact>
</mgrwt>
</event>
<event>
 5    1  0.7431090E-001  0.8863908E+02  0.7818608E-02  0.1306181E+00
         -3   -1    0    0    0  501 -0.00000000000E+00  0.00000000000E+00  0.17346737956E+03  0.17346740449E+03  0.93000000000E-01 0.  1.
          3   -1    0    0  501    0  0.00000000000E+00 -0.00000000000E+00 -0.11323074063E+02  0.11323455975E+02  0.93000000000E-01 0. -1.
         23    2    1    2    0    0  0.00000000000E+00  0.00000000000E+00  0.16214430550E+03  0.18479086047E+03  0.88639078889E+02 0.  0.
        -11    1    3    3    0    0 -0.58842065390E+01 -0.43049429084E+02  0.62856543949E+02  0.76412187173E+02  0.51100000000E-03 0.  1.
         11    1    3    3    0    0  0.58842065390E+01  0.43049429084E+02  0.99287761548E+02  0.10837867329E+03  0.51100000000E-03 0. -1.
<mgrwt>
<rscale>  0 0.88639079E+02</rscale>
<asrwt>0</asrwt>
<pdfrwt beam="2">  1        3 0.17420427E-02 0.88639079E+02</pdfrwt>
<pdfrwt beam="1">  1       -3 0.26687320E-01 0.88639079E+02</pdfrwt>
<totfact> 0.31617783E+04</totfact>
</mgrwt>
</event>
<event>
 5    1  0.7431090E-001  0.9118795E+02  0.7818608E-02  0.1300000E+00
         -3   -1    0    0    0  501 -0.00000000000E+00  0.00000000000E+00  0.15285386868E+02  0.15285669783E+02  0.93000000000E-01 0.  1.
          3   -1    0    0  501    0  0.00000000000E+00 -0.00000000000E+00 -0.13599831079E+03  0.13599834259E+03  0.93000000000E-01 0. -1.
         23    2    1    2    0    0  0.00000000000E+00  0.00000000000E+00 -0.12071292393E+03  0.15128401237E+03  0.91187950946E+02 0.  0.
        -11    1    3    3    0    0  0.10884563603E+02 -0.35002276492E+02 -0.15373123329E+02  0.39748786216E+02  0.51100000000E-03 0.  1.
         11    1    3    3    0    0 -0.10884563603E+02  0.35002276492E+02 -0.10533980060E+03  0.11153522616E+03  0.51100000000E-03 0. -1.
<mgrwt>
<rscale>  0 0.91187951E+02</rscale>
<asrwt>0</asrwt>
<pdfrwt beam="2">  1        3 0.20922841E-01 0.91187951E+02</pdfrwt>
<pdfrwt beam="1">  1       -3 0.23516223E-02 0.91187951E+02</pdfrwt>
<totfact> 0.31218319E+04</totfact>
</mgrwt>
</event>
<event>
 5    1  0.7431090E-001  0.9107228E+02  0.7818608E-02  0.1300276E+00
         -3   -1    0    0    0  501 -0.00000000000E+00  0.00000000000E+00  0.73216084842E+02  0.73216143907E+02  0.93000000000E-01 0.  1.
          3   -1    0    0  501    0  0.00000000000E+00 -0.00000000000E+00 -0.28320680492E+02  0.28320833189E+02  0.93000000000E-01 0. -1.
         23    2    1    2    0    0  0.00000000000E+00  0.00000000000E+00  0.44895404350E+02  0.10153697710E+03  0.91072281107E+02 0.  0.
        -11    1    3    3    0    0 -0.28527953632E+02  0.26955678119E+02  0.48189401531E+02  0.62150391322E+02  0.51100000000E-03 0.  1.
         11    1    3    3    0    0  0.28527953632E+02 -0.26955678119E+02 -0.32939971815E+01  0.39386585774E+02  0.51100000000E-03 0. -1.
<mgrwt>
<rscale>  0 0.91072281E+02</rscale>
<asrwt>0</asrwt>
<pdfrwt beam="2">  1        3 0.43570441E-02 0.91072281E+02</pdfrwt>
<pdfrwt beam="1">  1       -3 0.11264029E-01 0.91072281E+02</pdfrwt>
<totfact> 0.34667232E+04</totfact>
</mgrwt>
</event>
<event>
 4    1  0.7431090E-001  0.1494094E+03  0.7818608E-02  0.1201201E+00
          3   -1    0    0  501    0  0.00000000000E+00  0.00000000000E+00  0.82895067318E+02  0.82895119486E+02  0.93000000000E-01 0. -1.
         -3   -1    0    0    0  501 -0.00000000000E+00 -0.00000000000E+00 -0.67323510826E+02  0.67323575061E+02  0.93000000000E-01 0.  1.
        -11    1    1    2    0    0 -0.40481312927E+02  0.27943165889E+02 -0.48743645187E+02  0.69249549909E+02  0.51100000000E-03 0.  1.
         11    1    1    2    0    0  0.40481312927E+02 -0.27943165889E+02  0.64315201679E+02  0.80969144638E+02  0.51100000000E-03 0. -1.
<mgrwt>
<rscale>  0 0.14940945E+03</rscale>
<asrwt>0</asrwt>
<pdfrwt beam="1">  1        3 0.12753096E-01 0.14940945E+03</pdfrwt>
<pdfrwt beam="2">  1       -3 0.10357472E-01 0.14940945E+03</pdfrwt>
<totfact> 0.78778700E+03</totfact>
</mgrwt>
</event>
<event>
 5    1  0.7431090E-001  0.9168669E+02  0.7818608E-02  0.1298818E+00
         -3   -1    0    0    0  501 -0.00000000000E+00  0.00000000000E+00  0.73051838228E+02  0.73051897426E+02  0.93000000000E-01 0.  1.
          3   -1    0    0  501    0  0.00000000000E+00 -0.00000000000E+00 -0.28768632663E+02  0.28768782983E+02  0.93000000000E-01 0. -1.
         23    2    1    2    0    0  0.00000000000E+00  0.00000000000E+00  0.44283205565E+02  0.10182068041E+03  0.91686687495E+02 0.  0.
        -11    1    3    3    0    0  0.23262328826E+02  0.41332458226E+01 -0.21486658494E+02  0.31935813077E+02  0.51100000000E-03 0. -1.
         11    1    3    3    0    0 -0.23262328826E+02 -0.41332458226E+01  0.65769864059E+02  0.69884867332E+02  0.51100000000E-03 0.  1.
<mgrwt>
<rscale>  0 0.91686687E+02</rscale>
<asrwt>0</asrwt>
<pdfrwt beam="2">  1        3 0.44259596E-02 0.91686687E+02</pdfrwt>
<pdfrwt beam="1">  1       -3 0.11238760E-01 0.91686687E+02</pdfrwt>
<totfact> 0.34016832E+04</totfact>
</mgrwt>
</event>
<event>
 5    1  0.7431090E-001  0.9090536E+02  0.7818608E-02  0.1300674E+00
         -3   -1    0    0    0  501 -0.00000000000E+00  0.00000000000E+00  0.28463150402E+02  0.28463302335E+02  0.93000000000E-01 0.  1.
          3   -1    0    0  501    0  0.00000000000E+00 -0.00000000000E+00 -0.72582810165E+02  0.72582869745E+02  0.93000000000E-01 0. -1.
         23    2    1    2    0    0  0.00000000000E+00  0.00000000000E+00 -0.44119659762E+02  0.10104617208E+03  0.90905360207E+02 0.  0.
        -11    1    3    3    0    0  0.18341671818E+02 -0.10761466807E+02  0.22592535452E+02  0.31026581367E+02  0.51100000000E-03 0.  1.
         11    1    3    3    0    0 -0.18341671818E+02  0.10761466807E+02 -0.66712195214E+02  0.70019590712E+02  0.51100000000E-03 0. -1.
<mgrwt>
<rscale>  0 0.90905360E+02</rscale>
<asrwt>0</asrwt>
<pdfrwt beam="2">  1        3 0.11166602E-01 0.90905360E+02</pdfrwt>
<pdfrwt beam="1">  1       -3 0.43789625E-02 0.90905360E+02</pdfrwt>
<totfact> 0.34875570E+04</totfact>
</mgrwt>
</event>
<event>
 5    1  0.7431090E-001  0.9066563E+02  0.7818608E-02  0.1301248E+00
          3   -1    0    0  501    0  0.00000000000E+00  0.00000000000E+00  0.48478592440E+02  0.48478681644E+02  0.93000000000E-01 0. -1.
         -3   -1    0    0    0  501 -0.00000000000E+00 -0.00000000000E+00 -0.42390983812E+02  0.42391085827E+02  0.93000000000E-01 0.  1.
         23    2    1    2    0    0  0.00000000000E+00  0.00000000000E+00  0.60876086281E+01  0.90869767471E+02  0.90665625578E+02 0.  0.
        -11    1    3    3    0    0 -0.27440846893E+02 -0.33486000631E+02  0.16518464691E+02  0.46337587253E+02  0.51100000000E-03 0. -1.
         11    1    3    3    0    0  0.27440846893E+02  0.33486000631E+02 -0.10430856063E+02  0.44532180218E+02  0.51100000000E-03 0.  1.
<mgrwt>
<rscale>  0 0.90665626E+02</rscale>
<asrwt>0</asrwt>
<pdfrwt beam="1">  1        3 0.74582597E-02 0.90665626E+02</pdfrwt>
<pdfrwt beam="2">  1       -3 0.65217045E-02 0.90665626E+02</pdfrwt>
<totfact> 0.35907619E+04</totfact>
</mgrwt>
</event>
<event>
 5    1  0.7431090E-001  0.9043546E+02  0.7818608E-02  0.1301801E+00
         -3   -1    0    0    0  501 -0.00000000000E+00  0.00000000000E+00  0.16022722518E+03  0.16022725217E+03  0.93000000000E-01 0.  1.
          3   -1    0    0  501    0  0.00000000000E+00 -0.00000000000E+00 -0.12760699697E+02  0.12761038585E+02  0.93000000000E-01 0. -1.
         23    2    1    2    0    0  0.00000000000E+00  0.00000000000E+00  0.14746652548E+03  0.17298829075E+03  0.90435460966E+02 0.  0.
        -11    1    3    3    0    0 -0.21926192013E+02 -0.30982078716E+02  0.12074377687E+03  0.12656898021E+03  0.51100000000E-03 0.  1.
         11    1    3    3    0    0  0.21926192013E+02  0.30982078716E+02  0.26722748607E+02  0.46419310541E+02  0.51100000000E-03 0. -1.
<mgrwt>
<rscale>  0 0.90435461E+02</rscale>
<asrwt>0</asrwt>
<pdfrwt beam="2">  1        3 0.19632127E-02 0.90435461E+02</pdfrwt>
<pdfrwt beam="1">  1       -3 0.24650371E-01 0.90435461E+02</pdfrwt>
<totfact> 0.30624682E+04</totfact>
</mgrwt>
</event>
<event>
 5    1  0.7431090E-001  0.9776157E+02  0.7818608E-02  0.1285075E+00
         -3   -1    0    0    0  501 -0.00000000000E+00  0.00000000000E+00  0.52789841102E+02  0.52789923021E+02  0.93000000000E-01 0.  1.
          3   -1    0    0  501    0  0.00000000000E+00 -0.00000000000E+00 -0.45261025652E+02  0.45261121198E+02  0.93000000000E-01 0. -1.
         23    2    1    2    0    0  0.00000000000E+00  0.00000000000E+00  0.75288154502E+01  0.98051044219E+02  0.97761568166E+02 0.  0.
        -11    1    3    3    0    0 -0.48338099623E+02 -0.71516744309E+01  0.24907143408E+01  0.48927722004E+02  0.51100000000E-03 0.  1.
         11    1    3    3    0    0  0.48338099623E+02  0.71516744309E+01  0.50381011094E+01  0.49123322215E+02  0.51100000000E-03 0. -1.
<mgrwt>
<rscale>  0 0.97761568E+02</rscale>
<asrwt>0</asrwt>
<pdfrwt beam="2">  1        3 0.69632484E-02 0.97761568E+02</pdfrwt>
<pdfrwt beam="1">  1       -3 0.81215277E-02 0.97761568E+02</pdfrwt>
<totfact> 0.28767217E+04</totfact>
</mgrwt>
</event>
<event>
 5    1  0.7431090E-001  0.9011126E+02  0.7818608E-02  0.1302582E+00
         -3   -1    0    0    0  501 -0.00000000000E+00  0.00000000000E+00  0.16145973621E+03  0.16145976300E+03  0.93000000000E-01 0.  1.
          3   -1    0    0  501    0  0.00000000000E+00 -0.00000000000E+00 -0.12572654741E+02  0.12572998697E+02  0.93000000000E-01 0. -1.
         23    2    1    2    0    0  0.00000000000E+00  0.00000000000E+00  0.14888708147E+03  0.17403276170E+03  0.90111259639E+02 0.  0.
        -11    1    3    3    0    0 -0.10773861949E+02 -0.39644868131E+02  0.11017110789E+03  0.11758173618E+03  0.51100000000E-03 0.  1.
         11    1    3    3    0    0  0.10773861949E+02  0.39644868131E+02  0.38715973585E+02  0.56451025511E+02  0.51100000000E-03 0. -1.
<mgrwt>
<rscale>  0 0.90111260E+02</rscale>
<asrwt>0</asrwt>
<pdfrwt beam="2">  1        3 0.19342832E-02 0.90111260E+02</pdfrwt>
<pdfrwt beam="1">  1       -3 0.24839986E-01 0.90111260E+02</pdfrwt>
<totfact> 0.30861698E+04</totfact>
</mgrwt>
</event>
<event>
 5    1  0.7431090E-001  0.8763987E+02  0.7818608E-02  0.1308670E+00
          3   -1    0    0  501    0  0.00000000000E+00  0.00000000000E+00  0.15566170402E+02  0.15566448214E+02  0.93000000000E-01 0. -1.
         -3   -1    0    0    0  501 -0.00000000000E+00 -0.00000000000E+00 -0.12335500252E+03  0.12335503758E+03  0.93000000000E-01 0.  1.
         23    2    1    2    0    0  0.00000000000E+00  0.00000000000E+00 -0.10778883212E+03  0.13892148579E+03  0.87639870408E+02 0.  0.
        -11    1    3    3    0    0 -0.77359473718E+01  0.42078265197E+02 -0.38876399048E+02  0.57808301194E+02  0.51100000000E-03 0.  1.
         11    1    3    3    0    0  0.77359473718E+01 -0.42078265197E+02 -0.68912433069E+02  0.81113184597E+02  0.51100000000E-03 0. -1.
<mgrwt>
<rscale>  0 0.87639870E+02</rscale>
<asrwt>0</asrwt>
<pdfrwt beam="1">  1        3 0.23948196E-02 0.87639870E+02</pdfrwt>
<pdfrwt beam="2">  1       -3 0.18977716E-01 0.87639870E+02</pdfrwt>
<totfact> 0.35608482E+04</totfact>
</mgrwt>
</event>
<event>
 5    1  0.7431090E-001  0.8598554E+02  0.7818608E-02  0.1312875E+00
          3   -1    0    0  501    0  0.00000000000E+00  0.00000000000E+00  0.14532080599E+02  0.14532378179E+02  0.93000000000E-01 0. -1.
         -3   -1    0    0    0  501 -0.00000000000E+00 -0.00000000000E+00 -0.12719132782E+03  0.12719136182E+03  0.93000000000E-01 0.  1.
         23    2    1    2    0    0  0.00000000000E+00  0.00000000000E+00 -0.11265924722E+03  0.14172374000E+03  0.85985536547E+02 0.  0.
        -11    1    3    3    0    0  0.24793936890E+02  0.33890144134E+02 -0.71534195283E+02  0.82948310839E+02  0.51100000000E-03 0.  1.
         11    1    3    3    0    0 -0.24793936890E+02 -0.33890144134E+02 -0.41125051940E+02  0.58775429163E+02  0.51100000000E-03 0. -1.
<mgrwt>
<rscale>  0 0.85985537E+02</rscale>
<asrwt>0</asrwt>
<pdfrwt beam="1">  1        3 0.22357303E-02 0.85985537E+02</pdfrwt>
<pdfrwt beam="2">  1       -3 0.19567921E-01 0.85985537E+02</pdfrwt>
<totfact> 0.37273040E+04</totfact>
</mgrwt>
</event>
<event>
 5    1  0.7431090E-001  0.8781742E+02  0.7818608E-02  0.1308225E+00
         -3   -1    0    0    0  501 -0.00000000000E+00  0.00000000000E+00  0.33600676880E+02  0.33600805583E+02  0.93000000000E-01 0.  1.
          3   -1    0    0  501    0  0.00000000000E+00 -0.00000000000E+00 -0.57378774511E+02  0.57378849879E+02  0.93000000000E-01 0. -1.
         23    2    1    2    0    0  0.00000000000E+00  0.00000000000E+00 -0.23778097631E+02  0.90979655461E+02  0.87817422992E+02 0.  0.
        -11    1    3    3    0    0 -0.25639617424E+02 -0.20894201100E+01  0.24976275719E+02  0.35854846354E+02  0.51100000000E-03 0.  1.
         11    1    3    3    0    0  0.25639617424E+02  0.20894201100E+01 -0.48754373350E+02  0.55124809107E+02  0.51100000000E-03 0. -1.
<mgrwt>
<rscale>  0 0.87817423E+02</rscale>
<asrwt>0</asrwt>
<pdfrwt beam="2">  1        3 0.88275195E-02 0.87817423E+02</pdfrwt>
<pdfrwt beam="1">  1       -3 0.51693506E-02 0.87817423E+02</pdfrwt>
<totfact> 0.39146569E+04</totfact>
</mgrwt>
</event>
<event>
 4    1  0.7431090E-001  0.3113782E+02  0.7818608E-02  0.1585842E+00
          3   -1    0    0  501    0  0.00000000000E+00  0.00000000000E+00  0.21700660797E+02  0.21700860075E+02  0.93000000000E-01 0. -1.
         -3   -1    0    0    0  501 -0.00000000000E+00 -0.00000000000E+00 -0.11169306959E+02  0.11169694130E+02  0.93000000000E-01 0.  1.
        -11    1    1    2    0    0  0.37844869428E+01 -0.13333257712E+02  0.12752059960E+02  0.18833829566E+02  0.51100000000E-03 0. -1.
         11    1    1    2    0    0 -0.37844869428E+01  0.13333257712E+02 -0.22207061230E+01  0.14036724639E+02  0.51100000000E-03 0.  1.
<mgrwt>
<rscale>  0 0.31137821E+02</rscale>
<asrwt>0</asrwt>
<pdfrwt beam="1">  1        3 0.33386083E-02 0.31137821E+02</pdfrwt>
<pdfrwt beam="2">  1       -3 0.17184000E-02 0.31137821E+02</pdfrwt>
<totfact> 0.63060776E+05</totfact>
</mgrwt>
</event>
<event>
 5    1  0.7431090E-001  0.6393468E+02  0.7818608E-02  0.1382024E+00
          3   -1    0    0  501    0  0.00000000000E+00  0.00000000000E+00  0.12097417051E+03  0.12097420626E+03  0.93000000000E-01 0.  1.
         -3   -1    0    0    0  501 -0.00000000000E+00 -0.00000000000E+00 -0.84470556050E+01  0.84475675430E+01  0.93000000000E-01 0. -1.
         23    2    1    2    0    0  0.00000000000E+00  0.00000000000E+00  0.11252711491E+03  0.12942177380E+03  0.63934684991E+02 0.  0.
        -11    1    3    3    0    0  0.17043673856E+02 -0.26732224089E+02  0.64563693166E+02  0.71927526711E+02  0.51100000000E-03 0.  1.
         11    1    3    3    0    0 -0.17043673856E+02  0.26732224089E+02  0.47963421742E+02  0.57494247092E+02  0.51100000000E-03 0. -1.
<mgrwt>
<rscale>  0 0.63934685E+02</rscale>
<asrwt>0</asrwt>
<pdfrwt beam="1">  1        3 0.18611453E-01 0.63934685E+02</pdfrwt>
<pdfrwt beam="2">  1       -3 0.12995891E-02 0.63934685E+02</pdfrwt>
<totfact> 0.83590187E+04</totfact>
</mgrwt>
</event>
<event>
 5    1  0.7431090E-001  0.9153207E+02  0.7818608E-02  0.1299183E+00
          3   -1    0    0  501    0  0.00000000000E+00  0.00000000000E+00  0.18309254207E+03  0.18309256569E+03  0.93000000000E-01 0. -1.
         -3   -1    0    0    0  501 -0.00000000000E+00 -0.00000000000E+00 -0.11439519782E+02  0.11439897807E+02  0.93000000000E-01 0.  1.
         23    2    1    2    0    0  0.00000000000E+00  0.00000000000E+00  0.17165302229E+03  0.19453246349E+03  0.91532067021E+02 0.  0.
        -11    1    3    3    0    0 -0.28846383014E+02 -0.36704855999E+01  0.10717815387E+02  0.30991254322E+02  0.51100000000E-03 0.  1.
         11    1    3    3    0    0  0.28846383014E+02  0.36704855999E+01  0.16093520690E+03  0.16354120917E+03  0.51100000000E-03 0. -1.
<mgrwt>
<rscale>  0 0.91532067E+02</rscale>
<asrwt>0</asrwt>
<pdfrwt beam="1">  1        3 0.28168113E-01 0.91532067E+02</pdfrwt>
<pdfrwt beam="2">  1       -3 0.17599571E-02 0.91532067E+02</pdfrwt>
<totfact> 0.28482711E+04</totfact>
</mgrwt>
</event>
<event>
 5    1  0.7431090E-001  0.9130405E+02  0.7818608E-02  0.1299724E+00
         -3   -1    0    0    0  501 -0.00000000000E+00  0.00000000000E+00  0.15420418287E+02  0.15420698725E+02  0.93000000000E-01 0.  1.
          3   -1    0    0  501    0  0.00000000000E+00 -0.00000000000E+00 -0.13515092256E+03  0.13515095456E+03  0.93000000000E-01 0. -1.
         23    2    1    2    0    0  0.00000000000E+00  0.00000000000E+00 -0.11973050427E+03  0.15057165328E+03  0.91304047658E+02 0.  0.
        -11    1    3    3    0    0 -0.99556876594E+01 -0.20238270239E+02 -0.12532120618E+03  0.12733463008E+03  0.51100000000E-03 0. -1.
         11    1    3    3    0    0  0.99556876594E+01  0.20238270239E+02  0.55907019096E+01  0.23237023199E+02  0.51100000000E-03 0.  1.
<mgrwt>
<rscale>  0 0.91304048E+02</rscale>
<asrwt>0</asrwt>
<pdfrwt beam="2">  1        3 0.20792473E-01 0.91304048E+02</pdfrwt>
<pdfrwt beam="1">  1       -3 0.23723962E-02 0.91304048E+02</pdfrwt>
<totfact> 0.31154026E+04</totfact>
</mgrwt>
</event>
<event>
 5    1  0.7431090E-001  0.9026308E+02  0.7818608E-02  0.1302216E+00
         -3   -1    0    0    0  501 -0.00000000000E+00  0.00000000000E+00  0.18662149714E+02  0.18662381438E+02  0.93000000000E-01 0.  1.
          3   -1    0    0  501    0  0.00000000000E+00 -0.00000000000E+00 -0.10914275076E+03  0.10914279038E+03  0.93000000000E-01 0. -1.
         23    2    1    2    0    0  0.00000000000E+00  0.00000000000E+00 -0.90480601045E+02  0.12780517182E+03  0.90263075388E+02 0.  0.
        -11    1    3    3    0    0 -0.68319827837E+01  0.36545857186E+02 -0.90143593690E+01  0.38256167363E+02  0.51100000000E-03 0.  1.
         11    1    3    3    0    0  0.68319827837E+01 -0.36545857186E+02 -0.81466241676E+02  0.89549004457E+02  0.51100000000E-03 0. -1.
<mgrwt>
<rscale>  0 0.90263075E+02</rscale>
<asrwt>0</asrwt>
<pdfrwt beam="2">  1        3 0.16791213E-01 0.90263075E+02</pdfrwt>
<pdfrwt beam="1">  1       -3 0.28711209E-02 0.90263075E+02</pdfrwt>
<totfact> 0.33625814E+04</totfact>
</mgrwt>
</event>
<event>
 5    1  0.7431090E-001  0.9190168E+02  0.7818608E-02  0.1298311E+00
         -3   -1    0    0    0  501 -0.00000000000E+00  0.00000000000E+00  0.13383427646E+02  0.13383750765E+02  0.93000000000E-01 0.  1.
          3   -1    0    0  501    0  0.00000000000E+00 -0.00000000000E+00 -0.15776597805E+03  0.15776600546E+03  0.93000000000E-01 0. -1.
         23    2    1    2    0    0  0.00000000000E+00  0.00000000000E+00 -0.14438255041E+03  0.17114975623E+03  0.91901676781E+02 0.  0.
        -11    1    3    3    0    0  0.30457895611E+02 -0.28816597437E+02 -0.37181765111E+02  0.56040729384E+02  0.51100000000E-03 0.  1.
         11    1    3    3    0    0 -0.30457895611E+02  0.28816597437E+02 -0.10720078530E+03  0.11510902685E+03  0.51100000000E-03 0. -1.
<mgrwt>
<rscale>  0 0.91901677E+02</rscale>
<asrwt>0</asrwt>
<pdfrwt beam="2">  1        3 0.24271715E-01 0.91901677E+02</pdfrwt>
<pdfrwt beam="1">  1       -3 0.20590160E-02 0.91901677E+02</pdfrwt>
<totfact> 0.29423165E+04</totfact>
</mgrwt>
</event>
<event>
 5    1  0.7431090E-001  0.9253604E+02  0.7818608E-02  0.1296824E+00
         -3   -1    0    0    0  501 -0.00000000000E+00  0.00000000000E+00  0.14054336039E+03  0.14054339116E+03  0.93000000000E-01 0.  1.
          3   -1    0    0  501    0  0.00000000000E+00 -0.00000000000E+00 -0.15231636508E+02  0.15231920421E+02  0.93000000000E-01 0. -1.
         23    2    1    2    0    0  0.00000000000E+00  0.00000000000E+00  0.12531172388E+03  0.15577531158E+03  0.92536044630E+02 0.  0.
        -11    1    3    3    0    0  0.24394459765E+02  0.22098811259E+02  0.79185744143E+01  0.33854851163E+02  0.51100000000E-03 0. -1.
         11    1    3    3    0    0 -0.24394459765E+02 -0.22098811259E+02  0.11739314946E+03  0.12192046041E+03  0.51100000000E-03 0.  1.
<mgrwt>
<rscale>  0 0.92536045E+02</rscale>
<asrwt>0</asrwt>
<pdfrwt beam="2">  1        3 0.23433530E-02 0.92536045E+02</pdfrwt>
<pdfrwt beam="1">  1       -3 0.21622079E-01 0.92536045E+02</pdfrwt>
<totfact> 0.29739918E+04</totfact>
</mgrwt>
</event>
<event>
 5    1  0.7431090E-001  0.9082142E+02  0.7818608E-02  0.1300875E+00
          3   -1    0    0  501    0  0.00000000000E+00  0.00000000000E+00  0.19236166504E+03  0.19236168752E+03  0.93000000000E-01 0. -1.
         -3   -1    0    0    0  501 -0.00000000000E+00 -0.00000000000E+00 -0.10719856750E+02  0.10720260152E+02  0.93000000000E-01 0.  1.
         23    2    1    2    0    0  0.00000000000E+00  0.00000000000E+00  0.18164180829E+03  0.20308194767E+03  0.90821423419E+02 0.  0.
        -11    1    3    3    0    0  0.40165287052E+02  0.15386849152E+02  0.58253636349E+02  0.72411957292E+02  0.51100000000E-03 0.  1.
         11    1    3    3    0    0 -0.40165287052E+02 -0.15386849152E+02  0.12338817194E+03  0.13066999038E+03  0.51100000000E-03 0. -1.
<mgrwt>
<rscale>  0 0.90821423E+02</rscale>
<asrwt>0</asrwt>
<pdfrwt beam="1">  1        3 0.29594137E-01 0.90821423E+02</pdfrwt>
<pdfrwt beam="2">  1       -3 0.16492414E-02 0.90821423E+02</pdfrwt>
<totfact> 0.28639963E+04</totfact>
</mgrwt>
</event>
<event>
 5    1  0.7431090E-001  0.9176665E+02  0.7818608E-02  0.1298629E+00
         -3   -1    0    0    0  501 -0.00000000000E+00  0.00000000000E+00  0.10287970505E+03  0.10287974709E+03  0.93000000000E-01 0.  1.
          3   -1    0    0  501    0  0.00000000000E+00 -0.00000000000E+00 -0.20463355783E+02  0.20463567111E+02  0.93000000000E-01 0. -1.
         23    2    1    2    0    0  0.00000000000E+00  0.00000000000E+00  0.82416349270E+02  0.12334331420E+03  0.91766652606E+02 0.  0.
        -11    1    3    3    0    0 -0.18945678608E+02  0.41553934396E+02  0.47160482176E+02  0.65648909215E+02  0.51100000000E-03 0.  1.
         11    1    3    3    0    0  0.18945678608E+02 -0.41553934396E+02  0.35255867094E+02  0.57694404985E+02  0.51100000000E-03 0. -1.
<mgrwt>
<rscale>  0 0.91766653E+02</rscale>
<asrwt>0</asrwt>
<pdfrwt beam="2">  1        3 0.31482281E-02 0.91766653E+02</pdfrwt>
<pdfrwt beam="1">  1       -3 0.15827666E-01 0.91766653E+02</pdfrwt>
<totfact> 0.32446662E+04</totfact>
</mgrwt>
</event>
<event>
 5    1  0.7431090E-001  0.9093840E+02  0.7818608E-02  0.1300595E+00
         -3   -1    0    0    0  501 -0.00000000000E+00  0.00000000000E+00  0.27260222786E+02  0.27260381424E+02  0.93000000000E-01 0.  1.
          3   -1    0    0  501    0  0.00000000000E+00 -0.00000000000E+00 -0.75840795928E+02  0.75840852949E+02  0.93000000000E-01 0. -1.
         23    2    1    2    0    0  0.00000000000E+00  0.00000000000E+00 -0.48580573142E+02  0.10310123437E+03  0.90938399163E+02 0.  0.
        -11    1    3    3    0    0 -0.20184043634E+02 -0.40014236041E+02 -0.15588195395E+02  0.47450253311E+02  0.51100000000E-03 0.  1.
         11    1    3    3    0    0  0.20184043634E+02  0.40014236041E+02 -0.32992377747E+02  0.55650981061E+02  0.51100000000E-03 0. -1.
<mgrwt>
<rscale>  0 0.90938399E+02</rscale>
<asrwt>0</asrwt>
<pdfrwt beam="2">  1        3 0.11667831E-01 0.90938399E+02</pdfrwt>
<pdfrwt beam="1">  1       -3 0.41938971E-02 0.90938399E+02</pdfrwt>
<totfact> 0.34689123E+04</totfact>
</mgrwt>
</event>
<event>
 5    1  0.7431090E-001  0.9121306E+02  0.7818608E-02  0.1299940E+00
          3   -1    0    0  501    0  0.00000000000E+00  0.00000000000E+00  0.68877029469E+02  0.68877092255E+02  0.93000000000E-01 0. -1.
         -3   -1    0    0    0  501 -0.00000000000E+00 -0.00000000000E+00 -0.30197957001E+02  0.30198100206E+02  0.93000000000E-01 0.  1.
         23    2    1    2    0    0  0.00000000000E+00  0.00000000000E+00  0.38679072468E+02  0.99075192461E+02  0.91213064383E+02 0.  0.
        -11    1    3    3    0    0 -0.14470941528E+02 -0.12505439608E+02  0.64310662100E+02  0.67094377026E+02  0.51100000000E-03 0. -1.
         11    1    3    3    0    0  0.14470941528E+02  0.12505439608E+02 -0.25631589632E+02  0.31980815434E+02  0.51100000000E-03 0.  1.
<mgrwt>
<rscale>  0 0.91213064E+02</rscale>
<asrwt>0</asrwt>
<pdfrwt beam="1">  1        3 0.10596482E-01 0.91213064E+02</pdfrwt>
<pdfrwt beam="2">  1       -3 0.46458554E-02 0.91213064E+02</pdfrwt>
<totfact> 0.34702098E+04</totfact>
</mgrwt>
</event>
<event>
 5    1  0.7431090E-001  0.9298340E+02  0.7818608E-02  0.1295784E+00
          3   -1    0    0  501    0  0.00000000000E+00  0.00000000000E+00  0.30513272263E+02  0.30513413988E+02  0.93000000000E-01 0. -1.
         -3   -1    0    0    0  501 -0.00000000000E+00 -0.00000000000E+00 -0.70836968199E+02  0.70837029248E+02  0.93000000000E-01 0.  1.
         23    2    1    2    0    0  0.00000000000E+00  0.00000000000E+00 -0.40323695936E+02  0.10135044324E+03  0.92983395776E+02 0.  0.
        -11    1    3    3    0    0 -0.25391053862E+02  0.15497806377E+02  0.18782642747E+02  0.35180609539E+02  0.51100000000E-03 0. -1.
         11    1    3    3    0    0  0.25391053862E+02 -0.15497806377E+02 -0.59106338683E+02  0.66169833697E+02  0.51100000000E-03 0.  1.
<mgrwt>
<rscale>  0 0.92983396E+02</rscale>
<asrwt>0</asrwt>
<pdfrwt beam="1">  1        3 0.46943652E-02 0.92983396E+02</pdfrwt>
<pdfrwt beam="2">  1       -3 0.10898011E-01 0.92983396E+02</pdfrwt>
<totfact> 0.32770000E+04</totfact>
</mgrwt>
</event>
<event>
 5    1  0.7431090E-001  0.9102222E+02  0.7818608E-02  0.1300395E+00
         -3   -1    0    0    0  501 -0.00000000000E+00  0.00000000000E+00  0.82208221138E+02  0.82208273742E+02  0.93000000000E-01 0.  1.
          3   -1    0    0  501    0  0.00000000000E+00 -0.00000000000E+00 -0.25195158772E+02  0.25195330412E+02  0.93000000000E-01 0. -1.
         23    2    1    2    0    0  0.00000000000E+00  0.00000000000E+00  0.57013062366E+02  0.10740360415E+03  0.91022222040E+02 0.  0.
        -11    1    3    3    0    0  0.27905691477E+02 -0.27286361869E+02  0.56128648909E+02  0.68364452674E+02  0.51100000000E-03 0.  1.
         11    1    3    3    0    0 -0.27905691477E+02  0.27286361869E+02  0.88441345634E+00  0.39039151480E+02  0.51100000000E-03 0. -1.
<mgrwt>
<rscale>  0 0.91022222E+02</rscale>
<asrwt>0</asrwt>
<pdfrwt beam="2">  1        3 0.38761956E-02 0.91022222E+02</pdfrwt>
<pdfrwt beam="1">  1       -3 0.12647436E-01 0.91022222E+02</pdfrwt>
<totfact> 0.34290404E+04</totfact>
</mgrwt>
</event>
<event>
 5    1  0.7431090E-001  0.8894289E+02  0.7818608E-02  0.1305432E+00
          3   -1    0    0  501    0  0.00000000000E+00  0.00000000000E+00  0.64352402255E+02  0.64352469455E+02  0.93000000000E-01 0. -1.
         -3   -1    0    0    0  501 -0.00000000000E+00 -0.00000000000E+00 -0.30732336883E+02  0.30732477598E+02  0.93000000000E-01 0.  1.
         23    2    1    2    0    0  0.00000000000E+00  0.00000000000E+00  0.33620065372E+02  0.95084947053E+02  0.88942893817E+02 0.  0.
        -11    1    3    3    0    0  0.73348037906E+01 -0.40241760081E+02  0.35465322416E+02  0.54138597095E+02  0.51100000000E-03 0. -1.
         11    1    3    3    0    0 -0.73348037906E+01  0.40241760081E+02 -0.18452570446E+01  0.40946349958E+02  0.51100000000E-03 0.  1.
<mgrwt>
<rscale>  0 0.88942894E+02</rscale>
<asrwt>0</asrwt>
<pdfrwt beam="1">  1        3 0.99003855E-02 0.88942894E+02</pdfrwt>
<pdfrwt beam="2">  1       -3 0.47280678E-02 0.88942894E+02</pdfrwt>
<totfact> 0.37480922E+04</totfact>
</mgrwt>
</event>
<event>
 5    1  0.7431090E-001  0.9033732E+02  0.7818608E-02  0.1302037E+00
         -3   -1    0    0    0  501 -0.00000000000E+00  0.00000000000E+00  0.20649104747E+03  0.20649106841E+03  0.93000000000E-01 0.  1.
          3   -1    0    0  501    0  0.00000000000E+00 -0.00000000000E+00 -0.98801293630E+01  0.98805670500E+01  0.93000000000E-01 0. -1.
         23    2    1    2    0    0  0.00000000000E+00  0.00000000000E+00  0.19661091810E+03  0.21637163546E+03  0.90337320715E+02 0.  0.
        -11    1    3    3    0    0  0.44376054740E+02  0.32423564821E+01  0.79681588128E+02  0.91262821547E+02  0.51100000000E-03 0.  1.
         11    1    3    3    0    0 -0.44376054740E+02 -0.32423564821E+01  0.11692932998E+03  0.12510881391E+03  0.51100000000E-03 0. -1.
<mgrwt>
<rscale>  0 0.90337321E+02</rscale>
<asrwt>0</asrwt>
<pdfrwt beam="2">  1        3 0.15200553E-02 0.90337321E+02</pdfrwt>
<pdfrwt beam="1">  1       -3 0.31767887E-01 0.90337321E+02</pdfrwt>
<totfact> 0.28368999E+04</totfact>
</mgrwt>
</event>
<event>
 5    1  0.7431090E-001  0.9682480E+02  0.7818608E-02  0.1287118E+00
         -3   -1    0    0    0  501 -0.00000000000E+00  0.00000000000E+00  0.42994431864E+03  0.42994432869E+03  0.93000000000E-01 0.  1.
          3   -1    0    0  501    0  0.00000000000E+00 -0.00000000000E+00 -0.54509053475E+01  0.54516986442E+01  0.93000000000E-01 0. -1.
         23    2    1    2    0    0  0.00000000000E+00  0.00000000000E+00  0.42449341329E+03  0.43539602734E+03  0.96824804140E+02 0.  0.
        -11    1    3    3    0    0 -0.45488413001E+02  0.11726004031E+02  0.15960107199E+03  0.16637066169E+03  0.51100000000E-03 0.  1.
         11    1    3    3    0    0  0.45488413001E+02 -0.11726004031E+02  0.26489234129E+03  0.26902536565E+03  0.51100000000E-03 0. -1.
<mgrwt>
<rscale>  0 0.96824804E+02</rscale>
<asrwt>0</asrwt>
<pdfrwt beam="2">  1        3 0.83866242E-03 0.96824804E+02</pdfrwt>
<pdfrwt beam="1">  1       -3 0.66145357E-01 0.96824804E+02</pdfrwt>
<totfact> 0.16656188E+04</totfact>
</mgrwt>
</event>
<event>
 5    1  0.7431090E-001  0.9065313E+02  0.7818608E-02  0.1301278E+00
         -3   -1    0    0    0  501 -0.00000000000E+00  0.00000000000E+00  0.40196860727E+03  0.40196861803E+03  0.93000000000E-01 0.  1.
          3   -1    0    0  501    0  0.00000000000E+00 -0.00000000000E+00 -0.51106552217E+01  0.51115013250E+01  0.93000000000E-01 0. -1.
         23    2    1    2    0    0  0.00000000000E+00  0.00000000000E+00  0.39685795205E+03  0.40708011936E+03  0.90653127187E+02 0.  0.
        -11    1    3    3    0    0  0.41965162146E+02 -0.16867022469E+02  0.21184511775E+03  0.21661930937E+03  0.51100000000E-03 0.  1.
         11    1    3    3    0    0 -0.41965162146E+02  0.16867022469E+02  0.18501283430E+03  0.19046080998E+03  0.51100000000E-03 0. -1.
<mgrwt>
<rscale>  0 0.90653127E+02</rscale>
<asrwt>0</asrwt>
<pdfrwt beam="2">  1        3 0.78632036E-03 0.90653127E+02</pdfrwt>
<pdfrwt beam="1">  1       -3 0.61841406E-01 0.90653127E+02</pdfrwt>
<totfact> 0.20703910E+04</totfact>
</mgrwt>
</event>
<event>
 5    1  0.7431090E-001  0.9046378E+02  0.7818608E-02  0.1301732E+00
         -3   -1    0    0    0  501 -0.00000000000E+00  0.00000000000E+00  0.59658245544E+02  0.59658318032E+02  0.93000000000E-01 0.  1.
          3   -1    0    0  501    0  0.00000000000E+00 -0.00000000000E+00 -0.34293907273E+02  0.34294033374E+02  0.93000000000E-01 0. -1.
         23    2    1    2    0    0  0.00000000000E+00  0.00000000000E+00  0.25364338271E+02  0.93952351407E+02  0.90463775507E+02 0.  0.
        -11    1    3    3    0    0 -0.40366346638E+02 -0.19681138625E+02  0.18287958965E+02  0.48489572094E+02  0.51100000000E-03 0.  1.
         11    1    3    3    0    0  0.40366346638E+02  0.19681138625E+02  0.70763793059E+01  0.45462779313E+02  0.51100000000E-03 0. -1.
<mgrwt>
<rscale>  0 0.90463776E+02</rscale>
<asrwt>0</asrwt>
<pdfrwt beam="2">  1        3 0.52760010E-02 0.90463776E+02</pdfrwt>
<pdfrwt beam="1">  1       -3 0.91782068E-02 0.90463776E+02</pdfrwt>
<totfact> 0.35885072E+04</totfact>
</mgrwt>
</event>
<event>
 5    1  0.7431090E-001  0.9177453E+02  0.7818608E-02  0.1298610E+00
          3   -1    0    0  501    0  0.00000000000E+00  0.00000000000E+00  0.18303357712E+02  0.18303593979E+02  0.93000000000E-01 0. -1.
         -3   -1    0    0    0  501 -0.00000000000E+00 -0.00000000000E+00 -0.11504025633E+03  0.11504029392E+03  0.93000000000E-01 0.  1.
         23    2    1    2    0    0  0.00000000000E+00  0.00000000000E+00 -0.96736898616E+02  0.13334388790E+03  0.91774532883E+02 0.  0.
        -11    1    3    3    0    0 -0.12779104280E+02 -0.13116856053E+02  0.12764081981E+02  0.22322168532E+02  0.51100000000E-03 0. -1.
         11    1    3    3    0    0  0.12779104280E+02  0.13116856053E+02 -0.10950098060E+03  0.11102171937E+03  0.51100000000E-03 0.  1.
<mgrwt>
<rscale>  0 0.91774533E+02</rscale>
<asrwt>0</asrwt>
<pdfrwt beam="1">  1        3 0.28159223E-02 0.91774533E+02</pdfrwt>
<pdfrwt beam="2">  1       -3 0.17698521E-01 0.91774533E+02</pdfrwt>
<totfact> 0.31789323E+04</totfact>
</mgrwt>
</event>
<event>
 5    1  0.7431090E-001  0.9104888E+02  0.7818608E-02  0.1300331E+00
          3   -1    0    0  501    0  0.00000000000E+00  0.00000000000E+00  0.82385132997E+02  0.82385185488E+02  0.93000000000E-01 0. -1.
         -3   -1    0    0    0  501 -0.00000000000E+00 -0.00000000000E+00 -0.25155786220E+02  0.25155958128E+02  0.93000000000E-01 0.  1.
         23    2    1    2    0    0  0.00000000000E+00  0.00000000000E+00  0.57229346777E+02  0.10754114362E+03  0.91048884879E+02 0.  0.
        -11    1    3    3    0    0 -0.31545706324E+02  0.27175412120E+02  0.68727723472E+01  0.42200350845E+02  0.51100000000E-03 0.  1.
         11    1    3    3    0    0  0.31545706324E+02 -0.27175412120E+02  0.50356574430E+02  0.65340792771E+02  0.51100000000E-03 0. -1.
<mgrwt>
<rscale>  0 0.91048885E+02</rscale>
<asrwt>0</asrwt>
<pdfrwt beam="1">  1        3 0.12674653E-01 0.91048885E+02</pdfrwt>
<pdfrwt beam="2">  1       -3 0.38701383E-02 0.91048885E+02</pdfrwt>
<totfact> 0.34251532E+04</totfact>
</mgrwt>
</event>
<event>
 5    1  0.7431090E-001  0.9104277E+02  0.7818608E-02  0.1300346E+00
         -3   -1    0    0    0  501 -0.00000000000E+00  0.00000000000E+00  0.20093247724E+02  0.20093462944E+02  0.93000000000E-01 0.  1.
          3   -1    0    0  501    0  0.00000000000E+00 -0.00000000000E+00 -0.10312820512E+03  0.10312824706E+03  0.93000000000E-01 0. -1.
         23    2    1    2    0    0  0.00000000000E+00  0.00000000000E+00 -0.83034957398E+02  0.12322171000E+03  0.91042768329E+02 0.  0.
        -11    1    3    3    0    0  0.20277144658E+02 -0.23431681859E+02  0.36153171932E+01  0.31197384969E+02  0.51100000000E-03 0. -1.
         11    1    3    3    0    0 -0.20277144658E+02  0.23431681859E+02 -0.86650274591E+02  0.92024325030E+02  0.51100000000E-03 0.  1.
<mgrwt>
<rscale>  0 0.91042768E+02</rscale>
<asrwt>0</asrwt>
<pdfrwt beam="2">  1        3 0.15865897E-01 0.91042768E+02</pdfrwt>
<pdfrwt beam="1">  1       -3 0.30912887E-02 0.91042768E+02</pdfrwt>
<totfact> 0.33159806E+04</totfact>
</mgrwt>
</event>
<event>
 5    1  0.7431090E-001  0.9092894E+02  0.7818608E-02  0.1300618E+00
          3   -1    0    0  501    0  0.00000000000E+00  0.00000000000E+00  0.17207557973E+03  0.17207560486E+03  0.93000000000E-01 0. -1.
         -3   -1    0    0    0  501 -0.00000000000E+00 -0.00000000000E+00 -0.12012061837E+02  0.12012421845E+02  0.93000000000E-01 0.  1.
         23    2    1    2    0    0  0.00000000000E+00  0.00000000000E+00  0.16006351789E+03  0.18408802670E+03  0.90928938277E+02 0.  0.
        -11    1    3    3    0    0  0.26571643647E+02 -0.36787513147E+02  0.74434178348E+02  0.87176948079E+02  0.51100000000E-03 0.  1.
         11    1    3    3    0    0 -0.26571643647E+02  0.36787513147E+02  0.85629339541E+02  0.96911078624E+02  0.51100000000E-03 0. -1.
<mgrwt>
<rscale>  0 0.90928938E+02</rscale>
<asrwt>0</asrwt>
<pdfrwt beam="1">  1        3 0.26473195E-01 0.90928938E+02</pdfrwt>
<pdfrwt beam="2">  1       -3 0.18480392E-02 0.90928938E+02</pdfrwt>
<totfact> 0.29558928E+04</totfact>
</mgrwt>
</event>
<event>
 5    1  0.7431090E-001  0.1260902E+03  0.7818608E-02  0.1233375E+00
         -3   -1    0    0    0  501 -0.00000000000E+00  0.00000000000E+00  0.94092824609E+02  0.94092870569E+02  0.93000000000E-01 0.  1.
          3   -1    0    0  501    0  0.00000000000E+00 -0.00000000000E+00 -0.42242048908E+02  0.42242151283E+02  0.93000000000E-01 0. -1.
         23    2    1    2    0    0  0.00000000000E+00  0.00000000000E+00  0.51850775701E+02  0.13633502185E+03  0.12609018694E+03 0.  0.
        -11    1    3    3    0    0  0.76852907755E+01 -0.56539635179E+02 -0.30652182530E+01  0.57141837595E+02  0.51100000000E-03 0.  1.
         11    1    3    3    0    0 -0.76852907755E+01  0.56539635179E+02  0.54915993954E+02  0.79193184257E+02  0.51100000000E-03 0. -1.
<mgrwt>
<rscale>  0 0.12609019E+03</rscale>
<asrwt>0</asrwt>
<pdfrwt beam="2">  1        3 0.64987883E-02 0.12609019E+03</pdfrwt>
<pdfrwt beam="1">  1       -3 0.14475830E-01 0.12609019E+03</pdfrwt>
<totfact> 0.13114102E+04</totfact>
</mgrwt>
</event>
<event>
 5    1  0.7431090E-001  0.9041204E+02  0.7818608E-02  0.1301857E+00
          3   -1    0    0  501    0  0.00000000000E+00  0.00000000000E+00  0.18071677484E+02  0.18071916780E+02  0.93000000000E-01 0. -1.
         -3   -1    0    0    0  501 -0.00000000000E+00 -0.00000000000E+00 -0.11308114582E+03  0.11308118406E+03  0.93000000000E-01 0.  1.
         23    2    1    2    0    0  0.00000000000E+00  0.00000000000E+00 -0.95009468336E+02  0.13115310084E+03  0.90412038950E+02 0.  0.
        -11    1    3    3    0    0 -0.28731061227E+02  0.31980961874E+02 -0.27230941996E+02  0.50889881154E+02  0.51100000000E-03 0. -1.
         11    1    3    3    0    0  0.28731061227E+02 -0.31980961874E+02 -0.67778526340E+02  0.80263219688E+02  0.51100000000E-03 0.  1.
<mgrwt>
<rscale>  0 0.90412039E+02</rscale>
<asrwt>0</asrwt>
<pdfrwt beam="1">  1        3 0.27802795E-02 0.90412039E+02</pdfrwt>
<pdfrwt beam="2">  1       -3 0.17397120E-01 0.90412039E+02</pdfrwt>
<totfact> 0.33251714E+04</totfact>
</mgrwt>
</event>
<event>
 5    1  0.7431090E-001  0.9086933E+02  0.7818608E-02  0.1300760E+00
          3   -1    0    0  501    0  0.00000000000E+00  0.00000000000E+00  0.89225409379E+02  0.89225457846E+02  0.93000000000E-01 0. -1.
         -3   -1    0    0    0  501 -0.00000000000E+00 -0.00000000000E+00 -0.23135736757E+02  0.23135923675E+02  0.93000000000E-01 0.  1.
         23    2    1    2    0    0  0.00000000000E+00  0.00000000000E+00  0.66089672622E+02  0.11236138152E+03  0.90869330524E+02 0.  0.
        -11    1    3    3    0    0  0.30182208434E+02  0.36836078918E+01  0.74790285683E+02  0.80734884070E+02  0.51100000000E-03 0. -1.
         11    1    3    3    0    0 -0.30182208434E+02 -0.36836078918E+01 -0.87006130609E+01  0.31626497450E+02  0.51100000000E-03 0.  1.
<mgrwt>
<rscale>  0 0.90869331E+02</rscale>
<asrwt>0</asrwt>
<pdfrwt beam="1">  1        3 0.13727004E-01 0.90869331E+02</pdfrwt>
<pdfrwt beam="2">  1       -3 0.35593622E-02 0.90869331E+02</pdfrwt>
<totfact> 0.34088552E+04</totfact>
</mgrwt>
</event>
<event>
 5    1  0.7431090E-001  0.9081491E+02  0.7818608E-02  0.1300890E+00
          3   -1    0    0  501    0  0.00000000000E+00  0.00000000000E+00  0.75828683756E+02  0.75828740786E+02  0.93000000000E-01 0. -1.
         -3   -1    0    0    0  501 -0.00000000000E+00 -0.00000000000E+00 -0.27190577849E+02  0.27190736892E+02  0.93000000000E-01 0.  1.
         23    2    1    2    0    0  0.00000000000E+00  0.00000000000E+00  0.48638105907E+02  0.10301947768E+03  0.90814907558E+02 0.  0.
        -11    1    3    3    0    0  0.46703834790E+01 -0.45033769439E+02  0.28246070646E+02  0.53363783402E+02  0.51100000000E-03 0.  1.
         11    1    3    3    0    0 -0.46703834790E+01  0.45033769439E+02  0.20392035261E+02  0.49655694276E+02  0.51100000000E-03 0. -1.
<mgrwt>
<rscale>  0 0.90814908E+02</rscale>
<asrwt>0</asrwt>
<pdfrwt beam="1">  1        3 0.11665968E-01 0.90814908E+02</pdfrwt>
<pdfrwt beam="2">  1       -3 0.41831825E-02 0.90814908E+02</pdfrwt>
<totfact> 0.34823366E+04</totfact>
</mgrwt>
</event>
<event>
 5    1  0.7431090E-001  0.9451425E+02  0.7818608E-02  0.1292274E+00
          3   -1    0    0  501    0  0.00000000000E+00  0.00000000000E+00  0.36741284147E+02  0.36741401848E+02  0.93000000000E-01 0. -1.
         -3   -1    0    0    0  501 -0.00000000000E+00 -0.00000000000E+00 -0.60782481898E+02  0.60782553045E+02  0.93000000000E-01 0.  1.
         23    2    1    2    0    0  0.00000000000E+00  0.00000000000E+00 -0.24041197751E+02  0.97523954893E+02  0.94514245428E+02 0.  0.
        -11    1    3    3    0    0  0.33355889686E+02  0.13490919713E+02 -0.43633027440E+02  0.56554941210E+02  0.51100000000E-03 0.  1.
         11    1    3    3    0    0 -0.33355889686E+02 -0.13490919713E+02  0.19591829688E+02  0.40969013684E+02  0.51100000000E-03 0. -1.
<mgrwt>
<rscale>  0 0.94514245E+02</rscale>
<asrwt>0</asrwt>
<pdfrwt beam="1">  1        3 0.56525198E-02 0.94514245E+02</pdfrwt>
<pdfrwt beam="2">  1       -3 0.93511656E-02 0.94514245E+02</pdfrwt>
<totfact> 0.31595973E+04</totfact>
</mgrwt>
</event>
<event>
 5    1  0.7431090E-001  0.9158900E+02  0.7818608E-02  0.1299049E+00
          3   -1    0    0  501    0  0.00000000000E+00  0.00000000000E+00  0.49125774172E+02  0.49125862201E+02  0.93000000000E-01 0. -1.
         -3   -1    0    0    0  501 -0.00000000000E+00 -0.00000000000E+00 -0.42688944960E+02  0.42689046263E+02  0.93000000000E-01 0.  1.
         23    2    1    2    0    0  0.00000000000E+00  0.00000000000E+00  0.64368292120E+01  0.91814908464E+02  0.91588998498E+02 0.  0.
        -11    1    3    3    0    0  0.82177014441E+01  0.33363696188E+02 -0.27129500542E+02  0.43779865695E+02  0.51100000000E-03 0.  1.
         11    1    3    3    0    0 -0.82177014441E+01 -0.33363696188E+02  0.33566329754E+02  0.48035042769E+02  0.51100000000E-03 0. -1.
<mgrwt>
<rscale>  0 0.91588998E+02</rscale>
<asrwt>0</asrwt>
<pdfrwt beam="1">  1        3 0.75578260E-02 0.91588998E+02</pdfrwt>
<pdfrwt beam="2">  1       -3 0.65675445E-02 0.91588998E+02</pdfrwt>
<totfact> 0.34857730E+04</totfact>
</mgrwt>
</event>
<event>
 5    1  0.7431090E-001  0.8825521E+02  0.7818608E-02  0.1307133E+00
          3   -1    0    0  501    0  0.00000000000E+00  0.00000000000E+00  0.30206385485E+02  0.30206528650E+02  0.93000000000E-01 0. -1.
         -3   -1    0    0    0  501 -0.00000000000E+00 -0.00000000000E+00 -0.64464372194E+02  0.64464439278E+02  0.93000000000E-01 0.  1.
         23    2    1    2    0    0  0.00000000000E+00  0.00000000000E+00 -0.34257986709E+02  0.94670967927E+02  0.88255212395E+02 0.  0.
        -11    1    3    3    0    0 -0.15763819822E+02  0.50545739041E+00 -0.61337741977E+02  0.63333025300E+02  0.51100000000E-03 0.  1.
         11    1    3    3    0    0  0.15763819822E+02 -0.50545739041E+00  0.27079755267E+02  0.31337942628E+02  0.51100000000E-03 0. -1.
<mgrwt>
<rscale>  0 0.88255212E+02</rscale>
<asrwt>0</asrwt>
<pdfrwt beam="1">  1        3 0.46471524E-02 0.88255212E+02</pdfrwt>
<pdfrwt beam="2">  1       -3 0.99176118E-02 0.88255212E+02</pdfrwt>
<totfact> 0.38313444E+04</totfact>
</mgrwt>
</event>
<event>
 5    1  0.7431090E-001  0.9032366E+02  0.7818608E-02  0.1302070E+00
         -3   -1    0    0    0  501 -0.00000000000E+00  0.00000000000E+00  0.29422411824E+02  0.29422558804E+02  0.93000000000E-01 0.  1.
          3   -1    0    0  501    0  0.00000000000E+00 -0.00000000000E+00 -0.69320639788E+02  0.69320702172E+02  0.93000000000E-01 0. -1.
         23    2    1    2    0    0  0.00000000000E+00  0.00000000000E+00 -0.39898227963E+02  0.98743260975E+02  0.90323656887E+02 0.  0.
        -11    1    3    3    0    0 -0.66555386162E+01  0.25660351483E+02 -0.59920188001E+02  0.65522353154E+02  0.51100000000E-03 0. -1.
         11    1    3    3    0    0  0.66555386162E+01 -0.25660351483E+02  0.20021960037E+02  0.33220907822E+02  0.51100000000E-03 0.  1.
<mgrwt>
<rscale>  0 0.90323657E+02</rscale>
<asrwt>0</asrwt>
<pdfrwt beam="2">  1        3 0.10664730E-01 0.90323657E+02</pdfrwt>
<pdfrwt beam="1">  1       -3 0.45265410E-02 0.90323657E+02</pdfrwt>
<totfact> 0.35664072E+04</totfact>
</mgrwt>
</event>
<event>
 5    1  0.7431090E-001  0.9112956E+02  0.7818608E-02  0.1300139E+00
         -3   -1    0    0    0  501 -0.00000000000E+00  0.00000000000E+00  0.26997881171E+02  0.26998041349E+02  0.93000000000E-01 0.  1.
          3   -1    0    0  501    0  0.00000000000E+00 -0.00000000000E+00 -0.76900028928E+02  0.76900085163E+02  0.93000000000E-01 0. -1.
         23    2    1    2    0    0  0.00000000000E+00  0.00000000000E+00 -0.49902147757E+02  0.10389812651E+03  0.91129558004E+02 0.  0.
        -11    1    3    3    0    0 -0.25344943320E+02  0.19205544574E+02 -0.62156731186E+02  0.69818896627E+02  0.51100000000E-03 0. -1.
         11    1    3    3    0    0  0.25344943320E+02 -0.19205544574E+02  0.12254583429E+02  0.34079229885E+02  0.51100000000E-03 0.  1.
<mgrwt>
<rscale>  0 0.91129558E+02</rscale>
<asrwt>0</asrwt>
<pdfrwt beam="2">  1        3 0.11830790E-01 0.91129558E+02</pdfrwt>
<pdfrwt beam="1">  1       -3 0.41535369E-02 0.91129558E+02</pdfrwt>
<totfact> 0.34433196E+04</totfact>
</mgrwt>
</event>
<event>
 5    1  0.7431090E-001  0.9305670E+02  0.7818608E-02  0.1295614E+00
         -3   -1    0    0    0  501 -0.00000000000E+00  0.00000000000E+00  0.19331772368E+02  0.19331996066E+02  0.93000000000E-01 0.  1.
          3   -1    0    0  501    0  0.00000000000E+00 -0.00000000000E+00 -0.11198508499E+03  0.11198512361E+03  0.93000000000E-01 0. -1.
         23    2    1    2    0    0  0.00000000000E+00  0.00000000000E+00 -0.92653312627E+02  0.13131711968E+03  0.93056700886E+02 0.  0.
        -11    1    3    3    0    0  0.41805721453E+02 -0.16422890114E+02 -0.63462577929E+02  0.77749138025E+02  0.51100000000E-03 0. -1.
         11    1    3    3    0    0 -0.41805721453E+02  0.16422890114E+02 -0.29190734697E+02  0.53567981653E+02  0.51100000000E-03 0.  1.
<mgrwt>
<rscale>  0 0.93056701E+02</rscale>
<asrwt>0</asrwt>
<pdfrwt beam="2">  1        3 0.17228494E-01 0.93056701E+02</pdfrwt>
<pdfrwt beam="1">  1       -3 0.29741391E-02 0.93056701E+02</pdfrwt>
<totfact> 0.30734985E+04</totfact>
</mgrwt>
</event>
<event>
 5    1  0.7431090E-001  0.9022325E+02  0.7818608E-02  0.1302312E+00
          3   -1    0    0  501    0  0.00000000000E+00  0.00000000000E+00  0.33008176279E+02  0.33008307291E+02  0.93000000000E-01 0. -1.
         -3   -1    0    0    0  501 -0.00000000000E+00 -0.00000000000E+00 -0.61652877167E+02  0.61652947309E+02  0.93000000000E-01 0.  1.
         23    2    1    2    0    0  0.00000000000E+00  0.00000000000E+00 -0.28644700888E+02  0.94661254601E+02  0.90223246637E+02 0.  0.
        -11    1    3    3    0    0 -0.11328333495E+02  0.30850412963E+02 -0.46745172715E+02  0.57141843619E+02  0.51100000000E-03 0.  1.
         11    1    3    3    0    0  0.11328333495E+02 -0.30850412963E+02  0.18100471827E+02  0.37519410982E+02  0.51100000000E-03 0. -1.
<mgrwt>
<rscale>  0 0.90223247E+02</rscale>
<asrwt>0</asrwt>
<pdfrwt beam="1">  1        3 0.50781965E-02 0.90223247E+02</pdfrwt>
<pdfrwt beam="2">  1       -3 0.94850735E-02 0.90223247E+02</pdfrwt>
<totfact> 0.36089764E+04</totfact>
</mgrwt>
</event>
<event>
 5    1  0.7431090E-001  0.8971798E+02  0.7818608E-02  0.1303536E+00
         -3   -1    0    0    0  501 -0.00000000000E+00  0.00000000000E+00  0.64501844293E+02  0.64501911338E+02  0.93000000000E-01 0.  1.
          3   -1    0    0  501    0  0.00000000000E+00 -0.00000000000E+00 -0.31197852622E+02  0.31197991237E+02  0.93000000000E-01 0. -1.
         23    2    1    2    0    0  0.00000000000E+00  0.00000000000E+00  0.33303991671E+02  0.95699902575E+02  0.89717977527E+02 0.  0.
        -11    1    3    3    0    0 -0.43704924381E+02 -0.55153421912E+01  0.25689788166E+02  0.50995143209E+02  0.51100000000E-03 0.  1.
         11    1    3    3    0    0  0.43704924381E+02  0.55153421912E+01  0.76142035053E+01  0.44704759366E+02  0.51100000000E-03 0. -1.
<mgrwt>
<rscale>  0 0.89717978E+02</rscale>
<asrwt>0</asrwt>
<pdfrwt beam="2">  1        3 0.47996855E-02 0.89717978E+02</pdfrwt>
<pdfrwt beam="1">  1       -3 0.99233765E-02 0.89717978E+02</pdfrwt>
<totfact> 0.36561673E+04</totfact>
</mgrwt>
</event>
<event>
 5    1  0.7431090E-001  0.7875742E+02  0.7818608E-02  0.1332615E+00
         -3   -1    0    0    0  501 -0.00000000000E+00  0.00000000000E+00  0.34031460912E+02  0.34031587985E+02  0.93000000000E-01 0.  1.
          3   -1    0    0  501    0  0.00000000000E+00 -0.00000000000E+00 -0.45565894894E+02  0.45565989800E+02  0.93000000000E-01 0. -1.
         23    2    1    2    0    0  0.00000000000E+00  0.00000000000E+00 -0.11534433982E+02  0.79597577785E+02  0.78757420107E+02 0.  0.
        -11    1    3    3    0    0  0.19886288904E+02  0.16397904434E+02  0.24321617983E+02  0.35438635101E+02  0.51100000000E-03 0.  1.
         11    1    3    3    0    0 -0.19886288904E+02 -0.16397904434E+02 -0.35856051965E+02  0.44158942684E+02  0.51100000000E-03 0. -1.
<mgrwt>
<rscale>  0 0.78757420E+02</rscale>
<asrwt>0</asrwt>
<pdfrwt beam="2">  1        3 0.70101548E-02 0.78757420E+02</pdfrwt>
<pdfrwt beam="1">  1       -3 0.52356264E-02 0.78757420E+02</pdfrwt>
<totfact> 0.53849353E+04</totfact>
</mgrwt>
</event>
<event>
 5    1  0.7431090E-001  0.9319482E+02  0.7818608E-02  0.1295294E+00
         -3   -1    0    0    0  501 -0.00000000000E+00  0.00000000000E+00  0.29755348347E+02  0.29755493682E+02  0.93000000000E-01 0.  1.
          3   -1    0    0  501    0  0.00000000000E+00 -0.00000000000E+00 -0.72972035638E+02  0.72972094901E+02  0.93000000000E-01 0. -1.
         23    2    1    2    0    0  0.00000000000E+00  0.00000000000E+00 -0.43216687291E+02  0.10272758858E+03  0.93194824940E+02 0.  0.
        -11    1    3    3    0    0 -0.45970164468E+02 -0.38411445243E+01 -0.28862410398E+02  0.54415523031E+02  0.51100000000E-03 0. -1.
         11    1    3    3    0    0  0.45970164468E+02  0.38411445243E+01 -0.14354276893E+02  0.48312065551E+02  0.51100000000E-03 0.  1.
<mgrwt>
<rscale>  0 0.93194825E+02</rscale>
<asrwt>0</asrwt>
<pdfrwt beam="2">  1        3 0.11226483E-01 0.93194825E+02</pdfrwt>
<pdfrwt beam="1">  1       -3 0.45777617E-02 0.93194825E+02</pdfrwt>
<totfact> 0.32471082E+04</totfact>
</mgrwt>
</event>
<event>
 5    1  0.7431090E-001  0.9164478E+02  0.7818608E-02  0.1298917E+00
          3   -1    0    0  501    0  0.00000000000E+00  0.00000000000E+00  0.14565929888E+03  0.14565932857E+03  0.93000000000E-01 0. -1.
         -3   -1    0    0    0  501 -0.00000000000E+00 -0.00000000000E+00 -0.14414905214E+02  0.14415205213E+02  0.93000000000E-01 0.  1.
         23    2    1    2    0    0  0.00000000000E+00  0.00000000000E+00  0.13124439367E+03  0.16007453379E+03  0.91644778887E+02 0.  0.
        -11    1    3    3    0    0 -0.56846589408E+01  0.40289072511E+02  0.28810359220E+02  0.49855406023E+02  0.51100000000E-03 0.  1.
         11    1    3    3    0    0  0.56846589408E+01 -0.40289072511E+02  0.10243403445E+03  0.11021912776E+03  0.51100000000E-03 0. -1.
<mgrwt>
<rscale>  0 0.91644779E+02</rscale>
<asrwt>0</asrwt>
<pdfrwt beam="1">  1        3 0.22409147E-01 0.91644779E+02</pdfrwt>
<pdfrwt beam="2">  1       -3 0.22177032E-02 0.91644779E+02</pdfrwt>
<totfact> 0.30278728E+04</totfact>
</mgrwt>
</event>
<event>
 5    1  0.7431090E-001  0.9116909E+02  0.7818608E-02  0.1300045E+00
         -3   -1    0    0    0  501 -0.00000000000E+00  0.00000000000E+00  0.10537899774E+02  0.10538310142E+02  0.93000000000E-01 0.  1.
          3   -1    0    0  501    0  0.00000000000E+00 -0.00000000000E+00 -0.19718407219E+03  0.19718409412E+03  0.93000000000E-01 0. -1.
         23    2    1    2    0    0  0.00000000000E+00  0.00000000000E+00 -0.18664617241E+03  0.20772240426E+03  0.91169093200E+02 0.  0.
        -11    1    3    3    0    0 -0.96459193309E+01  0.38245347056E+02 -0.14538910502E+03  0.15064442303E+03  0.51100000000E-03 0. -1.
         11    1    3    3    0    0  0.96459193309E+01 -0.38245347056E+02 -0.41257067393E+02  0.57077981230E+02  0.51100000000E-03 0.  1.
<mgrwt>
<rscale>  0 0.91169093E+02</rscale>
<asrwt>0</asrwt>
<pdfrwt beam="2">  1        3 0.30336042E-01 0.91169093E+02</pdfrwt>
<pdfrwt beam="1">  1       -3 0.16212487E-02 0.91169093E+02</pdfrwt>
<totfact> 0.28110631E+04</totfact>
</mgrwt>
</event>
<event>
 5    1  0.7431090E-001  0.8745533E+02  0.7818608E-02  0.1309134E+00
          3   -1    0    0  501    0  0.00000000000E+00  0.00000000000E+00  0.53639741814E+02  0.53639822435E+02  0.93000000000E-01 0. -1.
         -3   -1    0    0    0  501 -0.00000000000E+00 -0.00000000000E+00 -0.35647069755E+02  0.35647191069E+02  0.93000000000E-01 0.  1.
         23    2    1    2    0    0  0.00000000000E+00  0.00000000000E+00  0.17992672059E+02  0.89287013505E+02  0.87455328784E+02 0.  0.
        -11    1    3    3    0    0 -0.38407123503E+02  0.20745975988E+02  0.11620376717E+02  0.45172290298E+02  0.51100000000E-03 0.  1.
         11    1    3    3    0    0  0.38407123503E+02 -0.20745975988E+02  0.63722953421E+01  0.44114723207E+02  0.51100000000E-03 0. -1.
<mgrwt>
<rscale>  0 0.87455329E+02</rscale>
<asrwt>0</asrwt>
<pdfrwt beam="1">  1        3 0.82522835E-02 0.87455329E+02</pdfrwt>
<pdfrwt beam="2">  1       -3 0.54841801E-02 0.87455329E+02</pdfrwt>
<totfact> 0.39734327E+04</totfact>
</mgrwt>
</event>
<event>
 5    1  0.7431090E-001  0.9169910E+02  0.7818608E-02  0.1298788E+00
         -3   -1    0    0    0  501 -0.00000000000E+00  0.00000000000E+00  0.73207805740E+01  0.73213712659E+01  0.93000000000E-01 0.  1.
          3   -1    0    0  501    0  0.00000000000E+00 -0.00000000000E+00 -0.28714043017E+03  0.28714044523E+03  0.93000000000E-01 0. -1.
         23    2    1    2    0    0  0.00000000000E+00  0.00000000000E+00 -0.27981964960E+03  0.29446181650E+03  0.91699100729E+02 0.  0.
        -11    1    3    3    0    0  0.44458485509E+02  0.65558494246E+01 -0.16910241673E+03  0.17497189328E+03  0.51100000000E-03 0. -1.
         11    1    3    3    0    0 -0.44458485509E+02 -0.65558494246E+01 -0.11071723287E+03  0.11948992322E+03  0.51100000000E-03 0.  1.
<mgrwt>
<rscale>  0 0.91699101E+02</rscale>
<asrwt>0</asrwt>
<pdfrwt beam="2">  1        3 0.44175489E-01 0.91699101E+02</pdfrwt>
<pdfrwt beam="1">  1       -3 0.11263208E-02 0.91699101E+02</pdfrwt>
<totfact> 0.23877497E+04</totfact>
</mgrwt>
</event>
<event>
 5    1  0.7431090E-001  0.8840052E+02  0.7818608E-02  0.1306772E+00
          3   -1    0    0  501    0  0.00000000000E+00  0.00000000000E+00  0.94018245307E+02  0.94018291304E+02  0.93000000000E-01 0. -1.
         -3   -1    0    0    0  501 -0.00000000000E+00 -0.00000000000E+00 -0.20779462382E+02  0.20779670495E+02  0.93000000000E-01 0.  1.
         23    2    1    2    0    0  0.00000000000E+00  0.00000000000E+00  0.73238782926E+02  0.11479796180E+03  0.88400524369E+02 0.  0.
        -11    1    3    3    0    0  0.13364545188E+02  0.16358161543E+02 -0.13800582597E+02  0.25232054959E+02  0.51100000000E-03 0.  1.
         11    1    3    3    0    0 -0.13364545188E+02 -0.16358161543E+02  0.87039365523E+02  0.89565906840E+02  0.51100000000E-03 0. -1.
<mgrwt>
<rscale>  0 0.88400524E+02</rscale>
<asrwt>0</asrwt>
<pdfrwt beam="1">  1        3 0.14464365E-01 0.88400524E+02</pdfrwt>
<pdfrwt beam="2">  1       -3 0.31968599E-02 0.88400524E+02</pdfrwt>
<totfact> 0.36541461E+04</totfact>
</mgrwt>
</event>
<event>
 5    1  0.7431090E-001  0.9144550E+02  0.7818608E-02  0.1299388E+00
          3   -1    0    0  501    0  0.00000000000E+00  0.00000000000E+00  0.17194436073E+03  0.17194438588E+03  0.93000000000E-01 0. -1.
         -3   -1    0    0    0  501 -0.00000000000E+00 -0.00000000000E+00 -0.12158205711E+02  0.12158561391E+02  0.93000000000E-01 0.  1.
         23    2    1    2    0    0  0.00000000000E+00  0.00000000000E+00  0.15978615502E+03  0.18410294727E+03  0.91445502122E+02 0.  0.
        -11    1    3    3    0    0  0.22337293161E+02  0.27337529680E+02  0.21395174562E+02  0.41280124631E+02  0.51100000000E-03 0.  1.
         11    1    3    3    0    0 -0.22337293161E+02 -0.27337529680E+02  0.13839098046E+03  0.14282282264E+03  0.51100000000E-03 0. -1.
<mgrwt>
<rscale>  0 0.91445502E+02</rscale>
<asrwt>0</asrwt>
<pdfrwt beam="1">  1        3 0.26453009E-01 0.91445502E+02</pdfrwt>
<pdfrwt beam="2">  1       -3 0.18705224E-02 0.91445502E+02</pdfrwt>
<totfact> 0.29108925E+04</totfact>
</mgrwt>
</event>
<event>
 5    1  0.7431090E-001  0.8841127E+02  0.7818608E-02  0.1306745E+00
          3   -1    0    0  501    0  0.00000000000E+00  0.00000000000E+00  0.28400317740E+02  0.28400470009E+02  0.93000000000E-01 0. -1.
         -3   -1    0    0    0  501 -0.00000000000E+00 -0.00000000000E+00 -0.68806550064E+02  0.68806612914E+02  0.93000000000E-01 0.  1.
         23    2    1    2    0    0  0.00000000000E+00  0.00000000000E+00 -0.40406232324E+02  0.97207082923E+02  0.88411273941E+02 0.  0.
        -11    1    3    3    0    0 -0.26901494691E+02  0.11868840482E+02 -0.56495837518E+02  0.63689398240E+02  0.51100000000E-03 0.  1.
         11    1    3    3    0    0  0.26901494691E+02 -0.11868840482E+02  0.16089605194E+02  0.33517684684E+02  0.51100000000E-03 0. -1.
<mgrwt>
<rscale>  0 0.88411274E+02</rscale>
<asrwt>0</asrwt>
<pdfrwt beam="1">  1        3 0.43692962E-02 0.88411274E+02</pdfrwt>
<pdfrwt beam="2">  1       -3 0.10585640E-01 0.88411274E+02</pdfrwt>
<totfact> 0.37921632E+04</totfact>
</mgrwt>
</event>
<event>
 4    1  0.7431090E-001  0.1287521E+03  0.7818608E-02  0.1229319E+00
         -3   -1    0    0    0  501 -0.00000000000E+00  0.00000000000E+00  0.32327945773E+03  0.32327947111E+03  0.93000000000E-01 0.  1.
          3   -1    0    0  501    0  0.00000000000E+00 -0.00000000000E+00 -0.12819309429E+02  0.12819646767E+02  0.93000000000E-01 0. -1.
        -11    1    1    2    0    0 -0.69659330381E+01 -0.50307957532E+02  0.25849459941E+03  0.26343665793E+03  0.51100000000E-03 0.  1.
         11    1    1    2    0    0  0.69659330381E+01  0.50307957532E+02  0.51965548890E+02  0.72662459949E+02  0.51100000000E-03 0. -1.
<mgrwt>
<rscale>  0 0.12875214E+03</rscale>
<asrwt>0</asrwt>
<pdfrwt beam="2">  1        3 0.19722284E-02 0.12875214E+03</pdfrwt>
<pdfrwt beam="1">  1       -3 0.49735328E-01 0.12875214E+03</pdfrwt>
<totfact> 0.88250873E+03</totfact>
</mgrwt>
</event>
<event>
 5    1  0.7431090E-001  0.8894010E+02  0.7818608E-02  0.1305439E+00
          3   -1    0    0  501    0  0.00000000000E+00  0.00000000000E+00  0.55265034412E+01  0.55272858878E+01  0.93000000000E-01 0. -1.
         -3   -1    0    0    0  501 -0.00000000000E+00 -0.00000000000E+00 -0.35781048379E+03  0.35781049587E+03  0.93000000000E-01 0.  1.
         23    2    1    2    0    0  0.00000000000E+00  0.00000000000E+00 -0.35228398035E+03  0.36333778176E+03  0.88940096956E+02 0.  0.
        -11    1    3    3    0    0  0.40867261679E+02 -0.51665081457E+01 -0.10769094892E+03  0.11530033115E+03  0.51100000000E-03 0. -1.
         11    1    3    3    0    0 -0.40867261679E+02  0.51665081457E+01 -0.24459303143E+03  0.24803745061E+03  0.51100000000E-03 0.  1.
<mgrwt>
<rscale>  0 0.88940097E+02</rscale>
<asrwt>0</asrwt>
<pdfrwt beam="1">  1        3 0.85029270E-03 0.88940097E+02</pdfrwt>
<pdfrwt beam="2">  1       -3 0.55047810E-01 0.88940097E+02</pdfrwt>
<totfact> 0.23250892E+04</totfact>
</mgrwt>
</event>
<event>
 5    1  0.7431090E-001  0.9179484E+02  0.7818608E-02  0.1298563E+00
          3   -1    0    0  501    0  0.00000000000E+00  0.00000000000E+00  0.60970407435E+02  0.60970478363E+02  0.93000000000E-01 0. -1.
         -3   -1    0    0    0  501 -0.00000000000E+00 -0.00000000000E+00 -0.34550592223E+02  0.34550717387E+02  0.93000000000E-01 0.  1.
         23    2    1    2    0    0  0.00000000000E+00  0.00000000000E+00  0.26419815212E+02  0.95521195750E+02  0.91794837555E+02 0.  0.
        -11    1    3    3    0    0  0.15875260942E+02  0.36573716261E+02 -0.10448743294E+02  0.41216948793E+02  0.51100000000E-03 0.  1.
         11    1    3    3    0    0 -0.15875260942E+02 -0.36573716261E+02  0.36868558506E+02  0.54304246958E+02  0.51100000000E-03 0. -1.
<mgrwt>
<rscale>  0 0.91794838E+02</rscale>
<asrwt>0</asrwt>
<pdfrwt beam="1">  1        3 0.93800777E-02 0.91794838E+02</pdfrwt>
<pdfrwt beam="2">  1       -3 0.53154908E-02 0.91794838E+02</pdfrwt>
<totfact> 0.34367538E+04</totfact>
</mgrwt>
</event>
<event>
 5    1  0.7431090E-001  0.9531785E+02  0.7818608E-02  0.1290462E+00
         -3   -1    0    0    0  501 -0.00000000000E+00  0.00000000000E+00  0.81820584199E+01  0.81825869373E+01  0.93000000000E-01 0.  1.
          3   -1    0    0  501    0  0.00000000000E+00 -0.00000000000E+00 -0.27759461751E+03  0.27759463308E+03  0.93000000000E-01 0. -1.
         23    2    1    2    0    0  0.00000000000E+00  0.00000000000E+00 -0.26941255909E+03  0.28577722002E+03  0.95317849798E+02 0.  0.
        -11    1    3    3    0    0  0.39992055225E+02 -0.74116445760E+01 -0.60229179744E+02  0.72676344497E+02  0.51100000000E-03 0.  1.
         11    1    3    3    0    0 -0.39992055225E+02  0.74116445760E+01 -0.20918337934E+03  0.21310087553E+03  0.51100000000E-03 0. -1.
<mgrwt>
<rscale>  0 0.95317850E+02</rscale>
<asrwt>0</asrwt>
<pdfrwt beam="2">  1        3 0.42706899E-01 0.95317850E+02</pdfrwt>
<pdfrwt beam="1">  1       -3 0.12588203E-02 0.95317850E+02</pdfrwt>
<totfact> 0.21817132E+04</totfact>
</mgrwt>
</event>
<event>
 5    1  0.7431090E-001  0.9053470E+02  0.7818608E-02  0.1301562E+00
          3   -1    0    0  501    0  0.00000000000E+00  0.00000000000E+00  0.32039505563E+02  0.32039640537E+02  0.93000000000E-01 0. -1.
         -3   -1    0    0    0  501 -0.00000000000E+00 -0.00000000000E+00 -0.63956145691E+02  0.63956213307E+02  0.93000000000E-01 0.  1.
         23    2    1    2    0    0  0.00000000000E+00  0.00000000000E+00 -0.31916640127E+02  0.95995853844E+02  0.90534700741E+02 0.  0.
        -11    1    3    3    0    0  0.33124934456E+02  0.28977456969E+02 -0.27188653072E+02  0.51731780862E+02  0.51100000000E-03 0.  1.
         11    1    3    3    0    0 -0.33124934456E+02 -0.28977456969E+02 -0.47279870558E+01  0.44264072982E+02  0.51100000000E-03 0. -1.
<mgrwt>
<rscale>  0 0.90534701E+02</rscale>
<asrwt>0</asrwt>
<pdfrwt beam="1">  1        3 0.49291703E-02 0.90534701E+02</pdfrwt>
<pdfrwt beam="2">  1       -3 0.98394226E-02 0.90534701E+02</pdfrwt>
<totfact> 0.35650393E+04</totfact>
</mgrwt>
</event>
<event>
 5    1  0.7431090E-001  0.9469670E+02  0.7818608E-02  0.1291861E+00
         -3   -1    0    0    0  501 -0.00000000000E+00  0.00000000000E+00  0.29101267257E+02  0.29101415858E+02  0.93000000000E-01 0.  1.
          3   -1    0    0  501    0  0.00000000000E+00 -0.00000000000E+00 -0.77036349665E+02  0.77036405801E+02  0.93000000000E-01 0. -1.
         23    2    1    2    0    0  0.00000000000E+00  0.00000000000E+00 -0.47935082408E+02  0.10613782166E+03  0.94696700371E+02 0.  0.
        -11    1    3    3    0    0 -0.34231210575E+02  0.31874574518E+02 -0.15723466270E+02  0.49345634761E+02  0.51100000000E-03 0.  1.
         11    1    3    3    0    0  0.34231210575E+02 -0.31874574518E+02 -0.32211616138E+02  0.56792186898E+02  0.51100000000E-03 0. -1.
<mgrwt>
<rscale>  0 0.94696700E+02</rscale>
<asrwt>0</asrwt>
<pdfrwt beam="2">  1        3 0.11851762E-01 0.94696700E+02</pdfrwt>
<pdfrwt beam="1">  1       -3 0.44771338E-02 0.94696700E+02</pdfrwt>
<totfact> 0.30859808E+04</totfact>
</mgrwt>
</event>
<event>
 5    1  0.7431090E-001  0.9173379E+02  0.7818608E-02  0.1298707E+00
          3   -1    0    0  501    0  0.00000000000E+00  0.00000000000E+00  0.30032398845E+03  0.30032400285E+03  0.93000000000E-01 0. -1.
         -3   -1    0    0    0  501 -0.00000000000E+00 -0.00000000000E+00 -0.70046851101E+01  0.70053024554E+01  0.93000000000E-01 0.  1.
         23    2    1    2    0    0  0.00000000000E+00  0.00000000000E+00  0.29331930334E+03  0.30732930531E+03  0.91733789780E+02 0.  0.
        -11    1    3    3    0    0 -0.11409945737E+02 -0.43763008851E+02  0.12106068361E+03  0.12923264650E+03  0.51100000000E-03 0.  1.
         11    1    3    3    0    0  0.11409945737E+02  0.43763008851E+02  0.17225861974E+03  0.17809665881E+03  0.51100000000E-03 0. -1.
<mgrwt>
<rscale>  0 0.91733790E+02</rscale>
<asrwt>0</asrwt>
<pdfrwt beam="1">  1        3 0.46203741E-01 0.91733790E+02</pdfrwt>
<pdfrwt beam="2">  1       -3 0.10776924E-02 0.91733790E+02</pdfrwt>
<totfact> 0.23364826E+04</totfact>
</mgrwt>
</event>
<event>
 5    1  0.7431090E-001  0.9009396E+02  0.7818608E-02  0.1302624E+00
          3   -1    0    0  501    0  0.00000000000E+00  0.00000000000E+00  0.66587070379E+02  0.66587135324E+02  0.93000000000E-01 0. -1.
         -3   -1    0    0    0  501 -0.00000000000E+00 -0.00000000000E+00 -0.30474687624E+02  0.30474829529E+02  0.93000000000E-01 0.  1.
         23    2    1    2    0    0  0.00000000000E+00  0.00000000000E+00  0.36112382755E+02  0.97061964853E+02  0.90093955585E+02 0.  0.
        -11    1    3    3    0    0 -0.74246946001E+01  0.13395582903E+02  0.63696105106E+02  0.65511537435E+02  0.51100000000E-03 0. -1.
         11    1    3    3    0    0  0.74246946001E+01 -0.13395582903E+02 -0.27583722351E+02  0.31550427418E+02  0.51100000000E-03 0.  1.
<mgrwt>
<rscale>  0 0.90093956E+02</rscale>
<asrwt>0</asrwt>
<pdfrwt beam="1">  1        3 0.10244181E-01 0.90093956E+02</pdfrwt>
<pdfrwt beam="2">  1       -3 0.46884294E-02 0.90093956E+02</pdfrwt>
<totfact> 0.36041587E+04</totfact>
</mgrwt>
</event>
<event>
 5    1  0.7431090E-001  0.9198540E+02  0.7818608E-02  0.1298114E+00
          3   -1    0    0  501    0  0.00000000000E+00  0.00000000000E+00  0.85488746967E+02  0.85488797552E+02  0.93000000000E-01 0. -1.
         -3   -1    0    0    0  501 -0.00000000000E+00 -0.00000000000E+00 -0.24743793200E+02  0.24743967970E+02  0.93000000000E-01 0.  1.
         23    2    1    2    0    0  0.00000000000E+00  0.00000000000E+00  0.60744953767E+02  0.11023276552E+03  0.91985396595E+02 0.  0.
        -11    1    3    3    0    0 -0.15291362098E+02 -0.41236960007E+02  0.14249326482E+02  0.46231546922E+02  0.51100000000E-03 0. -1.
         11    1    3    3    0    0  0.15291362098E+02  0.41236960007E+02  0.46495627285E+02  0.64001218600E+02  0.51100000000E-03 0.  1.
<mgrwt>
<rscale>  0 0.91985397E+02</rscale>
<asrwt>0</asrwt>
<pdfrwt beam="1">  1        3 0.13152132E-01 0.91985397E+02</pdfrwt>
<pdfrwt beam="2">  1       -3 0.38067547E-02 0.91985397E+02</pdfrwt>
<totfact> 0.33121897E+04</totfact>
</mgrwt>
</event>
<event>
 5    1  0.7431090E-001  0.9289911E+02  0.7818608E-02  0.1295979E+00
         -3   -1    0    0    0  501 -0.00000000000E+00  0.00000000000E+00  0.23006392944E+02  0.23006580913E+02  0.93000000000E-01 0.  1.
          3   -1    0    0  501    0  0.00000000000E+00 -0.00000000000E+00 -0.93780337127E+02  0.93780383240E+02  0.93000000000E-01 0. -1.
         23    2    1    2    0    0  0.00000000000E+00  0.00000000000E+00 -0.70773944183E+02  0.11678696415E+03  0.92899105598E+02 0.  0.
        -11    1    3    3    0    0 -0.31965615537E+02  0.20305513066E+02 -0.15737893496E+01  0.37902391094E+02  0.51100000000E-03 0.  1.
         11    1    3    3    0    0  0.31965615537E+02 -0.20305513066E+02 -0.69200154833E+02  0.78884573059E+02  0.51100000000E-03 0. -1.
<mgrwt>
<rscale>  0 0.92899106E+02</rscale>
<asrwt>0</asrwt>
<pdfrwt beam="2">  1        3 0.14427762E-01 0.92899106E+02</pdfrwt>
<pdfrwt beam="1">  1       -3 0.35394631E-02 0.92899106E+02</pdfrwt>
<totfact> 0.31804325E+04</totfact>
</mgrwt>
</event>
<event>
 5    1  0.7431090E-001  0.9161724E+02  0.7818608E-02  0.1298982E+00
          3   -1    0    0  501    0  0.00000000000E+00  0.00000000000E+00  0.28605777862E+02  0.28605929037E+02  0.93000000000E-01 0. -1.
         -3   -1    0    0    0  501 -0.00000000000E+00 -0.00000000000E+00 -0.73356467668E+02  0.73356526620E+02  0.93000000000E-01 0.  1.
         23    2    1    2    0    0  0.00000000000E+00  0.00000000000E+00 -0.44750689806E+02  0.10196245566E+03  0.91617237054E+02 0.  0.
        -11    1    3    3    0    0  0.27822230052E+02 -0.33940856884E+02 -0.36986870033E+02  0.57394135643E+02  0.51100000000E-03 0. -1.
         11    1    3    3    0    0 -0.27822230052E+02  0.33940856884E+02 -0.77638197733E+01  0.44568320014E+02  0.51100000000E-03 0.  1.
<mgrwt>
<rscale>  0 0.91617237E+02</rscale>
<asrwt>0</asrwt>
<pdfrwt beam="1">  1        3 0.44009051E-02 0.91617237E+02</pdfrwt>
<pdfrwt beam="2">  1       -3 0.11285627E-01 0.91617237E+02</pdfrwt>
<totfact> 0.34076956E+04</totfact>
</mgrwt>
</event>
<event>
 5    1  0.7431090E-001  0.9286563E+02  0.7818608E-02  0.1296057E+00
          3   -1    0    0  501    0  0.00000000000E+00  0.00000000000E+00  0.66948550079E+01  0.66955009206E+01  0.93000000000E-01 0. -1.
         -3   -1    0    0    0  501 -0.00000000000E+00 -0.00000000000E+00 -0.32202310713E+03  0.32202312056E+03  0.93000000000E-01 0.  1.
         23    2    1    2    0    0  0.00000000000E+00  0.00000000000E+00 -0.31532825212E+03  0.32871862148E+03  0.92865631539E+02 0.  0.
        -11    1    3    3    0    0  0.43452663397E+02 -0.72426823817E+01 -0.20961684062E+03  0.21419572890E+03  0.51100000000E-03 0.  1.
         11    1    3    3    0    0 -0.43452663397E+02  0.72426823817E+01 -0.10571141150E+03  0.11452289258E+03  0.51100000000E-03 0. -1.
<mgrwt>
<rscale>  0 0.92865632E+02</rscale>
<asrwt>0</asrwt>
<pdfrwt beam="1">  1        3 0.10300287E-02 0.92865632E+02</pdfrwt>
<pdfrwt beam="2">  1       -3 0.49542055E-01 0.92865632E+02</pdfrwt>
<totfact> 0.21846857E+04</totfact>
</mgrwt>
</event>
<event>
 5    1  0.7431090E-001  0.1151206E+03  0.7818608E-02  0.1251371E+00
          3   -1    0    0  501    0  0.00000000000E+00  0.00000000000E+00  0.18226600154E+02  0.18226837415E+02  0.93000000000E-01 0. -1.
         -3   -1    0    0    0  501 -0.00000000000E+00 -0.00000000000E+00 -0.18177618978E+03  0.18177621357E+03  0.93000000000E-01 0.  1.
         23    2    1    2    0    0  0.00000000000E+00  0.00000000000E+00 -0.16354958962E+03  0.20000305098E+03  0.11512059823E+03 0.  0.
        -11    1    3    3    0    0 -0.22190935385E+02  0.51328662547E+02 -0.10547645297E+03  0.11938321215E+03  0.51100000000E-03 0.  1.
         11    1    3    3    0    0  0.22190935385E+02 -0.51328662547E+02 -0.58073136651E+02  0.80619838829E+02  0.51100000000E-03 0. -1.
<mgrwt>
<rscale>  0 0.11512060E+03</rscale>
<asrwt>0</asrwt>
<pdfrwt beam="1">  1        3 0.28041125E-02 0.11512060E+03</pdfrwt>
<pdfrwt beam="2">  1       -3 0.27965587E-01 0.11512060E+03</pdfrwt>
<totfact> 0.15051082E+04</totfact>
</mgrwt>
</event>
<event>
 5    1  0.7431090E-001  0.9144447E+02  0.7818608E-02  0.1299391E+00
         -3   -1    0    0    0  501 -0.00000000000E+00  0.00000000000E+00  0.28666442224E+02  0.28666593080E+02  0.93000000000E-01 0.  1.
          3   -1    0    0  501    0  0.00000000000E+00 -0.00000000000E+00 -0.72925412744E+02  0.72925472045E+02  0.93000000000E-01 0. -1.
         23    2    1    2    0    0  0.00000000000E+00  0.00000000000E+00 -0.44258970520E+02  0.10159206512E+03  0.91444470717E+02 0.  0.
        -11    1    3    3    0    0 -0.13248547497E+02  0.22978779330E+02  0.19245378392E+02  0.32770915459E+02  0.51100000000E-03 0.  1.
         11    1    3    3    0    0  0.13248547497E+02 -0.22978779330E+02 -0.63504348912E+02  0.68821149666E+02  0.51100000000E-03 0. -1.
<mgrwt>
<rscale>  0 0.91444471E+02</rscale>
<asrwt>0</asrwt>
<pdfrwt beam="2">  1        3 0.11219310E-01 0.91444471E+02</pdfrwt>
<pdfrwt beam="1">  1       -3 0.44102381E-02 0.91444471E+02</pdfrwt>
<totfact> 0.34278431E+04</totfact>
</mgrwt>
</event>
<event>
 5    1  0.7431090E-001  0.9211528E+02  0.7818608E-02  0.1297809E+00
          3   -1    0    0  501    0  0.00000000000E+00  0.00000000000E+00  0.38765125829E+03  0.38765126945E+03  0.93000000000E-01 0. -1.
         -3   -1    0    0    0  501 -0.00000000000E+00 -0.00000000000E+00 -0.54717967486E+01  0.54725870169E+01  0.93000000000E-01 0.  1.
         23    2    1    2    0    0  0.00000000000E+00  0.00000000000E+00  0.38217946155E+03  0.39312385647E+03  0.92115284812E+02 0.  0.
        -11    1    3    3    0    0  0.38434899251E+02  0.20083204870E+02  0.12487377521E+03  0.13218939570E+03  0.51100000000E-03 0.  1.
         11    1    3    3    0    0 -0.38434899251E+02 -0.20083204870E+02  0.25730568633E+03  0.26093446077E+03  0.51100000000E-03 0. -1.
<mgrwt>
<rscale>  0 0.92115285E+02</rscale>
<asrwt>0</asrwt>
<pdfrwt beam="1">  1        3 0.59638734E-01 0.92115285E+02</pdfrwt>
<pdfrwt beam="2">  1       -3 0.84187629E-03 0.92115285E+02</pdfrwt>
<totfact> 0.20260279E+04</totfact>
</mgrwt>
</event>
<event>
 5    1  0.7431090E-001  0.9360320E+02  0.7818608E-02  0.1294353E+00
         -3   -1    0    0    0  501 -0.00000000000E+00  0.00000000000E+00  0.15019420812E+03  0.15019423692E+03  0.93000000000E-01 0.  1.
          3   -1    0    0  501    0  0.00000000000E+00 -0.00000000000E+00 -0.14583538542E+02  0.14583835072E+02  0.93000000000E-01 0. -1.
         23    2    1    2    0    0  0.00000000000E+00  0.00000000000E+00  0.13561066958E+03  0.16477807199E+03  0.93603201356E+02 0.  0.
        -11    1    3    3    0    0 -0.18943659642E+02  0.41544996619E+02  0.49720314931E+02  0.67505249438E+02  0.51100000000E-03 0.  1.
         11    1    3    3    0    0  0.18943659642E+02 -0.41544996619E+02  0.85890354651E+02  0.97272822551E+02  0.51100000000E-03 0. -1.
<mgrwt>
<rscale>  0 0.93603201E+02</rscale>
<asrwt>0</asrwt>
<pdfrwt beam="2">  1        3 0.22436464E-02 0.93603201E+02</pdfrwt>
<pdfrwt beam="1">  1       -3 0.23106826E-01 0.93603201E+02</pdfrwt>
<totfact> 0.28334526E+04</totfact>
</mgrwt>
</event>
<event>
 5    1  0.7431090E-001  0.9047194E+02  0.7818608E-02  0.1301713E+00
         -3   -1    0    0    0  501 -0.00000000000E+00  0.00000000000E+00  0.16919584105E+02  0.16919839694E+02  0.93000000000E-01 0.  1.
          3   -1    0    0  501    0  0.00000000000E+00 -0.00000000000E+00 -0.12094109860E+03  0.12094113436E+03  0.93000000000E-01 0. -1.
         23    2    1    2    0    0  0.00000000000E+00  0.00000000000E+00 -0.10402151450E+03  0.13786097405E+03  0.90471944207E+02 0.  0.
        -11    1    3    3    0    0 -0.32530655641E+02  0.12094767708E+02 -0.78004876277E+01  0.35572103815E+02  0.51100000000E-03 0.  1.
         11    1    3    3    0    0  0.32530655641E+02 -0.12094767708E+02 -0.96221026870E+02  0.10228887024E+03  0.51100000000E-03 0. -1.
<mgrwt>
<rscale>  0 0.90471944E+02</rscale>
<asrwt>0</asrwt>
<pdfrwt beam="2">  1        3 0.18606345E-01 0.90471944E+02</pdfrwt>
<pdfrwt beam="1">  1       -3 0.26030354E-02 0.90471944E+02</pdfrwt>
<totfact> 0.32747150E+04</totfact>
</mgrwt>
</event>
<event>
 5    1  0.7431090E-001  0.9128034E+02  0.7818608E-02  0.1299780E+00
          3   -1    0    0  501    0  0.00000000000E+00  0.00000000000E+00  0.38807885236E+03  0.38807886350E+03  0.93000000000E-01 0. -1.
         -3   -1    0    0    0  501 -0.00000000000E+00 -0.00000000000E+00 -0.53671166760E+01  0.53679223554E+01  0.93000000000E-01 0.  1.
         23    2    1    2    0    0  0.00000000000E+00  0.00000000000E+00  0.38271173568E+03  0.39344678586E+03  0.91280341106E+02 0.  0.
        -11    1    3    3    0    0 -0.15976540452E+01 -0.44288346775E+02  0.23837879009E+03  0.24246331211E+03  0.51100000000E-03 0. -1.
         11    1    3    3    0    0  0.15976540452E+01  0.44288346775E+02  0.14433294560E+03  0.15098347374E+03  0.51100000000E-03 0.  1.
<mgrwt>
<rscale>  0 0.91280341E+02</rscale>
<asrwt>0</asrwt>
<pdfrwt beam="1">  1        3 0.59704512E-01 0.91280341E+02</pdfrwt>
<pdfrwt beam="2">  1       -3 0.82577295E-03 0.91280341E+02</pdfrwt>
<totfact> 0.20750933E+04</totfact>
</mgrwt>
</event>
<event>
 5    1  0.7431090E-001  0.9101827E+02  0.7818608E-02  0.1300404E+00
         -3   -1    0    0    0  501 -0.00000000000E+00  0.00000000000E+00  0.55219785206E+02  0.55219863520E+02  0.93000000000E-01 0.  1.
          3   -1    0    0  501    0  0.00000000000E+00 -0.00000000000E+00 -0.37505984345E+02  0.37506099646E+02  0.93000000000E-01 0. -1.
         23    2    1    2    0    0  0.00000000000E+00  0.00000000000E+00  0.17713800861E+02  0.92725963166E+02  0.91018270167E+02 0.  0.
        -11    1    3    3    0    0  0.14727519867E+02  0.25443632214E+02  0.44247749898E+02  0.53123833003E+02  0.51100000000E-03 0.  1.
         11    1    3    3    0    0 -0.14727519867E+02 -0.25443632214E+02 -0.26533949037E+02  0.39602130163E+02  0.51100000000E-03 0. -1.
<mgrwt>
<rscale>  0 0.91018270E+02</rscale>
<asrwt>0</asrwt>
<pdfrwt beam="2">  1        3 0.57701664E-02 0.91018270E+02</pdfrwt>
<pdfrwt beam="1">  1       -3 0.84953664E-02 0.91018270E+02</pdfrwt>
<totfact> 0.35388257E+04</totfact>
</mgrwt>
</event>
<event>
 5    1  0.7431090E-001  0.9025839E+02  0.7818608E-02  0.1302227E+00
          3   -1    0    0  501    0  0.00000000000E+00  0.00000000000E+00  0.83979899157E+01  0.83985048445E+01  0.93000000000E-01 0. -1.
         -3   -1    0    0    0  501 -0.00000000000E+00 -0.00000000000E+00 -0.24250771701E+03  0.24250773484E+03  0.93000000000E-01 0.  1.
         23    2    1    2    0    0  0.00000000000E+00  0.00000000000E+00 -0.23410972710E+03  0.25090623969E+03  0.90258389049E+02 0.  0.
        -11    1    3    3    0    0 -0.35792732164E+02  0.44427906521E+01 -0.19245978352E+03  0.19581017935E+03  0.51100000000E-03 0.  1.
         11    1    3    3    0    0  0.35792732164E+02 -0.44427906521E+01 -0.41649943574E+02  0.55096060336E+02  0.51100000000E-03 0. -1.
<mgrwt>
<rscale>  0 0.90258389E+02</rscale>
<asrwt>0</asrwt>
<pdfrwt beam="1">  1        3 0.12920396E-02 0.90258389E+02</pdfrwt>
<pdfrwt beam="2">  1       -3 0.37308915E-01 0.90258389E+02</pdfrwt>
<totfact> 0.26777440E+04</totfact>
</mgrwt>
</event>
<event>
 5    1  0.7431090E-001  0.9070430E+02  0.7818608E-02  0.1301155E+00
         -3   -1    0    0    0  501 -0.00000000000E+00  0.00000000000E+00  0.34404140677E+03  0.34404141934E+03  0.93000000000E-01 0.  1.
          3   -1    0    0  501    0  0.00000000000E+00 -0.00000000000E+00 -0.59780265457E+01  0.59787499012E+01  0.93000000000E-01 0. -1.
         23    2    1    2    0    0  0.00000000000E+00  0.00000000000E+00  0.33806338023E+03  0.35002016925E+03  0.90704298833E+02 0.  0.
        -11    1    3    3    0    0  0.38309524695E+02  0.20937220560E+02  0.21642421918E+03  0.22078367135E+03  0.51100000000E-03 0. -1.
         11    1    3    3    0    0 -0.38309524695E+02 -0.20937220560E+02  0.12163916105E+03  0.12923649789E+03  0.51100000000E-03 0.  1.
<mgrwt>
<rscale>  0 0.90704299E+02</rscale>
<asrwt>0</asrwt>
<pdfrwt beam="2">  1        3 0.91975303E-03 0.90704299E+02</pdfrwt>
<pdfrwt beam="1">  1       -3 0.52929502E-01 0.90704299E+02</pdfrwt>
<totfact> 0.22516378E+04</totfact>
</mgrwt>
</event>
<event>
 5    1  0.7431090E-001  0.8995805E+02  0.7818608E-02  0.1302953E+00
          3   -1    0    0  501    0  0.00000000000E+00  0.00000000000E+00  0.20276072150E+02  0.20276285430E+02  0.93000000000E-01 0. -1.
         -3   -1    0    0    0  501 -0.00000000000E+00 -0.00000000000E+00 -0.99777578208E+02  0.99777621549E+02  0.93000000000E-01 0.  1.
         23    2    1    2    0    0  0.00000000000E+00  0.00000000000E+00 -0.79501506058E+02  0.12005390698E+03  0.89958051977E+02 0.  0.
        -11    1    3    3    0    0  0.17361723342E+02 -0.47054306507E+01 -0.94768428882E+02  0.96460487393E+02  0.51100000000E-03 0.  1.
         11    1    3    3    0    0 -0.17361723342E+02  0.47054306507E+01  0.15266922824E+02  0.23593419587E+02  0.51100000000E-03 0. -1.
<mgrwt>
<rscale>  0 0.89958052E+02</rscale>
<asrwt>0</asrwt>
<pdfrwt beam="1">  1        3 0.31194155E-02 0.89958052E+02</pdfrwt>
<pdfrwt beam="2">  1       -3 0.15350416E-01 0.89958052E+02</pdfrwt>
<totfact> 0.34479196E+04</totfact>
</mgrwt>
</event>
<event>
 5    1  0.7431090E-001  0.8867296E+02  0.7818608E-02  0.1306097E+00
          3   -1    0    0  501    0  0.00000000000E+00  0.00000000000E+00  0.14727176015E+03  0.14727178951E+03  0.93000000000E-01 0. -1.
         -3   -1    0    0    0  501 -0.00000000000E+00 -0.00000000000E+00 -0.13347401125E+02  0.13347725117E+02  0.93000000000E-01 0.  1.
         23    2    1    2    0    0  0.00000000000E+00  0.00000000000E+00  0.13392435902E+03  0.16061951463E+03  0.88672963974E+02 0.  0.
        -11    1    3    3    0    0 -0.35654925412E+02  0.23789917733E+01  0.19423118046E+02  0.40671744773E+02  0.51100000000E-03 0.  1.
         11    1    3    3    0    0  0.35654925412E+02 -0.23789917733E+01  0.11450124098E+03  0.11994776986E+03  0.51100000000E-03 0. -1.
<mgrwt>
<rscale>  0 0.88672964E+02</rscale>
<asrwt>0</asrwt>
<pdfrwt beam="1">  1        3 0.22657222E-01 0.88672964E+02</pdfrwt>
<pdfrwt beam="2">  1       -3 0.20534735E-02 0.88672964E+02</pdfrwt>
<totfact> 0.33062279E+04</totfact>
</mgrwt>
</event>
<event>
 5    1  0.7431090E-001  0.9068252E+02  0.7818608E-02  0.1301207E+00
         -3   -1    0    0    0  501 -0.00000000000E+00  0.00000000000E+00  0.17548188090E+02  0.17548434524E+02  0.93000000000E-01 0.  1.
          3   -1    0    0  501    0  0.00000000000E+00 -0.00000000000E+00 -0.11715230395E+03  0.11715234086E+03  0.93000000000E-01 0. -1.
         23    2    1    2    0    0  0.00000000000E+00  0.00000000000E+00 -0.99604115858E+02  0.13470077538E+03  0.90682517573E+02 0.  0.
        -11    1    3    3    0    0 -0.23679856581E+02  0.37965040162E+02 -0.60692241977E+02  0.75403104171E+02  0.51100000000E-03 0. -1.
         11    1    3    3    0    0  0.23679856581E+02 -0.37965040162E+02 -0.38911873880E+02  0.59297671213E+02  0.51100000000E-03 0.  1.
<mgrwt>
<rscale>  0 0.90682518E+02</rscale>
<asrwt>0</asrwt>
<pdfrwt beam="2">  1        3 0.18023453E-01 0.90682518E+02</pdfrwt>
<pdfrwt beam="1">  1       -3 0.26997431E-02 0.90682518E+02</pdfrwt>
<totfact> 0.32748025E+04</totfact>
</mgrwt>
</event>
<event>
 5    1  0.7431090E-001  0.8589182E+02  0.7818608E-02  0.1313117E+00
          3   -1    0    0  501    0  0.00000000000E+00  0.00000000000E+00  0.69143247164E+02  0.69143309708E+02  0.93000000000E-01 0. -1.
         -3   -1    0    0    0  501 -0.00000000000E+00 -0.00000000000E+00 -0.26674197372E+02  0.26674359495E+02  0.93000000000E-01 0.  1.
         23    2    1    2    0    0  0.00000000000E+00  0.00000000000E+00  0.42469049791E+02  0.95817669202E+02  0.85891824647E+02 0.  0.
        -11    1    3    3    0    0 -0.13707102942E+02  0.65601626984E+01 -0.23574858651E+02  0.28048072418E+02  0.51100000000E-03 0.  1.
         11    1    3    3    0    0  0.13707102942E+02 -0.65601626984E+01  0.66043908442E+02  0.67769596784E+02  0.51100000000E-03 0. -1.
<mgrwt>
<rscale>  0 0.85891825E+02</rscale>
<asrwt>0</asrwt>
<pdfrwt beam="1">  1        3 0.10637440E-01 0.85891825E+02</pdfrwt>
<pdfrwt beam="2">  1       -3 0.41037400E-02 0.85891825E+02</pdfrwt>
<totfact> 0.41127688E+04</totfact>
</mgrwt>
</event>
<event>
 5    1  0.7431090E-001  0.9068070E+02  0.7818608E-02  0.1301212E+00
         -3   -1    0    0    0  501 -0.00000000000E+00  0.00000000000E+00  0.25691004168E+02  0.25691172495E+02  0.93000000000E-01 0.  1.
          3   -1    0    0  501    0  0.00000000000E+00 -0.00000000000E+00 -0.80017727306E+02  0.80017781350E+02  0.93000000000E-01 0. -1.
         23    2    1    2    0    0  0.00000000000E+00  0.00000000000E+00 -0.54326723138E+02  0.10570895385E+03  0.90680703991E+02 0.  0.
        -11    1    3    3    0    0  0.42879608486E+02  0.84298496827E+01 -0.41250069227E+02  0.60094021342E+02  0.51100000000E-03 0.  1.
         11    1    3    3    0    0 -0.42879608486E+02 -0.84298496827E+01 -0.13076653911E+02  0.45614932504E+02  0.51100000000E-03 0. -1.
<mgrwt>
<rscale>  0 0.90680704E+02</rscale>
<asrwt>0</asrwt>
<pdfrwt beam="2">  1        3 0.12310437E-01 0.90680704E+02</pdfrwt>
<pdfrwt beam="1">  1       -3 0.39524793E-02 0.90680704E+02</pdfrwt>
<totfact> 0.34764420E+04</totfact>
</mgrwt>
</event>
<event>
 5    1  0.7431090E-001  0.9054813E+02  0.7818608E-02  0.1301530E+00
         -3   -1    0    0    0  501 -0.00000000000E+00  0.00000000000E+00  0.27956729484E+02  0.27956884169E+02  0.93000000000E-01 0.  1.
          3   -1    0    0  501    0  0.00000000000E+00 -0.00000000000E+00 -0.73317945261E+02  0.73318004243E+02  0.93000000000E-01 0. -1.
         23    2    1    2    0    0  0.00000000000E+00  0.00000000000E+00 -0.45361215777E+02  0.10127488841E+03  0.90548126023E+02 0.  0.
        -11    1    3    3    0    0 -0.21965758637E+01 -0.23209657201E+02  0.20727176013E+02  0.31195014964E+02  0.51100000000E-03 0.  1.
         11    1    3    3    0    0  0.21965758637E+01  0.23209657201E+02 -0.66088391790E+02  0.70079873448E+02  0.51100000000E-03 0. -1.
<mgrwt>
<rscale>  0 0.90548126E+02</rscale>
<asrwt>0</asrwt>
<pdfrwt beam="2">  1        3 0.11279700E-01 0.90548126E+02</pdfrwt>
<pdfrwt beam="1">  1       -3 0.43010518E-02 0.90548126E+02</pdfrwt>
<totfact> 0.35233250E+04</totfact>
</mgrwt>
</event>
<event>
 5    1  0.7431090E-001  0.9232176E+02  0.7818608E-02  0.1297325E+00
         -3   -1    0    0    0  501 -0.00000000000E+00  0.00000000000E+00  0.65554796070E+01  0.65561392510E+01  0.93000000000E-01 0.  1.
          3   -1    0    0  501    0  0.00000000000E+00 -0.00000000000E+00 -0.32502813540E+03  0.32502814870E+03  0.93000000000E-01 0. -1.
         23    2    1    2    0    0  0.00000000000E+00  0.00000000000E+00 -0.31847265579E+03  0.33158428795E+03  0.92321760877E+02 0.  0.
        -11    1    3    3    0    0  0.45561573110E+02  0.65065355045E+01 -0.14646969550E+03  0.15353033462E+03  0.51100000000E-03 0. -1.
         11    1    3    3    0    0 -0.45561573110E+02 -0.65065355045E+01 -0.17200296029E+03  0.17805395333E+03  0.51100000000E-03 0.  1.
<mgrwt>
<rscale>  0 0.92321761E+02</rscale>
<asrwt>0</asrwt>
<pdfrwt beam="2">  1        3 0.50004368E-01 0.92321761E+02</pdfrwt>
<pdfrwt beam="1">  1       -3 0.10085873E-02 0.92321761E+02</pdfrwt>
<totfact> 0.22105056E+04</totfact>
</mgrwt>
</event>
<event>
 5    1  0.7431090E-001  0.9043527E+02  0.7818608E-02  0.1301801E+00
         -3   -1    0    0    0  501 -0.00000000000E+00  0.00000000000E+00  0.29153675155E+02  0.29153823489E+02  0.93000000000E-01 0.  1.
          3   -1    0    0  501    0  0.00000000000E+00 -0.00000000000E+00 -0.70132633073E+02  0.70132694735E+02  0.93000000000E-01 0. -1.
         23    2    1    2    0    0  0.00000000000E+00  0.00000000000E+00 -0.40978957918E+02  0.99286518224E+02  0.90435268060E+02 0.  0.
        -11    1    3    3    0    0 -0.25223049438E+02  0.18652739169E+02  0.15263260845E+02  0.34886874801E+02  0.51100000000E-03 0. -1.
         11    1    3    3    0    0  0.25223049438E+02 -0.18652739169E+02 -0.56242218763E+02  0.64399643424E+02  0.51100000000E-03 0.  1.
<mgrwt>
<rscale>  0 0.90435268E+02</rscale>
<asrwt>0</asrwt>
<pdfrwt beam="2">  1        3 0.10789652E-01 0.90435268E+02</pdfrwt>
<pdfrwt beam="1">  1       -3 0.44851970E-02 0.90435268E+02</pdfrwt>
<totfact> 0.35503319E+04</totfact>
</mgrwt>
</event>
<event>
 5    1  0.7431090E-001  0.9134891E+02  0.7818608E-02  0.1299618E+00
         -3   -1    0    0    0  501 -0.00000000000E+00  0.00000000000E+00  0.47867339130E+02  0.47867429473E+02  0.93000000000E-01 0.  1.
          3   -1    0    0  501    0  0.00000000000E+00 -0.00000000000E+00 -0.43581849275E+02  0.43581948502E+02  0.93000000000E-01 0. -1.
         23    2    1    2    0    0  0.00000000000E+00  0.00000000000E+00  0.42854898544E+01  0.91449377975E+02  0.91348909729E+02 0.  0.
        -11    1    3    3    0    0 -0.32383320418E+02  0.20074658245E+02 -0.23073934062E+02  0.44542987981E+02  0.51100000000E-03 0. -1.
         11    1    3    3    0    0  0.32383320418E+02 -0.20074658245E+02  0.27359423916E+02  0.46906389994E+02  0.51100000000E-03 0.  1.
<mgrwt>
<rscale>  0 0.91348910E+02</rscale>
<asrwt>0</asrwt>
<pdfrwt beam="2">  1        3 0.67049145E-02 0.91348910E+02</pdfrwt>
<pdfrwt beam="1">  1       -3 0.73642206E-02 0.91348910E+02</pdfrwt>
<totfact> 0.35136452E+04</totfact>
</mgrwt>
</event>
<event>
 5    1  0.7431090E-001  0.8899070E+02  0.7818608E-02  0.1305314E+00
          3   -1    0    0  501    0  0.00000000000E+00  0.00000000000E+00  0.42888363497E+02  0.42888464328E+02  0.93000000000E-01 0. -1.
         -3   -1    0    0    0  501 -0.00000000000E+00 -0.00000000000E+00 -0.46162349146E+02  0.46162442826E+02  0.93000000000E-01 0.  1.
         23    2    1    2    0    0  0.00000000000E+00  0.00000000000E+00 -0.32739856486E+01  0.89050907154E+02  0.88990702228E+02 0.  0.
        -11    1    3    3    0    0 -0.39217697404E+02 -0.55704473428E+01  0.18644392576E+02  0.43779801827E+02  0.51100000000E-03 0. -1.
         11    1    3    3    0    0  0.39217697404E+02  0.55704473428E+01 -0.21918378225E+02  0.45271105327E+02  0.51100000000E-03 0.  1.
<mgrwt>
<rscale>  0 0.88990702E+02</rscale>
<asrwt>0</asrwt>
<pdfrwt beam="1">  1        3 0.65982247E-02 0.88990702E+02</pdfrwt>
<pdfrwt beam="2">  1       -3 0.71019148E-02 0.88990702E+02</pdfrwt>
<totfact> 0.37923567E+04</totfact>
</mgrwt>
</event>
<event>
 5    1  0.7431090E-001  0.9292353E+02  0.7818608E-02  0.1295922E+00
          3   -1    0    0  501    0  0.00000000000E+00  0.00000000000E+00  0.50511184503E+02  0.50511270117E+02  0.93000000000E-01 0. -1.
         -3   -1    0    0    0  501 -0.00000000000E+00 -0.00000000000E+00 -0.42736814373E+02  0.42736915562E+02  0.93000000000E-01 0.  1.
         23    2    1    2    0    0  0.00000000000E+00  0.00000000000E+00  0.77743701294E+01  0.93248185679E+02  0.92923534702E+02 0.  0.
        -11    1    3    3    0    0 -0.40483851547E+02 -0.21706474142E+02  0.10881656627E+02  0.47207242103E+02  0.51100000000E-03 0. -1.
         11    1    3    3    0    0  0.40483851547E+02  0.21706474142E+02 -0.31072864976E+01  0.46040943576E+02  0.51100000000E-03 0.  1.
<mgrwt>
<rscale>  0 0.92923535E+02</rscale>
<asrwt>0</asrwt>
<pdfrwt beam="1">  1        3 0.77709658E-02 0.92923535E+02</pdfrwt>
<pdfrwt beam="2">  1       -3 0.65749089E-02 0.92923535E+02</pdfrwt>
<totfact> 0.33402853E+04</totfact>
</mgrwt>
</event>
<event>
 5    1  0.7431090E-001  0.9128385E+02  0.7818608E-02  0.1299772E+00
          3   -1    0    0  501    0  0.00000000000E+00  0.00000000000E+00  0.66259544702E+01  0.66266070988E+01  0.93000000000E-01 0. -1.
         -3   -1    0    0    0  501 -0.00000000000E+00 -0.00000000000E+00 -0.31438165701E+03  0.31438167076E+03  0.93000000000E-01 0.  1.
         23    2    1    2    0    0  0.00000000000E+00  0.00000000000E+00 -0.30775570254E+03  0.32100827786E+03  0.91283854058E+02 0.  0.
        -11    1    3    3    0    0  0.43064711873E+02  0.27376754532E+01 -0.10158558287E+03  0.11037071587E+03  0.51100000000E-03 0. -1.
         11    1    3    3    0    0 -0.43064711873E+02 -0.27376754532E+01 -0.20617011967E+03  0.21063756199E+03  0.51100000000E-03 0.  1.
<mgrwt>
<rscale>  0 0.91283854E+02</rscale>
<asrwt>0</asrwt>
<pdfrwt beam="1">  1        3 0.10194291E-02 0.91283854E+02</pdfrwt>
<pdfrwt beam="2">  1       -3 0.48366448E-01 0.91283854E+02</pdfrwt>
<totfact> 0.23158339E+04</totfact>
</mgrwt>
</event>
<event>
 5    1  0.7431090E-001  0.9145430E+02  0.7818608E-02  0.1299368E+00
         -3   -1    0    0    0  501 -0.00000000000E+00  0.00000000000E+00  0.24220709590E+02  0.24220888135E+02  0.93000000000E-01 0.  1.
          3   -1    0    0  501    0  0.00000000000E+00 -0.00000000000E+00 -0.86329412195E+02  0.86329462288E+02  0.93000000000E-01 0. -1.
         23    2    1    2    0    0  0.00000000000E+00  0.00000000000E+00 -0.62108702604E+02  0.11055035042E+03  0.91454300279E+02 0.  0.
        -11    1    3    3    0    0  0.18452271508E+02 -0.40533754977E+02 -0.18521164179E+02  0.48233858845E+02  0.51100000000E-03 0.  1.
         11    1    3    3    0    0 -0.18452271508E+02  0.40533754977E+02 -0.43587538425E+02  0.62316491578E+02  0.51100000000E-03 0. -1.
<mgrwt>
<rscale>  0 0.91454300E+02</rscale>
<asrwt>0</asrwt>
<pdfrwt beam="2">  1        3 0.13281465E-01 0.91454300E+02</pdfrwt>
<pdfrwt beam="1">  1       -3 0.37262806E-02 0.91454300E+02</pdfrwt>
<totfact> 0.33626135E+04</totfact>
</mgrwt>
</event>
<event>
 5    1  0.7431090E-001  0.8875545E+02  0.7818608E-02  0.1305894E+00
         -3   -1    0    0    0  501 -0.00000000000E+00  0.00000000000E+00  0.57870904306E+02  0.57870979033E+02  0.93000000000E-01 0.  1.
          3   -1    0    0  501    0  0.00000000000E+00 -0.00000000000E+00 -0.34030456787E+02  0.34030583864E+02  0.93000000000E-01 0. -1.
         23    2    1    2    0    0  0.00000000000E+00  0.00000000000E+00  0.23840447519E+02  0.91901562896E+02  0.88755452367E+02 0.  0.
        -11    1    3    3    0    0 -0.40365206547E+02  0.15763075814E+02  0.20124451426E+01  0.43380576234E+02  0.51100000000E-03 0.  1.
         11    1    3    3    0    0  0.40365206547E+02 -0.15763075814E+02  0.21828002377E+02  0.48520986662E+02  0.51100000000E-03 0. -1.
<mgrwt>
<rscale>  0 0.88755452E+02</rscale>
<asrwt>0</asrwt>
<pdfrwt beam="2">  1        3 0.52354705E-02 0.88755452E+02</pdfrwt>
<pdfrwt beam="1">  1       -3 0.89032315E-02 0.88755452E+02</pdfrwt>
<totfact> 0.37959888E+04</totfact>
</mgrwt>
</event>
<event>
 5    1  0.7431090E-001  0.9756815E+02  0.7818608E-02  0.1285495E+00
          3   -1    0    0  501    0  0.00000000000E+00  0.00000000000E+00  0.12275047209E+02  0.12275399504E+02  0.93000000000E-01 0. -1.
         -3   -1    0    0    0  501 -0.00000000000E+00 -0.00000000000E+00 -0.19387684760E+03  0.19387686991E+03  0.93000000000E-01 0.  1.
         23    2    1    2    0    0  0.00000000000E+00  0.00000000000E+00 -0.18160180040E+03  0.20615226941E+03  0.97568151964E+02 0.  0.
        -11    1    3    3    0    0 -0.29256672073E+02 -0.92366830062E+01 -0.17094150565E+03  0.17367287505E+03  0.51100000000E-03 0.  1.
         11    1    3    3    0    0  0.29256672073E+02  0.92366830062E+01 -0.10660294741E+02  0.32479394360E+02  0.51100000000E-03 0. -1.
<mgrwt>
<rscale>  0 0.97568152E+02</rscale>
<asrwt>0</asrwt>
<pdfrwt beam="1">  1        3 0.18884978E-02 0.97568152E+02</pdfrwt>
<pdfrwt beam="2">  1       -3 0.29827234E-01 0.97568152E+02</pdfrwt>
<totfact> 0.23453722E+04</totfact>
</mgrwt>
</event>
<event>
 5    1  0.7431090E-001  0.9540986E+02  0.7818608E-02  0.1290256E+00
         -3   -1    0    0    0  501 -0.00000000000E+00  0.00000000000E+00  0.28371764321E+02  0.28371916743E+02  0.93000000000E-01 0.  1.
          3   -1    0    0  501    0  0.00000000000E+00 -0.00000000000E+00 -0.80211751941E+02  0.80211805855E+02  0.93000000000E-01 0. -1.
         23    2    1    2    0    0  0.00000000000E+00  0.00000000000E+00 -0.51839987620E+02  0.10858372260E+03  0.95409855344E+02 0.  0.
        -11    1    3    3    0    0  0.25090701740E+02 -0.40572329167E+02 -0.26285095009E+02  0.54466167734E+02  0.51100000000E-03 0.  1.
         11    1    3    3    0    0 -0.25090701740E+02  0.40572329167E+02 -0.25554892611E+02  0.54117554864E+02  0.51100000000E-03 0. -1.
<mgrwt>
<rscale>  0 0.95409855E+02</rscale>
<asrwt>0</asrwt>
<pdfrwt beam="2">  1        3 0.12340285E-01 0.95409855E+02</pdfrwt>
<pdfrwt beam="1">  1       -3 0.43649027E-02 0.95409855E+02</pdfrwt>
<totfact> 0.30078508E+04</totfact>
</mgrwt>
</event>
<event>
 5    1  0.7431090E-001  0.9838282E+02  0.7818608E-02  0.1283734E+00
         -3   -1    0    0    0  501 -0.00000000000E+00  0.00000000000E+00  0.17520606398E+02  0.17520853220E+02  0.93000000000E-01 0.  1.
          3   -1    0    0  501    0  0.00000000000E+00 -0.00000000000E+00 -0.13811012421E+03  0.13811015552E+03  0.93000000000E-01 0. -1.
         23    2    1    2    0    0  0.00000000000E+00  0.00000000000E+00 -0.12058951781E+03  0.15563100874E+03  0.98382819006E+02 0.  0.
        -11    1    3    3    0    0 -0.30417501916E+02  0.15384966376E+02 -0.11639894861E+03  0.12128741423E+03  0.51100000000E-03 0. -1.
         11    1    3    3    0    0  0.30417501916E+02 -0.15384966376E+02 -0.41905691997E+01  0.34343594508E+02  0.51100000000E-03 0.  1.
<mgrwt>
<rscale>  0 0.98382819E+02</rscale>
<asrwt>0</asrwt>
<pdfrwt beam="2">  1        3 0.21247732E-01 0.98382819E+02</pdfrwt>
<pdfrwt beam="1">  1       -3 0.26954994E-02 0.98382819E+02</pdfrwt>
<totfact> 0.25174433E+04</totfact>
</mgrwt>
</event>
<event>
 5    1  0.7431090E-001  0.8901299E+02  0.7818608E-02  0.1305260E+00
         -3   -1    0    0    0  501 -0.00000000000E+00  0.00000000000E+00  0.42525854618E+02  0.42525956309E+02  0.93000000000E-01 0.  1.
          3   -1    0    0  501    0  0.00000000000E+00 -0.00000000000E+00 -0.46579183929E+02  0.46579276770E+02  0.93000000000E-01 0. -1.
         23    2    1    2    0    0  0.00000000000E+00  0.00000000000E+00 -0.40533293107E+01  0.89105233079E+02  0.89012993903E+02 0.  0.
        -11    1    3    3    0    0  0.22900280837E+02  0.19352366960E+02 -0.34952865007E+02  0.46050404362E+02  0.51100000000E-03 0. -1.
         11    1    3    3    0    0 -0.22900280837E+02 -0.19352366960E+02  0.30899535697E+02  0.43054828718E+02  0.51100000000E-03 0.  1.
<mgrwt>
<rscale>  0 0.89012994E+02</rscale>
<asrwt>0</asrwt>
<pdfrwt beam="2">  1        3 0.71660433E-02 0.89012994E+02</pdfrwt>
<pdfrwt beam="1">  1       -3 0.65424541E-02 0.89012994E+02</pdfrwt>
<totfact> 0.37893153E+04</totfact>
</mgrwt>
</event>
<event>
 5    1  0.7431090E-001  0.9088414E+02  0.7818608E-02  0.1300725E+00
          3   -1    0    0  501    0  0.00000000000E+00  0.00000000000E+00  0.11694721964E+03  0.11694725662E+03  0.93000000000E-01 0. -1.
         -3   -1    0    0    0  501 -0.00000000000E+00 -0.00000000000E+00 -0.17657220577E+02  0.17657465489E+02  0.93000000000E-01 0.  1.
         23    2    1    2    0    0  0.00000000000E+00  0.00000000000E+00  0.99289999063E+02  0.13460472211E+03  0.90884142180E+02 0.  0.
        -11    1    3    3    0    0  0.13196328268E+02 -0.43479204113E+02  0.48711163593E+02  0.66613525120E+02  0.51100000000E-03 0. -1.
         11    1    3    3    0    0 -0.13196328268E+02  0.43479204113E+02  0.50578835471E+02  0.67991196989E+02  0.51100000000E-03 0.  1.
<mgrwt>
<rscale>  0 0.90884142E+02</rscale>
<asrwt>0</asrwt>
<pdfrwt beam="1">  1        3 0.17991902E-01 0.90884142E+02</pdfrwt>
<pdfrwt beam="2">  1       -3 0.27165171E-02 0.90884142E+02</pdfrwt>
<totfact> 0.32558105E+04</totfact>
</mgrwt>
</event>
<event>
 5    1  0.7431090E-001  0.1045980E+03  0.7818608E-02  0.1270914E+00
          3   -1    0    0  501    0  0.00000000000E+00  0.00000000000E+00  0.15915494999E+02  0.15915766713E+02  0.93000000000E-01 0. -1.
         -3   -1    0    0    0  501 -0.00000000000E+00 -0.00000000000E+00 -0.17185500450E+03  0.17185502966E+03  0.93000000000E-01 0.  1.
         23    2    1    2    0    0  0.00000000000E+00  0.00000000000E+00 -0.15593950950E+03  0.18777079637E+03  0.10459799878E+03 0.  0.
        -11    1    3    3    0    0 -0.28075374910E+02  0.30197619606E+02 -0.20214973211E+02  0.45921324550E+02  0.51100000000E-03 0. -1.
         11    1    3    3    0    0  0.28075374910E+02 -0.30197619606E+02 -0.13572453629E+03  0.14184947182E+03  0.51100000000E-03 0.  1.
<mgrwt>
<rscale>  0 0.10459800E+03</rscale>
<asrwt>0</asrwt>
<pdfrwt beam="1">  1        3 0.24485607E-02 0.10459800E+03</pdfrwt>
<pdfrwt beam="2">  1       -3 0.26439253E-01 0.10459800E+03</pdfrwt>
<totfact> 0.20046951E+04</totfact>
</mgrwt>
</event>
<event>
 5    1  0.7431090E-001  0.9571267E+02  0.7818608E-02  0.1289579E+00
          3   -1    0    0  501    0  0.00000000000E+00  0.00000000000E+00  0.46991638914E+02  0.46991730941E+02  0.93000000000E-01 0. -1.
         -3   -1    0    0    0  501 -0.00000000000E+00 -0.00000000000E+00 -0.48736759068E+02  0.48736847799E+02  0.93000000000E-01 0.  1.
         23    2    1    2    0    0  0.00000000000E+00  0.00000000000E+00 -0.17451201531E+01  0.95728578741E+02  0.95712670756E+02 0.  0.
        -11    1    3    3    0    0  0.11316300136E+02  0.31339045753E+02 -0.35229898265E+02  0.48490619397E+02  0.51100000000E-03 0.  1.
         11    1    3    3    0    0 -0.11316300136E+02 -0.31339045753E+02  0.33484778112E+02  0.47237959344E+02  0.51100000000E-03 0. -1.
<mgrwt>
<rscale>  0 0.95712671E+02</rscale>
<asrwt>0</asrwt>
<pdfrwt beam="1">  1        3 0.72294968E-02 0.95712671E+02</pdfrwt>
<pdfrwt beam="2">  1       -3 0.74979768E-02 0.95712671E+02</pdfrwt>
<totfact> 0.30640374E+04</totfact>
</mgrwt>
</event>
<event>
 5    1  0.7431090E-001  0.9140033E+02  0.7818608E-02  0.1299496E+00
          3   -1    0    0  501    0  0.00000000000E+00  0.00000000000E+00  0.47216021163E+02  0.47216112753E+02  0.93000000000E-01 0. -1.
         -3   -1    0    0    0  501 -0.00000000000E+00 -0.00000000000E+00 -0.44232791236E+02  0.44232889003E+02  0.93000000000E-01 0.  1.
         23    2    1    2    0    0  0.00000000000E+00  0.00000000000E+00  0.29832299272E+01  0.91449001755E+02  0.91400329656E+02 0.  0.
        -11    1    3    3    0    0 -0.13289866502E+02  0.33450811829E+02  0.29665582006E+02  0.46643586051E+02  0.51100000000E-03 0. -1.
         11    1    3    3    0    0  0.13289866502E+02 -0.33450811829E+02 -0.26682352079E+02  0.44805415704E+02  0.51100000000E-03 0.  1.
<mgrwt>
<rscale>  0 0.91400330E+02</rscale>
<asrwt>0</asrwt>
<pdfrwt beam="1">  1        3 0.72640178E-02 0.91400330E+02</pdfrwt>
<pdfrwt beam="2">  1       -3 0.68050593E-02 0.91400330E+02</pdfrwt>
<totfact> 0.35082358E+04</totfact>
</mgrwt>
</event>
<event>
 5    1  0.7431090E-001  0.9009746E+02  0.7818608E-02  0.1302616E+00
          3   -1    0    0  501    0  0.00000000000E+00  0.00000000000E+00  0.42039014677E+02  0.42039117546E+02  0.93000000000E-01 0. -1.
         -3   -1    0    0    0  501 -0.00000000000E+00 -0.00000000000E+00 -0.48273710691E+02  0.48273800274E+02  0.93000000000E-01 0.  1.
         23    2    1    2    0    0  0.00000000000E+00  0.00000000000E+00 -0.62346960145E+01  0.90312917820E+02  0.90097456627E+02 0.  0.
        -11    1    3    3    0    0 -0.13161719320E+02 -0.41141343483E+02 -0.15936477411E+02  0.46041419522E+02  0.51100000000E-03 0.  1.
         11    1    3    3    0    0  0.13161719320E+02  0.41141343483E+02  0.97017813960E+01  0.44271498298E+02  0.51100000000E-03 0. -1.
<mgrwt>
<rscale>  0 0.90097457E+02</rscale>
<asrwt>0</asrwt>
<pdfrwt beam="1">  1        3 0.64675555E-02 0.90097457E+02</pdfrwt>
<pdfrwt beam="2">  1       -3 0.74267395E-02 0.90097457E+02</pdfrwt>
<totfact> 0.36570983E+04</totfact>
</mgrwt>
</event>
<event>
 5    1  0.7431090E-001  0.9307902E+02  0.7818608E-02  0.1295562E+00
          3   -1    0    0  501    0  0.00000000000E+00  0.00000000000E+00  0.17521684596E+03  0.17521687064E+03  0.93000000000E-01 0. -1.
         -3   -1    0    0    0  501 -0.00000000000E+00 -0.00000000000E+00 -0.12361203274E+02  0.12361553113E+02  0.93000000000E-01 0.  1.
         23    2    1    2    0    0  0.00000000000E+00  0.00000000000E+00  0.16285564268E+03  0.18757842375E+03  0.93079023970E+02 0.  0.
        -11    1    3    3    0    0 -0.96207361845E+01 -0.37251751679E+02  0.13419818594E+03  0.13960445795E+03  0.51100000000E-03 0. -1.
         11    1    3    3    0    0  0.96207361845E+01  0.37251751679E+02  0.28657456740E+02  0.47973965804E+02  0.51100000000E-03 0.  1.
<mgrwt>
<rscale>  0 0.93079024E+02</rscale>
<asrwt>0</asrwt>
<pdfrwt beam="1">  1        3 0.26956467E-01 0.93079024E+02</pdfrwt>
<pdfrwt beam="2">  1       -3 0.19017523E-02 0.93079024E+02</pdfrwt>
<totfact> 0.27568778E+04</totfact>
</mgrwt>
</event>
<event>
 5    1  0.7431090E-001  0.9196276E+02  0.7818608E-02  0.1298167E+00
          3   -1    0    0  501    0  0.00000000000E+00  0.00000000000E+00  0.71262796356E+02  0.71262857040E+02  0.93000000000E-01 0. -1.
         -3   -1    0    0    0  501 -0.00000000000E+00 -0.00000000000E+00 -0.29668734989E+02  0.29668880748E+02  0.93000000000E-01 0.  1.
         23    2    1    2    0    0  0.00000000000E+00  0.00000000000E+00  0.41594061367E+02  0.10093173779E+03  0.91962762854E+02 0.  0.
        -11    1    3    3    0    0  0.41613089902E+02  0.42786500520E+01 -0.15200353079E+00  0.41832752752E+02  0.51100000000E-03 0.  1.
         11    1    3    3    0    0 -0.41613089902E+02 -0.42786500520E+01  0.41746064898E+02  0.59098985035E+02  0.51100000000E-03 0. -1.
<mgrwt>
<rscale>  0 0.91962763E+02</rscale>
<asrwt>0</asrwt>
<pdfrwt beam="1">  1        3 0.10963523E-01 0.91962763E+02</pdfrwt>
<pdfrwt beam="2">  1       -3 0.45644366E-02 0.91962763E+02</pdfrwt>
<totfact> 0.33801457E+04</totfact>
</mgrwt>
</event>
<event>
 5    1  0.7431090E-001  0.9348735E+02  0.7818608E-02  0.1294620E+00
         -3   -1    0    0    0  501 -0.00000000000E+00  0.00000000000E+00  0.23638855548E+02  0.23639038488E+02  0.93000000000E-01 0.  1.
          3   -1    0    0  501    0  0.00000000000E+00 -0.00000000000E+00 -0.92430783249E+02  0.92430830036E+02  0.93000000000E-01 0. -1.
         23    2    1    2    0    0  0.00000000000E+00  0.00000000000E+00 -0.68791927701E+02  0.11606986852E+03  0.93487352419E+02 0.  0.
        -11    1    3    3    0    0 -0.36934815544E+02 -0.23704742038E+02 -0.54372142734E+02  0.69874353665E+02  0.51100000000E-03 0.  1.
         11    1    3    3    0    0  0.36934815544E+02  0.23704742038E+02 -0.14419784967E+02  0.46195514859E+02  0.51100000000E-03 0. -1.
<mgrwt>
<rscale>  0 0.93487352E+02</rscale>
<asrwt>0</asrwt>
<pdfrwt beam="2">  1        3 0.14220138E-01 0.93487352E+02</pdfrwt>
<pdfrwt beam="1">  1       -3 0.36367647E-02 0.93487352E+02</pdfrwt>
<totfact> 0.31307829E+04</totfact>
</mgrwt>
</event>
<event>
 5    1  0.7431090E-001  0.9451099E+02  0.7818608E-02  0.1292281E+00
         -3   -1    0    0    0  501 -0.00000000000E+00  0.00000000000E+00  0.10555855057E+03  0.10555859154E+03  0.93000000000E-01 0.  1.
          3   -1    0    0  501    0  0.00000000000E+00 -0.00000000000E+00 -0.21154764238E+02  0.21154968659E+02  0.93000000000E-01 0. -1.
         23    2    1    2    0    0  0.00000000000E+00  0.00000000000E+00  0.84403786330E+02  0.12671356019E+03  0.94510989786E+02 0.  0.
        -11    1    3    3    0    0 -0.43962430918E+02  0.98832164219E+01  0.23113175262E+02  0.50641802594E+02  0.51100000000E-03 0. -1.
         11    1    3    3    0    0  0.43962430918E+02 -0.98832164219E+01  0.61290611067E+02  0.76071757600E+02  0.51100000000E-03 0.  1.
<mgrwt>
<rscale>  0 0.94510990E+02</rscale>
<asrwt>0</asrwt>
<pdfrwt beam="2">  1        3 0.32545980E-02 0.94510990E+02</pdfrwt>
<pdfrwt beam="1">  1       -3 0.16239796E-01 0.94510990E+02</pdfrwt>
<totfact> 0.29738487E+04</totfact>
</mgrwt>
</event>
<event>
 5    1  0.7431090E-001  0.8759948E+02  0.7818608E-02  0.1308771E+00
          3   -1    0    0  501    0  0.00000000000E+00  0.00000000000E+00  0.18378939106E+02  0.18379174401E+02  0.93000000000E-01 0. -1.
         -3   -1    0    0    0  501 -0.00000000000E+00 -0.00000000000E+00 -0.10438036004E+03  0.10438040147E+03  0.93000000000E-01 0.  1.
         23    2    1    2    0    0  0.00000000000E+00  0.00000000000E+00 -0.86001420934E+02  0.12275957587E+03  0.87599480965E+02 0.  0.
        -11    1    3    3    0    0  0.34828948659E+02 -0.26181934826E+02 -0.49247109454E+02  0.65755814692E+02  0.51100000000E-03 0.  1.
         11    1    3    3    0    0 -0.34828948659E+02  0.26181934826E+02 -0.36754311479E+02  0.57003761179E+02  0.51100000000E-03 0. -1.
<mgrwt>
<rscale>  0 0.87599481E+02</rscale>
<asrwt>0</asrwt>
<pdfrwt beam="1">  1        3 0.28275504E-02 0.87599481E+02</pdfrwt>
<pdfrwt beam="2">  1       -3 0.16058538E-01 0.87599481E+02</pdfrwt>
<totfact> 0.36840295E+04</totfact>
</mgrwt>
</event>
<event>
 5    1  0.7431090E-001  0.9550554E+02  0.7818608E-02  0.1290042E+00
         -3   -1    0    0    0  501 -0.00000000000E+00  0.00000000000E+00  0.33466098014E+02  0.33466227234E+02  0.93000000000E-01 0.  1.
          3   -1    0    0  501    0  0.00000000000E+00 -0.00000000000E+00 -0.68138131025E+02  0.68138194491E+02  0.93000000000E-01 0. -1.
         23    2    1    2    0    0  0.00000000000E+00  0.00000000000E+00 -0.34672033011E+02  0.10160442173E+03  0.95505542463E+02 0.  0.
        -11    1    3    3    0    0  0.39638508398E+02  0.10597849360E+02  0.86535448542E+01  0.41933394781E+02  0.51100000000E-03 0.  1.
         11    1    3    3    0    0 -0.39638508398E+02 -0.10597849360E+02 -0.43325577865E+02  0.59671026945E+02  0.51100000000E-03 0. -1.
<mgrwt>
<rscale>  0 0.95505542E+02</rscale>
<asrwt>0</asrwt>
<pdfrwt beam="2">  1        3 0.10482804E-01 0.95505542E+02</pdfrwt>
<pdfrwt beam="1">  1       -3 0.51486453E-02 0.95505542E+02</pdfrwt>
<totfact> 0.30438972E+04</totfact>
</mgrwt>
</event>
<event>
 5    1  0.7431090E-001  0.9080607E+02  0.7818608E-02  0.1300911E+00
         -3   -1    0    0    0  501 -0.00000000000E+00  0.00000000000E+00  0.28896725045E+02  0.28896874698E+02  0.93000000000E-01 0.  1.
          3   -1    0    0  501    0  0.00000000000E+00 -0.00000000000E+00 -0.71337676678E+02  0.71337737298E+02  0.93000000000E-01 0. -1.
         23    2    1    2    0    0  0.00000000000E+00  0.00000000000E+00 -0.42440951633E+02  0.10023461200E+03  0.90806073951E+02 0.  0.
        -11    1    3    3    0    0  0.25980057376E+02 -0.26752601286E+02  0.73679248078E+01  0.38012516006E+02  0.51100000000E-03 0.  1.
         11    1    3    3    0    0 -0.25980057376E+02  0.26752601286E+02 -0.49808876441E+02  0.62222095990E+02  0.51100000000E-03 0. -1.
<mgrwt>
<rscale>  0 0.90806074E+02</rscale>
<asrwt>0</asrwt>
<pdfrwt beam="2">  1        3 0.10975043E-01 0.90806074E+02</pdfrwt>
<pdfrwt beam="1">  1       -3 0.44456662E-02 0.90806074E+02</pdfrwt>
<totfact> 0.35039877E+04</totfact>
</mgrwt>
</event>
<event>
 5    1  0.7431090E-001  0.9277840E+02  0.7818608E-02  0.1296260E+00
          3   -1    0    0  501    0  0.00000000000E+00  0.00000000000E+00  0.81332662133E+02  0.81332715304E+02  0.93000000000E-01 0. -1.
         -3   -1    0    0    0  501 -0.00000000000E+00 -0.00000000000E+00 -0.26458571519E+02  0.26458734963E+02  0.93000000000E-01 0.  1.
         23    2    1    2    0    0  0.00000000000E+00  0.00000000000E+00  0.54874090614E+02  0.10779145027E+03  0.92778396892E+02 0.  0.
        -11    1    3    3    0    0 -0.35042250987E+01 -0.46252608822E+02  0.28147860265E+02  0.54257584301E+02  0.51100000000E-03 0.  1.
         11    1    3    3    0    0  0.35042250987E+01  0.46252608822E+02  0.26726230349E+02  0.53533865966E+02  0.51100000000E-03 0. -1.
<mgrwt>
<rscale>  0 0.92778397E+02</rscale>
<asrwt>0</asrwt>
<pdfrwt beam="1">  1        3 0.12512733E-01 0.92778397E+02</pdfrwt>
<pdfrwt beam="2">  1       -3 0.40705663E-02 0.92778397E+02</pdfrwt>
<totfact> 0.32521702E+04</totfact>
</mgrwt>
</event>
<event>
 5    1  0.7431090E-001  0.9115914E+02  0.7818608E-02  0.1300069E+00
          3   -1    0    0  501    0  0.00000000000E+00  0.00000000000E+00  0.14471437630E+03  0.14471440618E+03  0.93000000000E-01 0. -1.
         -3   -1    0    0    0  501 -0.00000000000E+00 -0.00000000000E+00 -0.14355662525E+02  0.14355963762E+02  0.93000000000E-01 0.  1.
         23    2    1    2    0    0  0.00000000000E+00  0.00000000000E+00  0.13035871377E+03  0.15907036994E+03  0.91159137432E+02 0.  0.
        -11    1    3    3    0    0 -0.87730945563E+01 -0.27884471602E+02  0.41554720910E+01  0.29525902072E+02  0.51100000000E-03 0.  1.
         11    1    3    3    0    0  0.87730945563E+01  0.27884471602E+02  0.12620324168E+03  0.12954446787E+03  0.51100000000E-03 0. -1.
<mgrwt>
<rscale>  0 0.91159137E+02</rscale>
<asrwt>0</asrwt>
<pdfrwt beam="1">  1        3 0.22263775E-01 0.91159137E+02</pdfrwt>
<pdfrwt beam="2">  1       -3 0.22085890E-02 0.91159137E+02</pdfrwt>
<totfact> 0.30777391E+04</totfact>
</mgrwt>
</event>
<event>
 5    1  0.7431090E-001  0.9180759E+02  0.7818608E-02  0.1298532E+00
         -3   -1    0    0    0  501 -0.00000000000E+00  0.00000000000E+00  0.10055173626E+02  0.10055603694E+02  0.93000000000E-01 0.  1.
          3   -1    0    0  501    0  0.00000000000E+00 -0.00000000000E+00 -0.20955472100E+03  0.20955474163E+03  0.93000000000E-01 0. -1.
         23    2    1    2    0    0  0.00000000000E+00  0.00000000000E+00 -0.19949954737E+03  0.21961034533E+03  0.91807594312E+02 0.  0.
        -11    1    3    3    0    0 -0.35712351046E+02  0.22661364902E+02 -0.14242322716E+03  0.14857080841E+03  0.51100000000E-03 0. -1.
         11    1    3    3    0    0  0.35712351046E+02 -0.22661364902E+02 -0.57076320213E+02  0.71039536920E+02  0.51100000000E-03 0.  1.
<mgrwt>
<rscale>  0 0.91807594E+02</rscale>
<asrwt>0</asrwt>
<pdfrwt beam="2">  1        3 0.32239219E-01 0.91807594E+02</pdfrwt>
<pdfrwt beam="1">  1       -3 0.15469846E-02 0.91807594E+02</pdfrwt>
<totfact> 0.27008132E+04</totfact>
</mgrwt>
</event>
<event>
 5    1  0.7431090E-001  0.9034991E+02  0.7818608E-02  0.1302007E+00
         -3   -1    0    0    0  501 -0.00000000000E+00  0.00000000000E+00  0.19826034713E+02  0.19826252834E+02  0.93000000000E-01 0.  1.
          3   -1    0    0  501    0  0.00000000000E+00 -0.00000000000E+00 -0.10293337433E+03  0.10293341634E+03  0.93000000000E-01 0. -1.
         23    2    1    2    0    0  0.00000000000E+00  0.00000000000E+00 -0.83107339619E+02  0.12275966918E+03  0.90349911335E+02 0.  0.
        -11    1    3    3    0    0 -0.36110155465E+02 -0.14585936932E+02 -0.72658534727E+02  0.82437585802E+02  0.51100000000E-03 0. -1.
         11    1    3    3    0    0  0.36110155465E+02  0.14585936932E+02 -0.10448804891E+02  0.40322083376E+02  0.51100000000E-03 0.  1.
<mgrwt>
<rscale>  0 0.90349911E+02</rscale>
<asrwt>0</asrwt>
<pdfrwt beam="2">  1        3 0.15835923E-01 0.90349911E+02</pdfrwt>
<pdfrwt beam="1">  1       -3 0.30501793E-02 0.90349911E+02</pdfrwt>
<totfact> 0.33885169E+04</totfact>
</mgrwt>
</event>
<event>
 5    1  0.7431090E-001  0.9135361E+02  0.7818608E-02  0.1299606E+00
          3   -1    0    0  501    0  0.00000000000E+00  0.00000000000E+00  0.18063699787E+02  0.18063939188E+02  0.93000000000E-01 0. -1.
         -3   -1    0    0    0  501 -0.00000000000E+00 -0.00000000000E+00 -0.11549970193E+03  0.11549973937E+03  0.93000000000E-01 0.  1.
         23    2    1    2    0    0  0.00000000000E+00  0.00000000000E+00 -0.97436002139E+02  0.13356367856E+03  0.91353608119E+02 0.  0.
        -11    1    3    3    0    0  0.21749722533E+02 -0.15395870402E+02  0.55216888241E+01  0.27213458131E+02  0.51100000000E-03 0. -1.
         11    1    3    3    0    0 -0.21749722533E+02  0.15395870402E+02 -0.10295769096E+03  0.10635022042E+03  0.51100000000E-03 0.  1.
<mgrwt>
<rscale>  0 0.91353608E+02</rscale>
<asrwt>0</asrwt>
<pdfrwt beam="1">  1        3 0.27790521E-02 0.91353608E+02</pdfrwt>
<pdfrwt beam="2">  1       -3 0.17769206E-01 0.91353608E+02</pdfrwt>
<totfact> 0.32174777E+04</totfact>
</mgrwt>
</event>
<event>
 5    1  0.7431090E-001  0.9013291E+02  0.7818608E-02  0.1302530E+00
          3   -1    0    0  501    0  0.00000000000E+00  0.00000000000E+00  0.26433455915E+03  0.26433457551E+03  0.93000000000E-01 0. -1.
         -3   -1    0    0    0  501 -0.00000000000E+00 -0.00000000000E+00 -0.76830922738E+01  0.76836551125E+01  0.93000000000E-01 0.  1.
         23    2    1    2    0    0  0.00000000000E+00  0.00000000000E+00  0.25665146688E+03  0.27201823063E+03  0.90132914862E+02 0.  0.
        -11    1    3    3    0    0 -0.58591711029E+00  0.41416639477E+02  0.74736256906E+02  0.85446997730E+02  0.51100000000E-03 0.  1.
         11    1    3    3    0    0  0.58591711029E+00 -0.41416639477E+02  0.18191520997E+03  0.18657123290E+03  0.51100000000E-03 0. -1.
<mgrwt>
<rscale>  0 0.90132915E+02</rscale>
<asrwt>0</asrwt>
<pdfrwt beam="1">  1        3 0.40666897E-01 0.90132915E+02</pdfrwt>
<pdfrwt beam="2">  1       -3 0.11820588E-02 0.90132915E+02</pdfrwt>
<totfact> 0.25944962E+04</totfact>
</mgrwt>
</event>
<event>
 5    1  0.7431090E-001  0.9959856E+02  0.7818608E-02  0.1281142E+00
          3   -1    0    0  501    0  0.00000000000E+00  0.00000000000E+00  0.15110877342E+02  0.15111163524E+02  0.93000000000E-01 0. -1.
         -3   -1    0    0    0  501 -0.00000000000E+00 -0.00000000000E+00 -0.16411624558E+03  0.16411627193E+03  0.93000000000E-01 0.  1.
         23    2    1    2    0    0  0.00000000000E+00  0.00000000000E+00 -0.14900536824E+03  0.17922743545E+03  0.99598563522E+02 0.  0.
        -11    1    3    3    0    0  0.42452761448E+02  0.17329990921E+02 -0.39544082989E+02  0.60549979683E+02  0.51100000000E-03 0. -1.
         11    1    3    3    0    0 -0.42452761448E+02 -0.17329990921E+02 -0.10946128525E+03  0.11867745577E+03  0.51100000000E-03 0.  1.
<mgrwt>
<rscale>  0 0.99598564E+02</rscale>
<asrwt>0</asrwt>
<pdfrwt beam="1">  1        3 0.23247745E-02 0.99598564E+02</pdfrwt>
<pdfrwt beam="2">  1       -3 0.25248676E-01 0.99598564E+02</pdfrwt>
<totfact> 0.23285762E+04</totfact>
</mgrwt>
</event>
<event>
 5    1  0.7431090E-001  0.9380759E+02  0.7818608E-02  0.1293884E+00
         -3   -1    0    0    0  501 -0.00000000000E+00  0.00000000000E+00  0.11606612697E+03  0.11606616423E+03  0.93000000000E-01 0.  1.
          3   -1    0    0  501    0  0.00000000000E+00 -0.00000000000E+00 -0.18954264213E+02  0.18954492366E+02  0.93000000000E-01 0. -1.
         23    2    1    2    0    0  0.00000000000E+00  0.00000000000E+00  0.97111862760E+02  0.13502065660E+03  0.93807589350E+02 0.  0.
        -11    1    3    3    0    0  0.18890033840E+02 -0.58597743506E+01  0.10977080946E+03  0.11153833845E+03  0.51100000000E-03 0.  1.
         11    1    3    3    0    0 -0.18890033840E+02  0.58597743506E+01 -0.12658946700E+02  0.23482318151E+02  0.51100000000E-03 0. -1.
<mgrwt>
<rscale>  0 0.93807589E+02</rscale>
<asrwt>0</asrwt>
<pdfrwt beam="2">  1        3 0.29160611E-02 0.93807589E+02</pdfrwt>
<pdfrwt beam="1">  1       -3 0.17856347E-01 0.93807589E+02</pdfrwt>
<totfact> 0.29848920E+04</totfact>
</mgrwt>
</event>
<event>
 5    1  0.7431090E-001  0.9347870E+02  0.7818608E-02  0.1294640E+00
         -3   -1    0    0    0  501 -0.00000000000E+00  0.00000000000E+00  0.17525580830E+03  0.17525583298E+03  0.93000000000E-01 0.  1.
          3   -1    0    0  501    0  0.00000000000E+00 -0.00000000000E+00 -0.12464818076E+02  0.12465165007E+02  0.93000000000E-01 0. -1.
         23    2    1    2    0    0  0.00000000000E+00  0.00000000000E+00  0.16279099022E+03  0.18772099798E+03  0.93478695890E+02 0.  0.
        -11    1    3    3    0    0 -0.14499663540E+02  0.37657183013E+02  0.34032377131E+02  0.52787369404E+02  0.51100000000E-03 0. -1.
         11    1    3    3    0    0  0.14499663540E+02 -0.37657183013E+02  0.12875861309E+03  0.13493362858E+03  0.51100000000E-03 0.  1.
<mgrwt>
<rscale>  0 0.93478696E+02</rscale>
<asrwt>0</asrwt>
<pdfrwt beam="2">  1        3 0.19176929E-02 0.93478696E+02</pdfrwt>
<pdfrwt beam="1">  1       -3 0.26962461E-01 0.93478696E+02</pdfrwt>
<totfact> 0.27242697E+04</totfact>
</mgrwt>
</event>
<event>
 5    1  0.7431090E-001  0.9142109E+02  0.7818608E-02  0.1299446E+00
         -3   -1    0    0    0  501 -0.00000000000E+00  0.00000000000E+00  0.22903511744E+02  0.22903700557E+02  0.93000000000E-01 0.  1.
          3   -1    0    0  501    0  0.00000000000E+00 -0.00000000000E+00 -0.91227950211E+02  0.91227997615E+02  0.93000000000E-01 0. -1.
         23    2    1    2    0    0  0.00000000000E+00  0.00000000000E+00 -0.68324438467E+02  0.11413169817E+03  0.91421089666E+02 0.  0.
        -11    1    3    3    0    0  0.29286771466E+02  0.22321437226E+01  0.95637115144E+01  0.30889513215E+02  0.51100000000E-03 0.  1.
         11    1    3    3    0    0 -0.29286771466E+02 -0.22321437226E+01 -0.77888149982E+02  0.83242184956E+02  0.51100000000E-03 0. -1.
<mgrwt>
<rscale>  0 0.91421090E+02</rscale>
<asrwt>0</asrwt>
<pdfrwt beam="2">  1        3 0.14035087E-01 0.91421090E+02</pdfrwt>
<pdfrwt beam="1">  1       -3 0.35236354E-02 0.91421090E+02</pdfrwt>
<totfact> 0.33408365E+04</totfact>
</mgrwt>
</event>
<event>
 5    1  0.7431090E-001  0.8319034E+02  0.7818608E-02  0.1320234E+00
          3   -1    0    0  501    0  0.00000000000E+00  0.00000000000E+00  0.15000525857E+02  0.15000814144E+02  0.93000000000E-01 0.  1.
         -3   -1    0    0    0  501 -0.00000000000E+00 -0.00000000000E+00 -0.11533841079E+03  0.11533844828E+03  0.93000000000E-01 0. -1.
         23    2    1    2    0    0  0.00000000000E+00  0.00000000000E+00 -0.10033788493E+03  0.13033926243E+03  0.83190337042E+02 0.  0.
        -11    1    3    3    0    0 -0.17034052219E+02  0.35298717797E+02 -0.28346526637E+02  0.48370279985E+02  0.51100000000E-03 0.  1.
         11    1    3    3    0    0  0.17034052219E+02 -0.35298717797E+02 -0.71991358296E+02  0.81968982442E+02  0.51100000000E-03 0. -1.
<mgrwt>
<rscale>  0 0.83190337E+02</rscale>
<asrwt>0</asrwt>
<pdfrwt beam="1">  1        3 0.23077983E-02 0.83190337E+02</pdfrwt>
<pdfrwt beam="2">  1       -3 0.17744395E-01 0.83190337E+02</pdfrwt>
<totfact> 0.41677699E+04</totfact>
</mgrwt>
</event>
<event>
 5    1  0.7431090E-001  0.9434809E+02  0.7818608E-02  0.1292651E+00
          3   -1    0    0  501    0  0.00000000000E+00  0.00000000000E+00  0.10205698675E+03  0.10205702912E+03  0.93000000000E-01 0. -1.
         -3   -1    0    0    0  501 -0.00000000000E+00 -0.00000000000E+00 -0.21805226428E+02  0.21805424751E+02  0.93000000000E-01 0.  1.
         23    2    1    2    0    0  0.00000000000E+00  0.00000000000E+00  0.80251760322E+02  0.12386245387E+03  0.94348091899E+02 0.  0.
        -11    1    3    3    0    0 -0.24738596590E+02  0.45240073133E+01 -0.12270867739E+02  0.27982834001E+02  0.51100000000E-03 0.  1.
         11    1    3    3    0    0  0.24738596590E+02 -0.45240073133E+01  0.92522628061E+02  0.95879619873E+02  0.51100000000E-03 0. -1.
<mgrwt>
<rscale>  0 0.94348092E+02</rscale>
<asrwt>0</asrwt>
<pdfrwt beam="1">  1        3 0.15701093E-01 0.94348092E+02</pdfrwt>
<pdfrwt beam="2">  1       -3 0.33546688E-02 0.94348092E+02</pdfrwt>
<totfact> 0.30050564E+04</totfact>
</mgrwt>
</event>
<event>
 5    1  0.7431090E-001  0.9199152E+02  0.7818608E-02  0.1298099E+00
          3   -1    0    0  501    0  0.00000000000E+00  0.00000000000E+00  0.14000886328E+03  0.14000889417E+03  0.93000000000E-01 0. -1.
         -3   -1    0    0    0  501 -0.00000000000E+00 -0.00000000000E+00 -0.15110367412E+02  0.15110653604E+02  0.93000000000E-01 0.  1.
         23    2    1    2    0    0  0.00000000000E+00  0.00000000000E+00  0.12489849587E+03  0.15511954777E+03  0.91991520428E+02 0.  0.
        -11    1    3    3    0    0 -0.68450582497E+01 -0.34702919875E+02  0.12870927614E+02  0.37640513389E+02  0.51100000000E-03 0.  1.
         11    1    3    3    0    0  0.68450582497E+01  0.34702919875E+02  0.11202756825E+03  0.11747903438E+03  0.51100000000E-03 0. -1.
<mgrwt>
<rscale>  0 0.91991520E+02</rscale>
<asrwt>0</asrwt>
<pdfrwt beam="1">  1        3 0.21539850E-01 0.91991520E+02</pdfrwt>
<pdfrwt beam="2">  1       -3 0.23246963E-02 0.91991520E+02</pdfrwt>
<totfact> 0.30257738E+04</totfact>
</mgrwt>
</event>
<event>
 5    1  0.7431090E-001  0.9147732E+02  0.7818608E-02  0.1299313E+00
          3   -1    0    0  501    0  0.00000000000E+00  0.00000000000E+00  0.20649264201E+03  0.20649266295E+03  0.93000000000E-01 0. -1.
         -3   -1    0    0    0  501 -0.00000000000E+00 -0.00000000000E+00 -0.10130997193E+02  0.10131424042E+02  0.93000000000E-01 0.  1.
         23    2    1    2    0    0  0.00000000000E+00  0.00000000000E+00  0.19636164481E+03  0.21662408699E+03  0.91477316919E+02 0.  0.
        -11    1    3    3    0    0  0.31273930541E+02 -0.19951863636E+02  0.34820663485E+02  0.50878425681E+02  0.51100000000E-03 0.  1.
         11    1    3    3    0    0 -0.31273930541E+02  0.19951863636E+02  0.16154098133E+03  0.16574566131E+03  0.51100000000E-03 0. -1.
<mgrwt>
<rscale>  0 0.91477317E+02</rscale>
<asrwt>0</asrwt>
<pdfrwt beam="1">  1        3 0.31768131E-01 0.91477317E+02</pdfrwt>
<pdfrwt beam="2">  1       -3 0.15586495E-02 0.91477317E+02</pdfrwt>
<totfact> 0.27416746E+04</totfact>
</mgrwt>
</event>
<event>
 5    1  0.7431090E-001  0.9132086E+02  0.7818608E-02  0.1299684E+00
          3   -1    0    0  501    0  0.00000000000E+00  0.00000000000E+00  0.15072547907E+02  0.15072834816E+02  0.93000000000E-01 0. -1.
         -3   -1    0    0    0  501 -0.00000000000E+00 -0.00000000000E+00 -0.13832103872E+03  0.13832106998E+03  0.93000000000E-01 0.  1.
         23    2    1    2    0    0  0.00000000000E+00  0.00000000000E+00 -0.12324849081E+03  0.15339390480E+03  0.91320860388E+02 0.  0.
        -11    1    3    3    0    0 -0.19419279374E+02 -0.40368377311E+02 -0.46774055244E+02  0.64765164574E+02  0.51100000000E-03 0.  1.
         11    1    3    3    0    0  0.19419279374E+02  0.40368377311E+02 -0.76474435568E+02  0.88628740224E+02  0.51100000000E-03 0. -1.
<mgrwt>
<rscale>  0 0.91320860E+02</rscale>
<asrwt>0</asrwt>
<pdfrwt beam="1">  1        3 0.23188781E-02 0.91320860E+02</pdfrwt>
<pdfrwt beam="2">  1       -3 0.21280183E-01 0.91320860E+02</pdfrwt>
<totfact> 0.30968808E+04</totfact>
</mgrwt>
</event>
<event>
 5    1  0.7431090E-001  0.9075370E+02  0.7818608E-02  0.1301037E+00
         -3   -1    0    0    0  501 -0.00000000000E+00  0.00000000000E+00  0.13860419434E+02  0.13860731434E+02  0.93000000000E-01 0.  1.
          3   -1    0    0  501    0  0.00000000000E+00 -0.00000000000E+00 -0.14855473679E+03  0.14855476590E+03  0.93000000000E-01 0. -1.
         23    2    1    2    0    0  0.00000000000E+00  0.00000000000E+00 -0.13469431735E+03  0.16241549733E+03  0.90753703209E+02 0.  0.
        -11    1    3    3    0    0 -0.25432825099E+02  0.24616020357E+02 -0.11816386210E+03  0.12335102496E+03  0.51100000000E-03 0. -1.
         11    1    3    3    0    0  0.25432825099E+02 -0.24616020357E+02 -0.16530455248E+02  0.39064472372E+02  0.51100000000E-03 0.  1.
<mgrwt>
<rscale>  0 0.90753703E+02</rscale>
<asrwt>0</asrwt>
<pdfrwt beam="2">  1        3 0.22854600E-01 0.90753703E+02</pdfrwt>
<pdfrwt beam="1">  1       -3 0.21323986E-02 0.90753703E+02</pdfrwt>
<totfact> 0.30951102E+04</totfact>
</mgrwt>
</event>
<event>
 5    1  0.7431090E-001  0.9316355E+02  0.7818608E-02  0.1295367E+00
         -3   -1    0    0    0  501 -0.00000000000E+00  0.00000000000E+00  0.26212588321E+02  0.26212753299E+02  0.93000000000E-01 0.  1.
          3   -1    0    0  501    0  0.00000000000E+00 -0.00000000000E+00 -0.82778923233E+02  0.82778975474E+02  0.93000000000E-01 0. -1.
         23    2    1    2    0    0  0.00000000000E+00  0.00000000000E+00 -0.56566334911E+02  0.10899172877E+03  0.93163548106E+02 0.  0.
        -11    1    3    3    0    0 -0.22176060945E+02 -0.28466547697E+02  0.61789726647E+01  0.36610131389E+02  0.51100000000E-03 0.  1.
         11    1    3    3    0    0  0.22176060945E+02  0.28466547697E+02 -0.62745307576E+02  0.72381597384E+02  0.51100000000E-03 0. -1.
<mgrwt>
<rscale>  0 0.93163548E+02</rscale>
<asrwt>0</asrwt>
<pdfrwt beam="2">  1        3 0.12735236E-01 0.93163548E+02</pdfrwt>
<pdfrwt beam="1">  1       -3 0.40327226E-02 0.93163548E+02</pdfrwt>
<totfact> 0.32075272E+04</totfact>
</mgrwt>
</event>
<event>
 5    1  0.7431090E-001  0.9179622E+02  0.7818608E-02  0.1298559E+00
         -3   -1    0    0    0  501 -0.00000000000E+00  0.00000000000E+00  0.22609178779E+03  0.22609180692E+03  0.93000000000E-01 0.  1.
          3   -1    0    0  501    0  0.00000000000E+00 -0.00000000000E+00 -0.93173650829E+01  0.93178292047E+01  0.93000000000E-01 0. -1.
         23    2    1    2    0    0  0.00000000000E+00  0.00000000000E+00  0.21677442271E+03  0.23540963613E+03  0.91796222358E+02 0.  0.
        -11    1    3    3    0    0 -0.21960950314E+02 -0.40178167942E+02  0.11652437418E+03  0.12519783663E+03  0.51100000000E-03 0.  1.
         11    1    3    3    0    0  0.21960950314E+02  0.40178167942E+02  0.10025004853E+03  0.11021179950E+03  0.51100000000E-03 0. -1.
<mgrwt>
<rscale>  0 0.91796222E+02</rscale>
<asrwt>0</asrwt>
<pdfrwt beam="2">  1        3 0.14334779E-02 0.91796222E+02</pdfrwt>
<pdfrwt beam="1">  1       -3 0.34783390E-01 0.91796222E+02</pdfrwt>
<totfact> 0.26278067E+04</totfact>
</mgrwt>
</event>
<event>
 5    1  0.7431090E-001  0.8512703E+02  0.7818608E-02  0.1315101E+00
         -3   -1    0    0    0  501 -0.00000000000E+00  0.00000000000E+00  0.23473108639E+02  0.23473292870E+02  0.93000000000E-01 0.  1.
          3   -1    0    0  501    0  0.00000000000E+00 -0.00000000000E+00 -0.77179405649E+02  0.77179461681E+02  0.93000000000E-01 0. -1.
         23    2    1    2    0    0  0.00000000000E+00  0.00000000000E+00 -0.53706297010E+02  0.10065275455E+03  0.85127026615E+02 0.  0.
        -11    1    3    3    0    0  0.25762004200E+02  0.16310641011E+02  0.82605389180E+01  0.31590415858E+02  0.51100000000E-03 0.  1.
         11    1    3    3    0    0 -0.25762004200E+02 -0.16310641011E+02 -0.61966835928E+02  0.69062338693E+02  0.51100000000E-03 0. -1.
<mgrwt>
<rscale>  0 0.85127027E+02</rscale>
<asrwt>0</asrwt>
<pdfrwt beam="2">  1        3 0.11873773E-01 0.85127027E+02</pdfrwt>
<pdfrwt beam="1">  1       -3 0.36112660E-02 0.85127027E+02</pdfrwt>
<totfact> 0.41692719E+04</totfact>
</mgrwt>
</event>
<event>
 5    1  0.7431090E-001  0.9161314E+02  0.7818608E-02  0.1298992E+00
         -3   -1    0    0    0  501 -0.00000000000E+00  0.00000000000E+00  0.15997456963E+02  0.15997727285E+02  0.93000000000E-01 0.  1.
          3   -1    0    0  501    0  0.00000000000E+00 -0.00000000000E+00 -0.13115957898E+03  0.13115961195E+03  0.93000000000E-01 0. -1.
         23    2    1    2    0    0  0.00000000000E+00  0.00000000000E+00 -0.11516212202E+03  0.14715733924E+03  0.91613143947E+02 0.  0.
        -11    1    3    3    0    0  0.84590433175E+01  0.44739282737E+02 -0.65625867973E+02  0.79874359973E+02  0.51100000000E-03 0.  1.
         11    1    3    3    0    0 -0.84590433175E+01 -0.44739282737E+02 -0.49536254046E+02  0.67282979265E+02  0.51100000000E-03 0. -1.
<mgrwt>
<rscale>  0 0.91613144E+02</rscale>
<asrwt>0</asrwt>
<pdfrwt beam="2">  1        3 0.20178419E-01 0.91613144E+02</pdfrwt>
<pdfrwt beam="1">  1       -3 0.24611706E-02 0.91613144E+02</pdfrwt>
<totfact> 0.31076590E+04</totfact>
</mgrwt>
</event>
<event>
 5    1  0.7431090E-001  0.9165037E+02  0.7818608E-02  0.1298904E+00
          3   -1    0    0  501    0  0.00000000000E+00  0.00000000000E+00  0.74144698010E+01  0.74150530295E+01  0.93000000000E-01 0. -1.
         -3   -1    0    0    0  501 -0.00000000000E+00 -0.00000000000E+00 -0.28321115972E+03  0.28321117499E+03  0.93000000000E-01 0.  1.
         23    2    1    2    0    0  0.00000000000E+00  0.00000000000E+00 -0.27579668992E+03  0.29062622802E+03  0.91650369570E+02 0.  0.
        -11    1    3    3    0    0 -0.75533769961E+01 -0.43429646079E+02 -0.17760086472E+03  0.18298976696E+03  0.51100000000E-03 0.  1.
         11    1    3    3    0    0  0.75533769961E+01  0.43429646079E+02 -0.98195825204E+02  0.10763646106E+03  0.51100000000E-03 0. -1.
<mgrwt>
<rscale>  0 0.91650370E+02</rscale>
<asrwt>0</asrwt>
<pdfrwt beam="1">  1        3 0.11407339E-02 0.91650370E+02</pdfrwt>
<pdfrwt beam="2">  1       -3 0.43570985E-01 0.91650370E+02</pdfrwt>
<totfact> 0.24053916E+04</totfact>
</mgrwt>
</event>
<event>
 5    1  0.7431090E-001  0.9054459E+02  0.7818608E-02  0.1301538E+00
         -3   -1    0    0    0  501 -0.00000000000E+00  0.00000000000E+00  0.32855599552E+02  0.32855731173E+02  0.93000000000E-01 0.  1.
          3   -1    0    0  501    0  0.00000000000E+00 -0.00000000000E+00 -0.62381177080E+02  0.62381246403E+02  0.93000000000E-01 0. -1.
         23    2    1    2    0    0  0.00000000000E+00  0.00000000000E+00 -0.29525577528E+02  0.95236977576E+02  0.90544586639E+02 0.  0.
        -11    1    3    3    0    0 -0.86063649991E+01 -0.30985537079E+02  0.18754069329E+02  0.37227518628E+02  0.51100000000E-03 0.  1.
         11    1    3    3    0    0  0.86063649991E+01  0.30985537079E+02 -0.48279646857E+02  0.58009458948E+02  0.51100000000E-03 0. -1.
<mgrwt>
<rscale>  0 0.90544587E+02</rscale>
<asrwt>0</asrwt>
<pdfrwt beam="2">  1        3 0.95971196E-02 0.90544587E+02</pdfrwt>
<pdfrwt beam="1">  1       -3 0.50547231E-02 0.90544587E+02</pdfrwt>
<totfact> 0.35697338E+04</totfact>
</mgrwt>
</event>
<event>
 5    1  0.7431090E-001  0.8863960E+02  0.7818608E-02  0.1306180E+00
          3   -1    0    0  501    0  0.00000000000E+00  0.00000000000E+00  0.15166012385E+03  0.15166015237E+03  0.93000000000E-01 0. -1.
         -3   -1    0    0    0  501 -0.00000000000E+00 -0.00000000000E+00 -0.12951426091E+02  0.12951759988E+02  0.93000000000E-01 0.  1.
         23    2    1    2    0    0  0.00000000000E+00  0.00000000000E+00  0.13870869776E+03  0.16461191236E+03  0.88639600938E+02 0.  0.
        -11    1    3    3    0    0 -0.36001124761E+02  0.25291894578E+02  0.59443007931E+02  0.73954256859E+02  0.51100000000E-03 0.  1.
         11    1    3    3    0    0  0.36001124761E+02 -0.25291894578E+02  0.79265689830E+02  0.90657655496E+02  0.51100000000E-03 0. -1.
<mgrwt>
<rscale>  0 0.88639601E+02</rscale>
<asrwt>0</asrwt>
<pdfrwt beam="1">  1        3 0.23332355E-01 0.88639601E+02</pdfrwt>
<pdfrwt beam="2">  1       -3 0.19925550E-02 0.88639601E+02</pdfrwt>
<totfact> 0.32843143E+04</totfact>
</mgrwt>
</event>
<event>
 5    1  0.7431090E-001  0.9218579E+02  0.7818608E-02  0.1297643E+00
          3   -1    0    0  501    0  0.00000000000E+00  0.00000000000E+00  0.10366127644E+03  0.10366131816E+03  0.93000000000E-01 0. -1.
         -3   -1    0    0    0  501 -0.00000000000E+00 -0.00000000000E+00 -0.20495014549E+02  0.20495225551E+02  0.93000000000E-01 0.  1.
         23    2    1    2    0    0  0.00000000000E+00  0.00000000000E+00  0.83166261892E+02  0.12415654371E+03  0.92185791903E+02 0.  0.
        -11    1    3    3    0    0  0.44526365226E+02 -0.10309848396E+02  0.33539983616E+02  0.56690569545E+02  0.51100000000E-03 0.  1.
         11    1    3    3    0    0 -0.44526365226E+02  0.10309848396E+02  0.49626278276E+02  0.67465974164E+02  0.51100000000E-03 0. -1.
<mgrwt>
<rscale>  0 0.92185792E+02</rscale>
<asrwt>0</asrwt>
<pdfrwt beam="1">  1        3 0.15947908E-01 0.92185792E+02</pdfrwt>
<pdfrwt beam="2">  1       -3 0.31530986E-02 0.92185792E+02</pdfrwt>
<totfact> 0.31991934E+04</totfact>
</mgrwt>
</event>
<event>
 5    1  0.7431090E-001  0.9088376E+02  0.7818608E-02  0.1300726E+00
          3   -1    0    0  501    0  0.00000000000E+00  0.00000000000E+00  0.24069524147E+02  0.24069703814E+02  0.93000000000E-01 0. -1.
         -3   -1    0    0    0  501 -0.00000000000E+00 -0.00000000000E+00 -0.85791135598E+02  0.85791186006E+02  0.93000000000E-01 0.  1.
         23    2    1    2    0    0  0.00000000000E+00  0.00000000000E+00 -0.61721611451E+02  0.10986088982E+03  0.90883759780E+02 0.  0.
        -11    1    3    3    0    0 -0.29081000376E+02 -0.68656861279E+00 -0.73061636334E+02  0.78639548978E+02  0.51100000000E-03 0.  1.
         11    1    3    3    0    0  0.29081000376E+02  0.68656861279E+00  0.11340024883E+02  0.31221340842E+02  0.51100000000E-03 0. -1.
<mgrwt>
<rscale>  0 0.90883760E+02</rscale>
<asrwt>0</asrwt>
<pdfrwt beam="1">  1        3 0.37030214E-02 0.90883760E+02</pdfrwt>
<pdfrwt beam="2">  1       -3 0.13198654E-01 0.90883760E+02</pdfrwt>
<totfact> 0.34254758E+04</totfact>
</mgrwt>
</event>
<event>
 5    1  0.7431090E-001  0.9332020E+02  0.7818608E-02  0.1295005E+00
         -3   -1    0    0    0  501 -0.00000000000E+00  0.00000000000E+00  0.52790794910E+02  0.52790876827E+02  0.93000000000E-01 0.  1.
          3   -1    0    0  501    0  0.00000000000E+00 -0.00000000000E+00 -0.41241205524E+02  0.41241310382E+02  0.93000000000E-01 0. -1.
         23    2    1    2    0    0  0.00000000000E+00  0.00000000000E+00  0.11549589386E+02  0.94032187210E+02  0.93320197259E+02 0.  0.
        -11    1    3    3    0    0 -0.22372083593E+02 -0.37886890182E+02 -0.98755518417E+01  0.45093825480E+02  0.51100000000E-03 0. -1.
         11    1    3    3    0    0  0.22372083593E+02  0.37886890182E+02  0.21425141227E+02  0.48938361730E+02  0.51100000000E-03 0.  1.
<mgrwt>
<rscale>  0 0.93320197E+02</rscale>
<asrwt>0</asrwt>
<pdfrwt beam="2">  1        3 0.63448153E-02 0.93320197E+02</pdfrwt>
<pdfrwt beam="1">  1       -3 0.81216751E-02 0.93320197E+02</pdfrwt>
<totfact> 0.32960779E+04</totfact>
</mgrwt>
</event>
<event>
 5    1  0.7431090E-001  0.9199896E+02  0.7818608E-02  0.1298082E+00
          3   -1    0    0  501    0  0.00000000000E+00  0.00000000000E+00  0.56840875828E+02  0.56840951909E+02  0.93000000000E-01 0. -1.
         -3   -1    0    0    0  501 -0.00000000000E+00 -0.00000000000E+00 -0.37225728418E+02  0.37225844587E+02  0.93000000000E-01 0.  1.
         23    2    1    2    0    0  0.00000000000E+00  0.00000000000E+00  0.19615147410E+02  0.94066796496E+02  0.91998957576E+02 0.  0.
        -11    1    3    3    0    0  0.14396287284E+02  0.12516759543E+02  0.52605643098E+02  0.55957805917E+02  0.51100000000E-03 0. -1.
         11    1    3    3    0    0 -0.14396287284E+02 -0.12516759543E+02 -0.32990495688E+02  0.38108990580E+02  0.51100000000E-03 0.  1.
<mgrwt>
<rscale>  0 0.91998958E+02</rscale>
<asrwt>0</asrwt>
<pdfrwt beam="1">  1        3 0.87447649E-02 0.91998958E+02</pdfrwt>
<pdfrwt beam="2">  1       -3 0.57270499E-02 0.91998958E+02</pdfrwt>
<totfact> 0.34267821E+04</totfact>
</mgrwt>
</event>
<event>
 5    1  0.7431090E-001  0.8544120E+02  0.7818608E-02  0.1314283E+00
          3   -1    0    0  501    0  0.00000000000E+00  0.00000000000E+00  0.41380351645E+02  0.41380456151E+02  0.93000000000E-01 0. -1.
         -3   -1    0    0    0  501 -0.00000000000E+00 -0.00000000000E+00 -0.44104052756E+02  0.44104150808E+02  0.93000000000E-01 0.  1.
         23    2    1    2    0    0  0.00000000000E+00  0.00000000000E+00 -0.27237011106E+01  0.85484606959E+02  0.85441204809E+02 0.  0.
        -11    1    3    3    0    0  0.16630334121E+00  0.18371694599E+02  0.37225902272E+02  0.41512824759E+02  0.51100000000E-03 0. -1.
         11    1    3    3    0    0 -0.16630334121E+00 -0.18371694599E+02 -0.39949603382E+02  0.43971782201E+02  0.51100000000E-03 0.  1.
<mgrwt>
<rscale>  0 0.85441205E+02</rscale>
<asrwt>0</asrwt>
<pdfrwt beam="1">  1        3 0.63662235E-02 0.85441205E+02</pdfrwt>
<pdfrwt beam="2">  1       -3 0.67852544E-02 0.85441205E+02</pdfrwt>
<totfact> 0.42678234E+04</totfact>
</mgrwt>
</event>
<event>
 5    1  0.7431090E-001  0.8661336E+02  0.7818608E-02  0.1311267E+00
          3   -1    0    0  501    0  0.00000000000E+00  0.00000000000E+00  0.11380148621E+03  0.11380152421E+03  0.93000000000E-01 0. -1.
         -3   -1    0    0    0  501 -0.00000000000E+00 -0.00000000000E+00 -0.16480004136E+02  0.16480266542E+02  0.93000000000E-01 0.  1.
         23    2    1    2    0    0  0.00000000000E+00  0.00000000000E+00  0.97321482076E+02  0.13028179075E+03  0.86613359989E+02 0.  0.
        -11    1    3    3    0    0 -0.16510734791E+02 -0.29133023021E+02  0.89967609297E+02  0.95997438073E+02  0.51100000000E-03 0. -1.
         11    1    3    3    0    0  0.16510734791E+02  0.29133023021E+02  0.73538727789E+01  0.34284352681E+02  0.51100000000E-03 0.  1.
<mgrwt>
<rscale>  0 0.86613360E+02</rscale>
<asrwt>0</asrwt>
<pdfrwt beam="1">  1        3 0.17507944E-01 0.86613360E+02</pdfrwt>
<pdfrwt beam="2">  1       -3 0.25354084E-02 0.86613360E+02</pdfrwt>
<totfact> 0.37400011E+04</totfact>
</mgrwt>
</event>
<event>
 5    1  0.7431090E-001  0.8979156E+02  0.7818608E-02  0.1303357E+00
         -3   -1    0    0    0  501 -0.00000000000E+00  0.00000000000E+00  0.12142655418E+03  0.12142658980E+03  0.93000000000E-01 0.  1.
          3   -1    0    0  501    0  0.00000000000E+00 -0.00000000000E+00 -0.16599423131E+02  0.16599683650E+02  0.93000000000E-01 0. -1.
         23    2    1    2    0    0  0.00000000000E+00  0.00000000000E+00  0.10482713105E+03  0.13802627345E+03  0.89791562839E+02 0.  0.
        -11    1    3    3    0    0 -0.23731271384E+02  0.34614389127E+01  0.11075529565E+03  0.11332206456E+03  0.51100000000E-03 0.  1.
         11    1    3    3    0    0  0.23731271384E+02 -0.34614389127E+01 -0.59281646023E+01  0.24704208885E+02  0.51100000000E-03 0. -1.
<mgrwt>
<rscale>  0 0.89791563E+02</rscale>
<asrwt>0</asrwt>
<pdfrwt beam="2">  1        3 0.25537802E-02 0.89791563E+02</pdfrwt>
<pdfrwt beam="1">  1       -3 0.18681031E-01 0.89791563E+02</pdfrwt>
<totfact> 0.33412676E+04</totfact>
</mgrwt>
</event>
<event>
 5    1  0.7431090E-001  0.8976887E+02  0.7818608E-02  0.1303412E+00
         -3   -1    0    0    0  501 -0.00000000000E+00  0.00000000000E+00  0.42588084204E+01  0.42598237242E+01  0.93000000000E-01 0.  1.
          3   -1    0    0  501    0  0.00000000000E+00 -0.00000000000E+00 -0.47298865356E+03  0.47298866270E+03  0.93000000000E-01 0. -1.
         23    2    1    2    0    0  0.00000000000E+00  0.00000000000E+00 -0.46872984514E+03  0.47724848643E+03  0.89768870286E+02 0.  0.
        -11    1    3    3    0    0 -0.36809716960E+02 -0.25653715217E+02 -0.22775854109E+03  0.23213578227E+03  0.51100000000E-03 0. -1.
         11    1    3    3    0    0  0.36809716960E+02  0.25653715217E+02 -0.24097130405E+03  0.24511270416E+03  0.51100000000E-03 0.  1.
<mgrwt>
<rscale>  0 0.89768870E+02</rscale>
<asrwt>0</asrwt>
<pdfrwt beam="2">  1        3 0.72767523E-01 0.89768870E+02</pdfrwt>
<pdfrwt beam="1">  1       -3 0.65528047E-03 0.89768870E+02</pdfrwt>
<totfact> 0.19258268E+04</totfact>
</mgrwt>
</event>
<event>
 5    1  0.7431090E-001  0.8860474E+02  0.7818608E-02  0.1306266E+00
          3   -1    0    0  501    0  0.00000000000E+00  0.00000000000E+00  0.85947795114E+02  0.85947845429E+02  0.93000000000E-01 0. -1.
         -3   -1    0    0    0  501 -0.00000000000E+00 -0.00000000000E+00 -0.22835804461E+02  0.22835993834E+02  0.93000000000E-01 0.  1.
         23    2    1    2    0    0  0.00000000000E+00  0.00000000000E+00  0.63111990653E+02  0.10878383926E+03  0.88604742089E+02 0.  0.
        -11    1    3    3    0    0 -0.43439359643E+01 -0.27107848924E+02 -0.11133364060E+02  0.29625277189E+02  0.51100000000E-03 0.  1.
         11    1    3    3    0    0  0.43439359643E+01  0.27107848924E+02  0.74245354713E+02  0.79158562074E+02  0.51100000000E-03 0. -1.
<mgrwt>
<rscale>  0 0.88604742E+02</rscale>
<asrwt>0</asrwt>
<pdfrwt beam="1">  1        3 0.13222756E-01 0.88604742E+02</pdfrwt>
<pdfrwt beam="2">  1       -3 0.35132190E-02 0.88604742E+02</pdfrwt>
<totfact> 0.36775817E+04</totfact>
</mgrwt>
</event>
<event>
 5    1  0.7431090E-001  0.9177252E+02  0.7818608E-02  0.1298615E+00
         -3   -1    0    0    0  501 -0.00000000000E+00  0.00000000000E+00  0.41638983918E+02  0.41639087775E+02  0.93000000000E-01 0.  1.
          3   -1    0    0  501    0  0.00000000000E+00 -0.00000000000E+00 -0.50566553871E+02  0.50566639392E+02  0.93000000000E-01 0. -1.
         23    2    1    2    0    0  0.00000000000E+00  0.00000000000E+00 -0.89275699526E+01  0.92205727167E+02  0.91772515586E+02 0.  0.
        -11    1    3    3    0    0 -0.27101250401E+02 -0.51134398850E+01  0.32382530838E+02  0.42535318789E+02  0.51100000000E-03 0.  1.
         11    1    3    3    0    0  0.27101250401E+02  0.51134398850E+01 -0.41310100791E+02  0.49670408377E+02  0.51100000000E-03 0. -1.
<mgrwt>
<rscale>  0 0.91772516E+02</rscale>
<asrwt>0</asrwt>
<pdfrwt beam="2">  1        3 0.77794844E-02 0.91772516E+02</pdfrwt>
<pdfrwt beam="1">  1       -3 0.64060121E-02 0.91772516E+02</pdfrwt>
<totfact> 0.34638419E+04</totfact>
</mgrwt>
</event>
<event>
 5    1  0.7431090E-001  0.9247199E+02  0.7818608E-02  0.1296973E+00
          3   -1    0    0  501    0  0.00000000000E+00  0.00000000000E+00  0.31012163136E+02  0.31012302581E+02  0.93000000000E-01 0. -1.
         -3   -1    0    0    0  501 -0.00000000000E+00 -0.00000000000E+00 -0.68932865337E+02  0.68932928072E+02  0.93000000000E-01 0.  1.
         23    2    1    2    0    0  0.00000000000E+00  0.00000000000E+00 -0.37920702201E+02  0.99945230652E+02  0.92471992921E+02 0.  0.
        -11    1    3    3    0    0 -0.12428542857E+02 -0.39416682785E+02  0.34421252627E+01  0.41472783677E+02  0.51100000000E-03 0.  1.
         11    1    3    3    0    0  0.12428542857E+02  0.39416682785E+02 -0.41362827464E+02  0.58472446976E+02  0.51100000000E-03 0. -1.
<mgrwt>
<rscale>  0 0.92471993E+02</rscale>
<asrwt>0</asrwt>
<pdfrwt beam="1">  1        3 0.47711176E-02 0.92471993E+02</pdfrwt>
<pdfrwt beam="2">  1       -3 0.10605072E-01 0.92471993E+02</pdfrwt>
<totfact> 0.33367057E+04</totfact>
</mgrwt>
</event>
<event>
 5    1  0.7431090E-001  0.9401594E+02  0.7818608E-02  0.1293408E+00
          3   -1    0    0  501    0  0.00000000000E+00  0.00000000000E+00  0.47503029940E+02  0.47503120976E+02  0.93000000000E-01 0. -1.
         -3   -1    0    0    0  501 -0.00000000000E+00 -0.00000000000E+00 -0.46517883170E+02  0.46517976134E+02  0.93000000000E-01 0.  1.
         23    2    1    2    0    0  0.00000000000E+00  0.00000000000E+00  0.98514676942E+00  0.94021097110E+02  0.94015935818E+02 0.  0.
        -11    1    3    3    0    0  0.36498318568E+02  0.69605855207E+01 -0.28304354923E+02  0.46708816266E+02  0.51100000000E-03 0.  1.
         11    1    3    3    0    0 -0.36498318568E+02 -0.69605855207E+01  0.29289501693E+02  0.47312280845E+02  0.51100000000E-03 0. -1.
<mgrwt>
<rscale>  0 0.94015936E+02</rscale>
<asrwt>0</asrwt>
<pdfrwt beam="1">  1        3 0.73081726E-02 0.94015936E+02</pdfrwt>
<pdfrwt beam="2">  1       -3 0.71566116E-02 0.94015936E+02</pdfrwt>
<totfact> 0.32297549E+04</totfact>
</mgrwt>
</event>
<event>
 5    1  0.7431090E-001  0.9158885E+02  0.7818608E-02  0.1299049E+00
          3   -1    0    0  501    0  0.00000000000E+00  0.00000000000E+00  0.73559142349E+02  0.73559201138E+02  0.93000000000E-01 0.  1.
         -3   -1    0    0    0  501 -0.00000000000E+00 -0.00000000000E+00 -0.28509283053E+02  0.28509434740E+02  0.93000000000E-01 0. -1.
         23    2    1    2    0    0  0.00000000000E+00  0.00000000000E+00  0.45049859295E+02  0.10206863588E+03  0.91588845432E+02 0.  0.
        -11    1    3    3    0    0  0.31112014317E+00  0.17673176296E+02 -0.24554508015E+02  0.30254947037E+02  0.51100000000E-03 0. -1.
         11    1    3    3    0    0 -0.31112014317E+00 -0.17673176296E+02  0.69604367310E+02  0.71813688841E+02  0.51100000000E-03 0.  1.
<mgrwt>
<rscale>  0 0.91588845E+02</rscale>
<asrwt>0</asrwt>
<pdfrwt beam="1">  1        3 0.11316807E-01 0.91588845E+02</pdfrwt>
<pdfrwt beam="2">  1       -3 0.43860597E-02 0.91588845E+02</pdfrwt>
<totfact> 0.34096692E+04</totfact>
</mgrwt>
</event>
<event>
 5    1  0.7431090E-001  0.9347190E+02  0.7818608E-02  0.1294655E+00
         -3   -1    0    0    0  501 -0.00000000000E+00  0.00000000000E+00  0.94293831141E+02  0.94293877003E+02  0.93000000000E-01 0.  1.
          3   -1    0    0  501    0  0.00000000000E+00 -0.00000000000E+00 -0.23164138283E+02  0.23164324972E+02  0.93000000000E-01 0. -1.
         23    2    1    2    0    0  0.00000000000E+00  0.00000000000E+00  0.71129692858E+02  0.11745820197E+03  0.93471899548E+02 0.  0.
        -11    1    3    3    0    0 -0.14666955464E+02  0.15414237452E+02  0.87854694282E+02  0.90394499869E+02  0.51100000000E-03 0.  1.
         11    1    3    3    0    0  0.14666955464E+02 -0.15414237452E+02 -0.16725001424E+02  0.27063702106E+02  0.51100000000E-03 0. -1.
<mgrwt>
<rscale>  0 0.93471900E+02</rscale>
<asrwt>0</asrwt>
<pdfrwt beam="2">  1        3 0.35637314E-02 0.93471900E+02</pdfrwt>
<pdfrwt beam="1">  1       -3 0.14506761E-01 0.93471900E+02</pdfrwt>
<totfact> 0.31233799E+04</totfact>
</mgrwt>
</event>
<event>
 5    1  0.7431090E-001  0.9084433E+02  0.7818608E-02  0.1300820E+00
          3   -1    0    0  501    0  0.00000000000E+00  0.00000000000E+00  0.13003617637E+03  0.13003620963E+03  0.93000000000E-01 0. -1.
         -3   -1    0    0    0  501 -0.00000000000E+00 -0.00000000000E+00 -0.15865976765E+02  0.15866249327E+02  0.93000000000E-01 0.  1.
         23    2    1    2    0    0  0.00000000000E+00  0.00000000000E+00  0.11417019961E+03  0.14590245896E+03  0.90844334171E+02 0.  0.
        -11    1    3    3    0    0 -0.35043216835E+02  0.23875031309E+02  0.83236410526E+02  0.93414903541E+02  0.51100000000E-03 0.  1.
         11    1    3    3    0    0  0.35043216835E+02 -0.23875031309E+02  0.30933789082E+02  0.52487555414E+02  0.51100000000E-03 0. -1.
<mgrwt>
<rscale>  0 0.90844334E+02</rscale>
<asrwt>0</asrwt>
<pdfrwt beam="1">  1        3 0.20005589E-01 0.90844334E+02</pdfrwt>
<pdfrwt beam="2">  1       -3 0.24409430E-02 0.90844334E+02</pdfrwt>
<totfact> 0.31873302E+04</totfact>
</mgrwt>
</event>
<event>
 5    1  0.7431090E-001  0.9100982E+02  0.7818608E-02  0.1300425E+00
          3   -1    0    0  501    0  0.00000000000E+00  0.00000000000E+00  0.34326565807E+02  0.34326691787E+02  0.93000000000E-01 0. -1.
         -3   -1    0    0    0  501 -0.00000000000E+00 -0.00000000000E+00 -0.60323174119E+02  0.60323245808E+02  0.93000000000E-01 0.  1.
         23    2    1    2    0    0  0.00000000000E+00  0.00000000000E+00 -0.25996608312E+02  0.94649937595E+02  0.91009818388E+02 0.  0.
        -11    1    3    3    0    0 -0.41972404159E+02 -0.92586687912E+01  0.25422962126E+01  0.43056578231E+02  0.51100000000E-03 0. -1.
         11    1    3    3    0    0  0.41972404159E+02  0.92586687912E+01 -0.28538904525E+02  0.51593359364E+02  0.51100000000E-03 0.  1.
<mgrwt>
<rscale>  0 0.91009818E+02</rscale>
<asrwt>0</asrwt>
<pdfrwt beam="1">  1        3 0.52810253E-02 0.91009818E+02</pdfrwt>
<pdfrwt beam="2">  1       -3 0.92805036E-02 0.91009818E+02</pdfrwt>
<totfact> 0.35249699E+04</totfact>
</mgrwt>
</event>
<event>
 5    1  0.7431090E-001  0.8762293E+02  0.7818608E-02  0.1308712E+00
          3   -1    0    0  501    0  0.00000000000E+00  0.00000000000E+00  0.24986058681E+02  0.24986231757E+02  0.93000000000E-01 0. -1.
         -3   -1    0    0    0  501 -0.00000000000E+00 -0.00000000000E+00 -0.76820144344E+02  0.76820200638E+02  0.93000000000E-01 0.  1.
         23    2    1    2    0    0  0.00000000000E+00  0.00000000000E+00 -0.51834085662E+02  0.10180643239E+03  0.87622926455E+02 0.  0.
        -11    1    3    3    0    0 -0.15405465721E+02 -0.19852204487E+02  0.15781069342E+02  0.29672892460E+02  0.51100000000E-03 0. -1.
         11    1    3    3    0    0  0.15405465721E+02  0.19852204487E+02 -0.67615155004E+02  0.72133539935E+02  0.51100000000E-03 0.  1.
<mgrwt>
<rscale>  0 0.87622926E+02</rscale>
<asrwt>0</asrwt>
<pdfrwt beam="1">  1        3 0.38440267E-02 0.87622926E+02</pdfrwt>
<pdfrwt beam="2">  1       -3 0.11818501E-01 0.87622926E+02</pdfrwt>
<totfact> 0.38469427E+04</totfact>
</mgrwt>
</event>
<event>
 5    1  0.7431090E-001  0.9057121E+02  0.7818608E-02  0.1301474E+00
         -3   -1    0    0    0  501 -0.00000000000E+00  0.00000000000E+00  0.37316930764E+02  0.37317046650E+02  0.93000000000E-01 0.  1.
          3   -1    0    0  501    0  0.00000000000E+00 -0.00000000000E+00 -0.54955670788E+02  0.54955749479E+02  0.93000000000E-01 0. -1.
         23    2    1    2    0    0  0.00000000000E+00  0.00000000000E+00 -0.17638740024E+02  0.92272796129E+02  0.90571208205E+02 0.  0.
        -11    1    3    3    0    0 -0.32551969108E+02  0.29723799206E+02  0.17510578703E+01  0.44115769697E+02  0.51100000000E-03 0.  1.
         11    1    3    3    0    0  0.32551969108E+02 -0.29723799206E+02 -0.19389797894E+02  0.48157026431E+02  0.51100000000E-03 0. -1.
<mgrwt>
<rscale>  0 0.90571208E+02</rscale>
<asrwt>0</asrwt>
<pdfrwt beam="2">  1        3 0.84547335E-02 0.90571208E+02</pdfrwt>
<pdfrwt beam="1">  1       -3 0.57410812E-02 0.90571208E+02</pdfrwt>
<totfact> 0.35899650E+04</totfact>
</mgrwt>
</event>
<event>
 5    1  0.7431090E-001  0.8825266E+02  0.7818608E-02  0.1307139E+00
          3   -1    0    0  501    0  0.00000000000E+00  0.00000000000E+00  0.44230276288E+02  0.44230374060E+02  0.93000000000E-01 0. -1.
         -3   -1    0    0    0  501 -0.00000000000E+00 -0.00000000000E+00 -0.44022431943E+02  0.44022530177E+02  0.93000000000E-01 0.  1.
         23    2    1    2    0    0  0.00000000000E+00  0.00000000000E+00  0.20784434534E+00  0.88252904237E+02  0.88252659490E+02 0.  0.
        -11    1    3    3    0    0  0.21059170740E+02 -0.17124189600E+02  0.34894914518E+02  0.44208388357E+02  0.51100000000E-03 0. -1.
         11    1    3    3    0    0 -0.21059170740E+02  0.17124189600E+02 -0.34687070172E+02  0.44044515880E+02  0.51100000000E-03 0.  1.
<mgrwt>
<rscale>  0 0.88252659E+02</rscale>
<asrwt>0</asrwt>
<pdfrwt beam="1">  1        3 0.68046730E-02 0.88252659E+02</pdfrwt>
<pdfrwt beam="2">  1       -3 0.67726969E-02 0.88252659E+02</pdfrwt>
<totfact> 0.38857974E+04</totfact>
</mgrwt>
</event>
<event>
 5    1  0.7431090E-001  0.8556151E+02  0.7818608E-02  0.1313971E+00
         -3   -1    0    0    0  501 -0.00000000000E+00  0.00000000000E+00  0.21688719776E+03  0.21688721770E+03  0.93000000000E-01 0.  1.
          3   -1    0    0  501    0  0.00000000000E+00 -0.00000000000E+00 -0.84381783155E+01  0.84386907921E+01  0.93000000000E-01 0. -1.
         23    2    1    2    0    0  0.00000000000E+00  0.00000000000E+00  0.20844901945E+03  0.22532590850E+03  0.85561506123E+02 0.  0.
        -11    1    3    3    0    0  0.32442915763E+01 -0.42523835280E+02  0.11311264260E+03  0.12088536682E+03  0.51100000000E-03 0. -1.
         11    1    3    3    0    0 -0.32442915763E+01  0.42523835280E+02  0.95336376846E+02  0.10444054167E+03  0.51100000000E-03 0.  1.
<mgrwt>
<rscale>  0 0.85561506E+02</rscale>
<asrwt>0</asrwt>
<pdfrwt beam="2">  1        3 0.12982225E-02 0.85561506E+02</pdfrwt>
<pdfrwt beam="1">  1       -3 0.33367296E-01 0.85561506E+02</pdfrwt>
<totfact> 0.32296939E+04</totfact>
</mgrwt>
</event>
<event>
 5    1  0.7431090E-001  0.7307477E+02  0.7818608E-02  0.1349939E+00
         -3   -1    0    0    0  501 -0.00000000000E+00  0.00000000000E+00  0.61936066247E+02  0.61936136069E+02  0.93000000000E-01 0.  1.
          3   -1    0    0  501    0  0.00000000000E+00 -0.00000000000E+00 -0.21553987088E+02  0.21554187723E+02  0.93000000000E-01 0. -1.
         23    2    1    2    0    0  0.00000000000E+00  0.00000000000E+00  0.40382079159E+02  0.83490323791E+02  0.73074768899E+02 0.  0.
        -11    1    3    3    0    0  0.19446405470E+02 -0.16761834455E+02 -0.95117092874E+01  0.27378721552E+02  0.51100000000E-03 0. -1.
         11    1    3    3    0    0 -0.19446405470E+02  0.16761834455E+02  0.49893788446E+02  0.56111602239E+02  0.51100000000E-03 0.  1.
<mgrwt>
<rscale>  0 0.73074769E+02</rscale>
<asrwt>0</asrwt>
<pdfrwt beam="2">  1        3 0.33160188E-02 0.73074769E+02</pdfrwt>
<pdfrwt beam="1">  1       -3 0.95286465E-02 0.73074769E+02</pdfrwt>
<totfact> 0.65159555E+04</totfact>
</mgrwt>
</event>
<event>
 5    1  0.7431090E-001  0.8930847E+02  0.7818608E-02  0.1304535E+00
          3   -1    0    0  501    0  0.00000000000E+00  0.00000000000E+00  0.34107469664E+03  0.34107470932E+03  0.93000000000E-01 0. -1.
         -3   -1    0    0    0  501 -0.00000000000E+00 -0.00000000000E+00 -0.58458460703E+01  0.58465857795E+01  0.93000000000E-01 0.  1.
         23    2    1    2    0    0  0.00000000000E+00  0.00000000000E+00  0.33522885057E+03  0.34692129510E+03  0.89308469579E+02 0.  0.
        -11    1    3    3    0    0 -0.16745648023E+02  0.37051979726E+02  0.23931894460E+03  0.24274847718E+03  0.51100000000E-03 0. -1.
         11    1    3    3    0    0  0.16745648023E+02 -0.37051979726E+02  0.95909905971E+02  0.10417281792E+03  0.51100000000E-03 0.  1.
<mgrwt>
<rscale>  0 0.89308470E+02</rscale>
<asrwt>0</asrwt>
<pdfrwt beam="1">  1        3 0.52473104E-01 0.89308470E+02</pdfrwt>
<pdfrwt beam="2">  1       -3 0.89941853E-03 0.89308470E+02</pdfrwt>
<totfact> 0.23592518E+04</totfact>
</mgrwt>
</event>
<event>
 5    1  0.7431090E-001  0.7911994E+02  0.7818608E-02  0.1331568E+00
          3   -1    0    0  501    0  0.00000000000E+00  0.00000000000E+00  0.73657599071E+01  0.73663469922E+01  0.93000000000E-01 0. -1.
         -3   -1    0    0    0  501 -0.00000000000E+00 -0.00000000000E+00 -0.21245935518E+03  0.21245937553E+03  0.93000000000E-01 0.  1.
         23    2    1    2    0    0  0.00000000000E+00  0.00000000000E+00 -0.20509359527E+03  0.21982572253E+03  0.79119943519E+02 0.  0.
        -11    1    3    3    0    0  0.14419134545E+02  0.36099423243E+02 -0.12294695482E+03  0.12894585491E+03  0.51100000000E-03 0. -1.
         11    1    3    3    0    0 -0.14419134545E+02 -0.36099423243E+02 -0.82146640455E+02  0.90879867616E+02  0.51100000000E-03 0.  1.
<mgrwt>
<rscale>  0 0.79119944E+02</rscale>
<asrwt>0</asrwt>
<pdfrwt beam="1">  1        3 0.11332407E-02 0.79119944E+02</pdfrwt>
<pdfrwt beam="2">  1       -3 0.32686097E-01 0.79119944E+02</pdfrwt>
<totfact> 0.40163751E+04</totfact>
</mgrwt>
</event>
<event>
 5    1  0.7431090E-001  0.7846654E+02  0.7818608E-02  0.1333460E+00
          3   -1    0    0  501    0  0.00000000000E+00  0.00000000000E+00  0.92125551401E+02  0.92125598342E+02  0.93000000000E-01 0.  1.
         -3   -1    0    0    0  501 -0.00000000000E+00 -0.00000000000E+00 -0.16707992519E+02  0.16708251345E+02  0.93000000000E-01 0. -1.
         23    2    1    2    0    0  0.00000000000E+00  0.00000000000E+00  0.75417558882E+02  0.10883384969E+03  0.78466544782E+02 0.  0.
        -11    1    3    3    0    0  0.59642978673E+00 -0.33487905106E+02  0.66047735720E+02  0.74054702152E+02  0.51100000000E-03 0.  1.
         11    1    3    3    0    0 -0.59642978673E+00  0.33487905106E+02  0.93698231618E+01  0.34779147534E+02  0.51100000000E-03 0. -1.
<mgrwt>
<rscale>  0 0.78466545E+02</rscale>
<asrwt>0</asrwt>
<pdfrwt beam="1">  1        3 0.14173185E-01 0.78466545E+02</pdfrwt>
<pdfrwt beam="2">  1       -3 0.25704839E-02 0.78466545E+02</pdfrwt>
<totfact> 0.50973529E+04</totfact>
</mgrwt>
</event>
<event>
 4    1  0.7431090E-001  0.4912203E+02  0.7818608E-02  0.1450135E+00
         -3   -1    0    0    0  501 -0.00000000000E+00  0.00000000000E+00  0.80033309870E+02  0.80033363904E+02  0.93000000000E-01 0. -1.
          3   -1    0    0  501    0  0.00000000000E+00 -0.00000000000E+00 -0.75370599848E+01  0.75376337278E+01  0.93000000000E-01 0.  1.
        -11    1    1    2    0    0  0.19316423829E+02  0.14512893988E+02  0.28376835041E+02  0.37269197586E+02  0.51100000000E-03 0.  1.
         11    1    1    2    0    0 -0.19316423829E+02 -0.14512893988E+02  0.44119414844E+02  0.50301800046E+02  0.51100000000E-03 0. -1.
<mgrwt>
<rscale>  0 0.49122025E+02</rscale>
<asrwt>0</asrwt>
<pdfrwt beam="2">  1        3 0.11595960E-02 0.49122025E+02</pdfrwt>
<pdfrwt beam="1">  1       -3 0.12312865E-01 0.49122025E+02</pdfrwt>
<totfact> 0.17972712E+05</totfact>
</mgrwt>
</event>
<event>
 5    1  0.7431090E-001  0.9194731E+02  0.7818608E-02  0.1298203E+00
         -3   -1    0    0    0  501 -0.00000000000E+00  0.00000000000E+00  0.37873945676E+02  0.37874059858E+02  0.93000000000E-01 0.  1.
          3   -1    0    0  501    0  0.00000000000E+00 -0.00000000000E+00 -0.55805331530E+02  0.55805409023E+02  0.93000000000E-01 0. -1.
         23    2    1    2    0    0  0.00000000000E+00  0.00000000000E+00 -0.17931385854E+02  0.93679468880E+02  0.91947312582E+02 0.  0.
        -11    1    3    3    0    0 -0.29312359494E+01  0.34190910692E+02  0.22204216804E+02  0.40873435900E+02  0.51100000000E-03 0.  1.
         11    1    3    3    0    0  0.29312359494E+01 -0.34190910692E+02 -0.40135602658E+02  0.52806032980E+02  0.51100000000E-03 0. -1.
<mgrwt>
<rscale>  0 0.91947313E+02</rscale>
<asrwt>0</asrwt>
<pdfrwt beam="2">  1        3 0.85854504E-02 0.91947313E+02</pdfrwt>
<pdfrwt beam="1">  1       -3 0.58267756E-02 0.91947313E+02</pdfrwt>
<totfact> 0.34349172E+04</totfact>
</mgrwt>
</event>
<event>
 5    1  0.7431090E-001  0.8935046E+02  0.7818608E-02  0.1304432E+00
         -3   -1    0    0    0  501 -0.00000000000E+00  0.00000000000E+00  0.25512860137E+03  0.25512861832E+03  0.93000000000E-01 0.  1.
          3   -1    0    0  501    0  0.00000000000E+00 -0.00000000000E+00 -0.78227257030E+01  0.78232784959E+01  0.93000000000E-01 0. -1.
         23    2    1    2    0    0  0.00000000000E+00  0.00000000000E+00  0.24730587567E+03  0.26295189682E+03  0.89350455510E+02 0.  0.
        -11    1    3    3    0    0 -0.31116925411E+02 -0.31535403746E+02  0.14059235137E+03  0.14740744215E+03  0.51100000000E-03 0.  1.
         11    1    3    3    0    0  0.31116925411E+02  0.31535403746E+02  0.10671352429E+03  0.11554445467E+03  0.51100000000E-03 0. -1.
<mgrwt>
<rscale>  0 0.89350456E+02</rscale>
<asrwt>0</asrwt>
<pdfrwt beam="2">  1        3 0.12035403E-02 0.89350456E+02</pdfrwt>
<pdfrwt beam="1">  1       -3 0.39250592E-01 0.89350456E+02</pdfrwt>
<totfact> 0.26957859E+04</totfact>
</mgrwt>
</event>
<event>
 5    1  0.7431090E-001  0.9491342E+02  0.7818608E-02  0.1291371E+00
         -3   -1    0    0    0  501 -0.00000000000E+00  0.00000000000E+00  0.21759163682E+03  0.21759165669E+03  0.93000000000E-01 0.  1.
          3   -1    0    0  501    0  0.00000000000E+00 -0.00000000000E+00 -0.10350073073E+02  0.10350490888E+02  0.93000000000E-01 0. -1.
         23    2    1    2    0    0  0.00000000000E+00  0.00000000000E+00  0.20724156375E+03  0.22794214758E+03  0.94913417915E+02 0.  0.
        -11    1    3    3    0    0  0.35955739768E+02 -0.30496862866E+02  0.90628843779E+02  0.10215899956E+03  0.51100000000E-03 0.  1.
         11    1    3    3    0    0 -0.35955739768E+02  0.30496862866E+02  0.11661271997E+03  0.12578314802E+03  0.51100000000E-03 0. -1.
<mgrwt>
<rscale>  0 0.94913418E+02</rscale>
<asrwt>0</asrwt>
<pdfrwt beam="2">  1        3 0.15923527E-02 0.94913418E+02</pdfrwt>
<pdfrwt beam="1">  1       -3 0.33475669E-01 0.94913418E+02</pdfrwt>
<totfact> 0.24323096E+04</totfact>
</mgrwt>
</event>
<event>
 5    1  0.7431090E-001  0.9087006E+02  0.7818608E-02  0.1300758E+00
          3   -1    0    0  501    0  0.00000000000E+00  0.00000000000E+00  0.65392937631E+02  0.65393003762E+02  0.93000000000E-01 0. -1.
         -3   -1    0    0    0  501 -0.00000000000E+00 -0.00000000000E+00 -0.31568123124E+02  0.31568260113E+02  0.93000000000E-01 0.  1.
         23    2    1    2    0    0  0.00000000000E+00  0.00000000000E+00  0.33824814507E+02  0.96961263874E+02  0.90870064464E+02 0.  0.
        -11    1    3    3    0    0  0.41370857796E+02 -0.10165897118E+02  0.59759090879E-01  0.42601606899E+02  0.51100000000E-03 0. -1.
         11    1    3    3    0    0 -0.41370857796E+02  0.10165897118E+02  0.33765055416E+02  0.54359656975E+02  0.51100000000E-03 0.  1.
<mgrwt>
<rscale>  0 0.90870064E+02</rscale>
<asrwt>0</asrwt>
<pdfrwt beam="1">  1        3 0.10060468E-01 0.90870064E+02</pdfrwt>
<pdfrwt beam="2">  1       -3 0.48566500E-02 0.90870064E+02</pdfrwt>
<totfact> 0.35219504E+04</totfact>
</mgrwt>
</event>
<event>
 5    1  0.7431090E-001  0.8866102E+02  0.7818608E-02  0.1306127E+00
         -3   -1    0    0    0  501 -0.00000000000E+00  0.00000000000E+00  0.17726530677E+02  0.17726774632E+02  0.93000000000E-01 0.  1.
          3   -1    0    0  501    0  0.00000000000E+00 -0.00000000000E+00 -0.11086072992E+03  0.11086076892E+03  0.93000000000E-01 0. -1.
         23    2    1    2    0    0  0.00000000000E+00  0.00000000000E+00 -0.93134199239E+02  0.12858754356E+03  0.88661024639E+02 0.  0.
        -11    1    3    3    0    0 -0.32870352683E+02 -0.19562358859E+02 -0.14070424617E+02  0.40756874497E+02  0.51100000000E-03 0.  1.
         11    1    3    3    0    0  0.32870352683E+02  0.19562358859E+02 -0.79063774622E+02  0.87830669059E+02  0.51100000000E-03 0. -1.
<mgrwt>
<rscale>  0 0.88661025E+02</rscale>
<asrwt>0</asrwt>
<pdfrwt beam="2">  1        3 0.17055518E-01 0.88661025E+02</pdfrwt>
<pdfrwt beam="1">  1       -3 0.27271804E-02 0.88661025E+02</pdfrwt>
<totfact> 0.35237306E+04</totfact>
</mgrwt>
</event>
<event>
 5    1  0.7431090E-001  0.9135397E+02  0.7818608E-02  0.1299606E+00
          3   -1    0    0  501    0  0.00000000000E+00  0.00000000000E+00  0.50213667938E+01  0.50222279397E+01  0.93000000000E-01 0. -1.
         -3   -1    0    0    0  501 -0.00000000000E+00 -0.00000000000E+00 -0.41546534223E+03  0.41546535264E+03  0.93000000000E-01 0.  1.
         23    2    1    2    0    0  0.00000000000E+00  0.00000000000E+00 -0.41044397544E+03  0.42048758058E+03  0.91353973361E+02 0.  0.
        -11    1    3    3    0    0  0.45501250179E+02  0.17875212735E+01 -0.18873629881E+03  0.19415187223E+03  0.51100000000E-03 0. -1.
         11    1    3    3    0    0 -0.45501250179E+02 -0.17875212735E+01 -0.22170767663E+03  0.22633570835E+03  0.51100000000E-03 0.  1.
<mgrwt>
<rscale>  0 0.91353973E+02</rscale>
<asrwt>0</asrwt>
<pdfrwt beam="1">  1        3 0.77258534E-03 0.91353973E+02</pdfrwt>
<pdfrwt beam="2">  1       -3 0.63917785E-01 0.91353973E+02</pdfrwt>
<totfact> 0.19891224E+04</totfact>
</mgrwt>
</event>
<event>
 5    1  0.7431090E-001  0.9129052E+02  0.7818608E-02  0.1299756E+00
          3   -1    0    0  501    0  0.00000000000E+00  0.00000000000E+00  0.13717136672E+02  0.13717451931E+02  0.93000000000E-01 0. -1.
         -3   -1    0    0    0  501 -0.00000000000E+00 -0.00000000000E+00 -0.15188746969E+03  0.15188749816E+03  0.93000000000E-01 0.  1.
         23    2    1    2    0    0  0.00000000000E+00  0.00000000000E+00 -0.13817033302E+03  0.16560495009E+03  0.91290517409E+02 0.  0.
        -11    1    3    3    0    0 -0.37505842079E+02 -0.26010189783E+02 -0.70030349795E+02  0.83591076409E+02  0.51100000000E-03 0.  1.
         11    1    3    3    0    0  0.37505842079E+02  0.26010189783E+02 -0.68139983221E+02  0.82013873681E+02  0.51100000000E-03 0. -1.
<mgrwt>
<rscale>  0 0.91290517E+02</rscale>
<asrwt>0</asrwt>
<pdfrwt beam="1">  1        3 0.21103553E-02 0.91290517E+02</pdfrwt>
<pdfrwt beam="2">  1       -3 0.23367328E-01 0.91290517E+02</pdfrwt>
<totfact> 0.30276932E+04</totfact>
</mgrwt>
</event>
<event>
 5    1  0.7431090E-001  0.9080587E+02  0.7818608E-02  0.1300912E+00
         -3   -1    0    0    0  501 -0.00000000000E+00  0.00000000000E+00  0.40854098149E+02  0.40854204001E+02  0.93000000000E-01 0.  1.
          3   -1    0    0  501    0  0.00000000000E+00 -0.00000000000E+00 -0.50458038575E+02  0.50458124280E+02  0.93000000000E-01 0. -1.
         23    2    1    2    0    0  0.00000000000E+00  0.00000000000E+00 -0.96039404258E+01  0.91312328281E+02  0.90805867786E+02 0.  0.
        -11    1    3    3    0    0 -0.86256367660E+01 -0.90654401731E+01  0.39085954972E+02  0.41040171680E+02  0.51100000000E-03 0.  1.
         11    1    3    3    0    0  0.86256367660E+01  0.90654401731E+01 -0.48689895398E+02  0.50272156601E+02  0.51100000000E-03 0. -1.
<mgrwt>
<rscale>  0 0.90805868E+02</rscale>
<asrwt>0</asrwt>
<pdfrwt beam="2">  1        3 0.77627900E-02 0.90805868E+02</pdfrwt>
<pdfrwt beam="1">  1       -3 0.62852606E-02 0.90805868E+02</pdfrwt>
<totfact> 0.35722780E+04</totfact>
</mgrwt>
</event>
<event>
 5    1  0.7431090E-001  0.9064052E+02  0.7818608E-02  0.1301308E+00
         -3   -1    0    0    0  501 -0.00000000000E+00  0.00000000000E+00  0.21709515112E+02  0.21709714309E+02  0.93000000000E-01 0.  1.
          3   -1    0    0  501    0  0.00000000000E+00 -0.00000000000E+00 -0.94608818413E+02  0.94608864123E+02  0.93000000000E-01 0. -1.
         23    2    1    2    0    0  0.00000000000E+00  0.00000000000E+00 -0.72899303302E+02  0.11631857843E+03  0.90640516693E+02 0.  0.
        -11    1    3    3    0    0 -0.21268752173E+02 -0.39677809753E+02 -0.29752199467E+02  0.53961854854E+02  0.51100000000E-03 0.  1.
         11    1    3    3    0    0  0.21268752173E+02  0.39677809753E+02 -0.43147103834E+02  0.62356723578E+02  0.51100000000E-03 0. -1.
<mgrwt>
<rscale>  0 0.90640517E+02</rscale>
<asrwt>0</asrwt>
<pdfrwt beam="2">  1        3 0.14555221E-01 0.90640517E+02</pdfrwt>
<pdfrwt beam="1">  1       -3 0.33399443E-02 0.90640517E+02</pdfrwt>
<totfact> 0.34040586E+04</totfact>
</mgrwt>
</event>
<event>
 5    1  0.7431090E-001  0.1122808E+03  0.7818608E-02  0.1256404E+00
         -3   -1    0    0    0  501 -0.00000000000E+00  0.00000000000E+00  0.28607049689E+02  0.28607200858E+02  0.93000000000E-01 0.  1.
          3   -1    0    0  501    0  0.00000000000E+00 -0.00000000000E+00 -0.11017329426E+03  0.11017333352E+03  0.93000000000E-01 0. -1.
         23    2    1    2    0    0  0.00000000000E+00  0.00000000000E+00 -0.81566244575E+02  0.13878053437E+03  0.11228082858E+03 0.  0.
        -11    1    3    3    0    0  0.47160907460E+02  0.24051010029E+02 -0.17687740870E+02  0.55816292005E+02  0.51100000000E-03 0.  1.
         11    1    3    3    0    0 -0.47160907460E+02 -0.24051010029E+02 -0.63878503705E+02  0.82964242368E+02  0.51100000000E-03 0. -1.
<mgrwt>
<rscale>  0 0.11228083E+03</rscale>
<asrwt>0</asrwt>
<pdfrwt beam="2">  1        3 0.16949752E-01 0.11228083E+03</pdfrwt>
<pdfrwt beam="1">  1       -3 0.44010993E-02 0.11228083E+03</pdfrwt>
<totfact> 0.18067218E+04</totfact>
</mgrwt>
</event>
<event>
 5    1  0.7431090E-001  0.9255781E+02  0.7818608E-02  0.1296773E+00
         -3   -1    0    0    0  501 -0.00000000000E+00  0.00000000000E+00  0.61664304710E+02  0.61664374840E+02  0.93000000000E-01 0.  1.
          3   -1    0    0  501    0  0.00000000000E+00 -0.00000000000E+00 -0.34732046606E+02  0.34732171116E+02  0.93000000000E-01 0. -1.
         23    2    1    2    0    0  0.00000000000E+00  0.00000000000E+00  0.26932258105E+02  0.96396545956E+02  0.92557806508E+02 0.  0.
        -11    1    3    3    0    0  0.14852784755E+02  0.11975382316E+02  0.57377836949E+02  0.60466777406E+02  0.51100000000E-03 0.  1.
         11    1    3    3    0    0 -0.14852784755E+02 -0.11975382316E+02 -0.30445578845E+02  0.35929768550E+02  0.51100000000E-03 0. -1.
<mgrwt>
<rscale>  0 0.92557807E+02</rscale>
<asrwt>0</asrwt>
<pdfrwt beam="2">  1        3 0.53434068E-02 0.92557807E+02</pdfrwt>
<pdfrwt beam="1">  1       -3 0.94868310E-02 0.92557807E+02</pdfrwt>
<totfact> 0.33536926E+04</totfact>
</mgrwt>
</event>
<event>
 5    1  0.7431090E-001  0.8747491E+02  0.7818608E-02  0.1309084E+00
         -3   -1    0    0    0  501 -0.00000000000E+00  0.00000000000E+00  0.35328464790E+02  0.35328587198E+02  0.93000000000E-01 0.  1.
          3   -1    0    0  501    0  0.00000000000E+00 -0.00000000000E+00 -0.54147727169E+02  0.54147807034E+02  0.93000000000E-01 0. -1.
         23    2    1    2    0    0  0.00000000000E+00  0.00000000000E+00 -0.18819262379E+02  0.89476394232E+02  0.87474913479E+02 0.  0.
        -11    1    3    3    0    0  0.40818888909E+02 -0.12565871842E+02  0.23382212662E+00  0.42709922734E+02  0.51100000000E-03 0. -1.
         11    1    3    3    0    0 -0.40818888909E+02  0.12565871842E+02 -0.19053084506E+02  0.46766471498E+02  0.51100000000E-03 0.  1.
<mgrwt>
<rscale>  0 0.87474913E+02</rscale>
<asrwt>0</asrwt>
<pdfrwt beam="2">  1        3 0.83304351E-02 0.87474913E+02</pdfrwt>
<pdfrwt beam="1">  1       -3 0.54351640E-02 0.87474913E+02</pdfrwt>
<totfact> 0.39693697E+04</totfact>
</mgrwt>
</event>
<event>
 5    1  0.7431090E-001  0.9268347E+02  0.7818608E-02  0.1296480E+00
         -3   -1    0    0    0  501 -0.00000000000E+00  0.00000000000E+00  0.36854644140E+02  0.36854761480E+02  0.93000000000E-01 0.  1.
          3   -1    0    0  501    0  0.00000000000E+00 -0.00000000000E+00 -0.58270732020E+02  0.58270806234E+02  0.93000000000E-01 0. -1.
         23    2    1    2    0    0  0.00000000000E+00  0.00000000000E+00 -0.21416087879E+02  0.95125567713E+02  0.92683465692E+02 0.  0.
        -11    1    3    3    0    0  0.23133210552E+02 -0.51864009409E+01 -0.51575703402E+02  0.56763521445E+02  0.51100000000E-03 0. -1.
         11    1    3    3    0    0 -0.23133210552E+02  0.51864009409E+01  0.30159615522E+02  0.38362046268E+02  0.51100000000E-03 0.  1.
<mgrwt>
<rscale>  0 0.92683466E+02</rscale>
<asrwt>0</asrwt>
<pdfrwt beam="2">  1        3 0.89647427E-02 0.92683466E+02</pdfrwt>
<pdfrwt beam="1">  1       -3 0.56699600E-02 0.92683466E+02</pdfrwt>
<totfact> 0.33504171E+04</totfact>
</mgrwt>
</event>
<event>
 5    1  0.7431090E-001  0.8956489E+02  0.7818608E-02  0.1303909E+00
          3   -1    0    0  501    0  0.00000000000E+00  0.00000000000E+00  0.10280999612E+03  0.10281003819E+03  0.93000000000E-01 0. -1.
         -3   -1    0    0    0  501 -0.00000000000E+00 -0.00000000000E+00 -0.19506385426E+02  0.19506607121E+02  0.93000000000E-01 0.  1.
         23    2    1    2    0    0  0.00000000000E+00  0.00000000000E+00  0.83303610696E+02  0.12231664531E+03  0.89564893591E+02 0.  0.
        -11    1    3    3    0    0 -0.38000330017E+02 -0.10648613059E+02  0.12744291301E+02  0.41470893437E+02  0.51100000000E-03 0.  1.
         11    1    3    3    0    0  0.38000330017E+02  0.10648613059E+02  0.70559319396E+02  0.80845751869E+02  0.51100000000E-03 0. -1.
<mgrwt>
<rscale>  0 0.89564894E+02</rscale>
<asrwt>0</asrwt>
<pdfrwt beam="1">  1        3 0.15816942E-01 0.89564894E+02</pdfrwt>
<pdfrwt beam="2">  1       -3 0.30010027E-02 0.89564894E+02</pdfrwt>
<totfact> 0.34726501E+04</totfact>
</mgrwt>
</event>
<event>
 5    1  0.7431090E-001  0.8982952E+02  0.7818608E-02  0.1303265E+00
         -3   -1    0    0    0  501 -0.00000000000E+00  0.00000000000E+00  0.11329846872E+03  0.11329850689E+03  0.93000000000E-01 0.  1.
          3   -1    0    0  501    0  0.00000000000E+00 -0.00000000000E+00 -0.17805336147E+02  0.17805579021E+02  0.93000000000E-01 0. -1.
         23    2    1    2    0    0  0.00000000000E+00  0.00000000000E+00  0.95493132576E+02  0.13110408591E+03  0.89829521728E+02 0.  0.
        -11    1    3    3    0    0  0.31928732313E+02 -0.31506098582E+02  0.51093050429E+02  0.67989543295E+02  0.51100000000E-03 0. -1.
         11    1    3    3    0    0 -0.31928732313E+02  0.31506098582E+02  0.44400082148E+02  0.63114542619E+02  0.51100000000E-03 0.  1.
<mgrwt>
<rscale>  0 0.89829522E+02</rscale>
<asrwt>0</asrwt>
<pdfrwt beam="2">  1        3 0.27393040E-02 0.89829522E+02</pdfrwt>
<pdfrwt beam="1">  1       -3 0.17430556E-01 0.89829522E+02</pdfrwt>
<totfact> 0.33841405E+04</totfact>
</mgrwt>
</event>
<event>
 5    1  0.7431090E-001  0.9301599E+02  0.7818608E-02  0.1295708E+00
         -3   -1    0    0    0  501 -0.00000000000E+00  0.00000000000E+00  0.12219027333E+02  0.12219381243E+02  0.93000000000E-01 0.  1.
          3   -1    0    0  501    0  0.00000000000E+00 -0.00000000000E+00 -0.17701553153E+03  0.17701555596E+03  0.93000000000E-01 0. -1.
         23    2    1    2    0    0  0.00000000000E+00  0.00000000000E+00 -0.16479650419E+03  0.18923493720E+03  0.93015986059E+02 0.  0.
        -11    1    3    3    0    0 -0.44259570151E+02  0.14285630904E+02 -0.82536460807E+02  0.94737828574E+02  0.51100000000E-03 0. -1.
         11    1    3    3    0    0  0.44259570151E+02 -0.14285630904E+02 -0.82260043388E+02  0.94497108626E+02  0.51100000000E-03 0.  1.
<mgrwt>
<rscale>  0 0.93015986E+02</rscale>
<asrwt>0</asrwt>
<pdfrwt beam="2">  1        3 0.27233186E-01 0.93015986E+02</pdfrwt>
<pdfrwt beam="1">  1       -3 0.18798796E-02 0.93015986E+02</pdfrwt>
<totfact> 0.27535488E+04</totfact>
</mgrwt>
</event>
<event>
 5    1  0.7431090E-001  0.9217862E+02  0.7818608E-02  0.1297660E+00
          3   -1    0    0  501    0  0.00000000000E+00  0.00000000000E+00  0.15999487834E+03  0.15999490537E+03  0.93000000000E-01 0. -1.
         -3   -1    0    0    0  501 -0.00000000000E+00 -0.00000000000E+00 -0.13276637377E+02  0.13276963096E+02  0.93000000000E-01 0.  1.
         23    2    1    2    0    0  0.00000000000E+00  0.00000000000E+00  0.14671824096E+03  0.17327186847E+03  0.92178621003E+02 0.  0.
        -11    1    3    3    0    0 -0.14847641835E+02  0.43383518140E+02  0.64614301124E+02  0.79231243990E+02  0.51100000000E-03 0.  1.
         11    1    3    3    0    0  0.14847641835E+02 -0.43383518140E+02  0.82103939840E+02  0.94040624476E+02  0.51100000000E-03 0. -1.
<mgrwt>
<rscale>  0 0.92178621E+02</rscale>
<asrwt>0</asrwt>
<pdfrwt beam="1">  1        3 0.24614622E-01 0.92178621E+02</pdfrwt>
<pdfrwt beam="2">  1       -3 0.20425869E-02 0.92178621E+02</pdfrwt>
<totfact> 0.29067816E+04</totfact>
</mgrwt>
</event>
<event>
 5    1  0.7431090E-001  0.9496465E+02  0.7818608E-02  0.1291256E+00
          3   -1    0    0  501    0  0.00000000000E+00  0.00000000000E+00  0.51641509072E+01  0.51649882471E+01  0.93000000000E-01 0.  1.
         -3   -1    0    0    0  501 -0.00000000000E+00 -0.00000000000E+00 -0.43654498782E+03  0.43654499773E+03  0.93000000000E-01 0. -1.
         23    2    1    2    0    0  0.00000000000E+00  0.00000000000E+00 -0.43138083691E+03  0.44170998597E+03  0.94964652650E+02 0.  0.
        -11    1    3    3    0    0  0.10329440896E+02  0.46344349134E+02 -0.21696649783E+03  0.22210123193E+03  0.51100000000E-03 0.  1.
         11    1    3    3    0    0 -0.10329440896E+02 -0.46344349134E+02 -0.21441433909E+03  0.21960875404E+03  0.51100000000E-03 0. -1.
<mgrwt>
<rscale>  0 0.94964653E+02</rscale>
<asrwt>0</asrwt>
<pdfrwt beam="1">  1        3 0.79455027E-03 0.94964653E+02</pdfrwt>
<pdfrwt beam="2">  1       -3 0.67160803E-01 0.94964653E+02</pdfrwt>
<totfact> 0.17391724E+04</totfact>
</mgrwt>
</event>
<event>
 5    1  0.7431090E-001  0.9197998E+02  0.7818608E-02  0.1298127E+00
          3   -1    0    0  501    0  0.00000000000E+00  0.00000000000E+00  0.49873431274E+02  0.49873517983E+02  0.93000000000E-01 0. -1.
         -3   -1    0    0    0  501 -0.00000000000E+00 -0.00000000000E+00 -0.42408758695E+02  0.42408860667E+02  0.93000000000E-01 0.  1.
         23    2    1    2    0    0  0.00000000000E+00  0.00000000000E+00  0.74646725784E+01  0.92282378650E+02  0.91979976476E+02 0.  0.
        -11    1    3    3    0    0 -0.22618713186E+02 -0.19450010416E+00 -0.36442227126E+02  0.42891490235E+02  0.51100000000E-03 0.  1.
         11    1    3    3    0    0  0.22618713186E+02  0.19450010416E+00  0.43906899704E+02  0.49390888414E+02  0.51100000000E-03 0. -1.
<mgrwt>
<rscale>  0 0.91979976E+02</rscale>
<asrwt>0</asrwt>
<pdfrwt beam="1">  1        3 0.76728501E-02 0.91979976E+02</pdfrwt>
<pdfrwt beam="2">  1       -3 0.65244389E-02 0.91979976E+02</pdfrwt>
<totfact> 0.34419622E+04</totfact>
</mgrwt>
</event>
<event>
 5    1  0.7431090E-001  0.9255403E+02  0.7818608E-02  0.1296782E+00
         -3   -1    0    0    0  501 -0.00000000000E+00  0.00000000000E+00  0.20129459773E+02  0.20129674606E+02  0.93000000000E-01 0.  1.
          3   -1    0    0  501    0  0.00000000000E+00 -0.00000000000E+00 -0.10638864209E+03  0.10638868274E+03  0.93000000000E-01 0. -1.
         23    2    1    2    0    0  0.00000000000E+00  0.00000000000E+00 -0.86259182317E+02  0.12651835734E+03  0.92554028605E+02 0.  0.
        -11    1    3    3    0    0 -0.96464187277E+00  0.31298730594E+02  0.34481316171E+01  0.31502867848E+02  0.51100000000E-03 0.  1.
         11    1    3    3    0    0  0.96464187277E+00 -0.31298730594E+02 -0.89707313934E+02  0.95015489497E+02  0.51100000000E-03 0. -1.
<mgrwt>
<rscale>  0 0.92554029E+02</rscale>
<asrwt>0</asrwt>
<pdfrwt beam="2">  1        3 0.16367503E-01 0.92554029E+02</pdfrwt>
<pdfrwt beam="1">  1       -3 0.30968597E-02 0.92554029E+02</pdfrwt>
<totfact> 0.31495041E+04</totfact>
</mgrwt>
</event>
<event>
 5    1  0.7431090E-001  0.8916018E+02  0.7818608E-02  0.1304898E+00
          3   -1    0    0  501    0  0.00000000000E+00  0.00000000000E+00  0.17886812949E+03  0.17886815367E+03  0.93000000000E-01 0. -1.
         -3   -1    0    0    0  501 -0.00000000000E+00 -0.00000000000E+00 -0.11110673100E+02  0.11111062314E+02  0.93000000000E-01 0.  1.
         23    2    1    2    0    0  0.00000000000E+00  0.00000000000E+00  0.16775745639E+03  0.18997921598E+03  0.89160183549E+02 0.  0.
        -11    1    3    3    0    0  0.54317961775E+01 -0.32978050807E+02  0.21018392013E+02  0.39482009166E+02  0.51100000000E-03 0.  1.
         11    1    3    3    0    0 -0.54317961775E+01  0.32978050807E+02  0.14673906438E+03  0.15049720682E+03  0.51100000000E-03 0. -1.
<mgrwt>
<rscale>  0 0.89160184E+02</rscale>
<asrwt>0</asrwt>
<pdfrwt beam="1">  1        3 0.27518204E-01 0.89160184E+02</pdfrwt>
<pdfrwt beam="2">  1       -3 0.17093663E-02 0.89160184E+02</pdfrwt>
<totfact> 0.30826650E+04</totfact>
</mgrwt>
</event>
<event>
 5    1  0.7431090E-001  0.9175545E+02  0.7818608E-02  0.1298655E+00
         -3   -1    0    0    0  501 -0.00000000000E+00  0.00000000000E+00  0.13130339760E+02  0.13130669107E+02  0.93000000000E-01 0.  1.
          3   -1    0    0  501    0  0.00000000000E+00 -0.00000000000E+00 -0.16029553208E+03  0.16029555906E+03  0.93000000000E-01 0. -1.
         23    2    1    2    0    0  0.00000000000E+00  0.00000000000E+00 -0.14716519232E+03  0.17342622817E+03  0.91755450982E+02 0.  0.
        -11    1    3    3    0    0 -0.41243959661E+02  0.18633620528E+02 -0.59376739226E+02  0.74658376515E+02  0.51100000000E-03 0.  1.
         11    1    3    3    0    0  0.41243959661E+02 -0.18633620528E+02 -0.87788453095E+02  0.98767851650E+02  0.51100000000E-03 0. -1.
<mgrwt>
<rscale>  0 0.91755451E+02</rscale>
<asrwt>0</asrwt>
<pdfrwt beam="2">  1        3 0.24660877E-01 0.91755451E+02</pdfrwt>
<pdfrwt beam="1">  1       -3 0.20200798E-02 0.91755451E+02</pdfrwt>
<totfact> 0.29424015E+04</totfact>
</mgrwt>
</event>
<event>
 5    1  0.7431090E-001  0.9151974E+02  0.7818608E-02  0.1299213E+00
         -3   -1    0    0    0  501 -0.00000000000E+00  0.00000000000E+00  0.12312344344E+02  0.12312695572E+02  0.93000000000E-01 0.  1.
          3   -1    0    0  501    0  0.00000000000E+00 -0.00000000000E+00 -0.17006762428E+03  0.17006764971E+03  0.93000000000E-01 0. -1.
         23    2    1    2    0    0  0.00000000000E+00  0.00000000000E+00 -0.15775527994E+03  0.18238034528E+03  0.91519735560E+02 0.  0.
        -11    1    3    3    0    0  0.39360730949E+01  0.44535950938E+02 -0.98303271008E+02  0.10799294740E+03  0.51100000000E-03 0. -1.
         11    1    3    3    0    0 -0.39360730949E+01 -0.44535950938E+02 -0.59452008931E+02  0.74387397882E+02  0.51100000000E-03 0.  1.
<mgrwt>
<rscale>  0 0.91519736E+02</rscale>
<asrwt>0</asrwt>
<pdfrwt beam="2">  1        3 0.26164277E-01 0.91519736E+02</pdfrwt>
<pdfrwt beam="1">  1       -3 0.18942359E-02 0.91519736E+02</pdfrwt>
<totfact> 0.29137999E+04</totfact>
</mgrwt>
</event>
<event>
 5    1  0.7431090E-001  0.8621045E+02  0.7818608E-02  0.1312297E+00
          3   -1    0    0  501    0  0.00000000000E+00  0.00000000000E+00  0.23130711164E+03  0.23130713034E+03  0.93000000000E-01 0. -1.
         -3   -1    0    0    0  501 -0.00000000000E+00 -0.00000000000E+00 -0.80325832289E+01  0.80331215807E+01  0.93000000000E-01 0.  1.
         23    2    1    2    0    0  0.00000000000E+00  0.00000000000E+00  0.22327452841E+03  0.23934025192E+03  0.86210446875E+02 0.  0.
        -11    1    3    3    0    0  0.24457663929E+02  0.35199780091E+02  0.12431660869E+03  0.13149836896E+03  0.51100000000E-03 0. -1.
         11    1    3    3    0    0 -0.24457663929E+02 -0.35199780091E+02  0.98957919727E+02  0.10784188296E+03  0.51100000000E-03 0.  1.
<mgrwt>
<rscale>  0 0.86210447E+02</rscale>
<asrwt>0</asrwt>
<pdfrwt beam="1">  1        3 0.35585752E-01 0.86210447E+02</pdfrwt>
<pdfrwt beam="2">  1       -3 0.12358249E-02 0.86210447E+02</pdfrwt>
<totfact> 0.30889032E+04</totfact>
</mgrwt>
</event>
<event>
 5    1  0.7431090E-001  0.9083644E+02  0.7818608E-02  0.1300839E+00
         -3   -1    0    0    0  501 -0.00000000000E+00  0.00000000000E+00  0.10068126724E+02  0.10068556239E+02  0.93000000000E-01 0.  1.
          3   -1    0    0  501    0  0.00000000000E+00 -0.00000000000E+00 -0.20488082552E+03  0.20488084662E+03  0.93000000000E-01 0. -1.
         23    2    1    2    0    0  0.00000000000E+00  0.00000000000E+00 -0.19481269879E+03  0.21494940286E+03  0.90836436415E+02 0.  0.
        -11    1    3    3    0    0  0.38848785892E+02 -0.18188010840E+02 -0.62086663794E+02  0.75463804071E+02  0.51100000000E-03 0.  1.
         11    1    3    3    0    0 -0.38848785892E+02  0.18188010840E+02 -0.13272603500E+03  0.13948559879E+03  0.51100000000E-03 0. -1.
<mgrwt>
<rscale>  0 0.90836436E+02</rscale>
<asrwt>0</asrwt>
<pdfrwt beam="2">  1        3 0.31520158E-01 0.90836436E+02</pdfrwt>
<pdfrwt beam="1">  1       -3 0.15489774E-02 0.90836436E+02</pdfrwt>
<totfact> 0.28024727E+04</totfact>
</mgrwt>
</event>
<event>
 5    1  0.7431090E-001  0.9333245E+02  0.7818608E-02  0.1294977E+00
          3   -1    0    0  501    0  0.00000000000E+00  0.00000000000E+00  0.37818701705E+02  0.37818816053E+02  0.93000000000E-01 0. -1.
         -3   -1    0    0    0  501 -0.00000000000E+00 -0.00000000000E+00 -0.57583347827E+02  0.57583422927E+02  0.93000000000E-01 0.  1.
         23    2    1    2    0    0  0.00000000000E+00  0.00000000000E+00 -0.19764646122E+02  0.95402238980E+02  0.93332448623E+02 0.  0.
        -11    1    3    3    0    0 -0.21049186422E+02 -0.12695094309E+02 -0.50429411140E+02  0.56101329545E+02  0.51100000000E-03 0.  1.
         11    1    3    3    0    0  0.21049186422E+02  0.12695094309E+02  0.30664765018E+02  0.39300909435E+02  0.51100000000E-03 0. -1.
<mgrwt>
<rscale>  0 0.93332449E+02</rscale>
<asrwt>0</asrwt>
<pdfrwt beam="1">  1        3 0.58182763E-02 0.93332449E+02</pdfrwt>
<pdfrwt beam="2">  1       -3 0.88589912E-02 0.93332449E+02</pdfrwt>
<totfact> 0.32852341E+04</totfact>
</mgrwt>
</event>
<event>
 5    1  0.7431090E-001  0.9713904E+02  0.7818608E-02  0.1286430E+00
         -3   -1    0    0    0  501 -0.00000000000E+00  0.00000000000E+00  0.25703229576E+02  0.25703397823E+02  0.93000000000E-01 0.  1.
          3   -1    0    0  501    0  0.00000000000E+00 -0.00000000000E+00 -0.91777784695E+02  0.91777831814E+02  0.93000000000E-01 0. -1.
         23    2    1    2    0    0  0.00000000000E+00  0.00000000000E+00 -0.66074555119E+02  0.11748122964E+03  0.97139036864E+02 0.  0.
        -11    1    3    3    0    0  0.35472834849E+02 -0.15632878466E+02 -0.68427633325E+02  0.78645088239E+02  0.51100000000E-03 0. -1.
         11    1    3    3    0    0 -0.35472834849E+02  0.15632878466E+02  0.23530782069E+01  0.38836141397E+02  0.51100000000E-03 0.  1.
<mgrwt>
<rscale>  0 0.97139037E+02</rscale>
<asrwt>0</asrwt>
<pdfrwt beam="2">  1        3 0.14119676E-01 0.97139037E+02</pdfrwt>
<pdfrwt beam="1">  1       -3 0.39543596E-02 0.97139037E+02</pdfrwt>
<totfact> 0.28112309E+04</totfact>
</mgrwt>
</event>
<event>
 5    1  0.7431090E-001  0.9113517E+02  0.7818608E-02  0.1300126E+00
         -3   -1    0    0    0  501 -0.00000000000E+00  0.00000000000E+00  0.19232426456E+02  0.19232651309E+02  0.93000000000E-01 0.  1.
          3   -1    0    0  501    0  0.00000000000E+00 -0.00000000000E+00 -0.10796287626E+03  0.10796291632E+03  0.93000000000E-01 0. -1.
         23    2    1    2    0    0  0.00000000000E+00  0.00000000000E+00 -0.88730449805E+02  0.12719556763E+03  0.91135172689E+02 0.  0.
        -11    1    3    3    0    0  0.15528138196E+02  0.14968705142E+02  0.11657385435E+02  0.24516929761E+02  0.51100000000E-03 0.  1.
         11    1    3    3    0    0 -0.15528138196E+02 -0.14968705142E+02 -0.10038783524E+03  0.10267863786E+03  0.51100000000E-03 0. -1.
<mgrwt>
<rscale>  0 0.91135173E+02</rscale>
<asrwt>0</asrwt>
<pdfrwt beam="2">  1        3 0.16609693E-01 0.91135173E+02</pdfrwt>
<pdfrwt beam="1">  1       -3 0.29588553E-02 0.91135173E+02</pdfrwt>
<totfact> 0.32802007E+04</totfact>
</mgrwt>
</event>
<event>
 5    1  0.7431090E-001  0.1057183E+03  0.7818608E-02  0.1268711E+00
          3   -1    0    0  501    0  0.00000000000E+00  0.00000000000E+00  0.30162858661E+03  0.30162860095E+03  0.93000000000E-01 0. -1.
         -3   -1    0    0    0  501 -0.00000000000E+00 -0.00000000000E+00 -0.92630921304E+01  0.92635589714E+01  0.93000000000E-01 0.  1.
         23    2    1    2    0    0  0.00000000000E+00  0.00000000000E+00  0.29236549448E+03  0.31089215992E+03  0.10571827059E+03 0.  0.
        -11    1    3    3    0    0  0.37121281802E+01  0.45291306146E+02  0.66781882096E+02  0.80776866023E+02  0.51100000000E-03 0.  1.
         11    1    3    3    0    0 -0.37121281802E+01 -0.45291306146E+02  0.22558361238E+03  0.23011529389E+03  0.51100000000E-03 0. -1.
<mgrwt>
<rscale>  0 0.10571827E+03</rscale>
<asrwt>0</asrwt>
<pdfrwt beam="1">  1        3 0.46404432E-01 0.10571827E+03</pdfrwt>
<pdfrwt beam="2">  1       -3 0.14251282E-02 0.10571827E+03</pdfrwt>
<totfact> 0.15820082E+04</totfact>
</mgrwt>
</event>
<event>
 5    1  0.7431090E-001  0.9124066E+02  0.7818608E-02  0.1299875E+00
         -3   -1    0    0    0  501 -0.00000000000E+00  0.00000000000E+00  0.11149702214E+03  0.11149706092E+03  0.93000000000E-01 0.  1.
          3   -1    0    0  501    0  0.00000000000E+00 -0.00000000000E+00 -0.18665943529E+02  0.18666175207E+02  0.93000000000E-01 0. -1.
         23    2    1    2    0    0  0.00000000000E+00  0.00000000000E+00  0.92831078610E+02  0.13016323613E+03  0.91240664642E+02 0.  0.
        -11    1    3    3    0    0  0.56437583482E+01  0.40790351260E+02  0.74425835214E+02  0.85058272448E+02  0.51100000000E-03 0.  1.
         11    1    3    3    0    0 -0.56437583482E+01 -0.40790351260E+02  0.18405243395E+02  0.45104963684E+02  0.51100000000E-03 0. -1.
<mgrwt>
<rscale>  0 0.91240665E+02</rscale>
<asrwt>0</asrwt>
<pdfrwt beam="2">  1        3 0.28717044E-02 0.91240665E+02</pdfrwt>
<pdfrwt beam="1">  1       -3 0.17153409E-01 0.91240665E+02</pdfrwt>
<totfact> 0.32504864E+04</totfact>
</mgrwt>
</event>
<event>
 5    1  0.7431090E-001  0.9559966E+02  0.7818608E-02  0.1289831E+00
         -3   -1    0    0    0  501 -0.00000000000E+00  0.00000000000E+00  0.37182982674E+02  0.37183098977E+02  0.93000000000E-01 0.  1.
          3   -1    0    0  501    0  0.00000000000E+00 -0.00000000000E+00 -0.61447858123E+02  0.61447928500E+02  0.93000000000E-01 0. -1.
         23    2    1    2    0    0  0.00000000000E+00  0.00000000000E+00 -0.24264875449E+02  0.98631027477E+02  0.95599662136E+02 0.  0.
        -11    1    3    3    0    0  0.12143010790E+02  0.44751276421E+02 -0.15863865751E+00  0.46369759745E+02  0.51100000000E-03 0.  1.
         11    1    3    3    0    0 -0.12143010790E+02 -0.44751276421E+02 -0.24106236792E+02  0.52261267731E+02  0.51100000000E-03 0. -1.
<mgrwt>
<rscale>  0 0.95599662E+02</rscale>
<asrwt>0</asrwt>
<pdfrwt beam="2">  1        3 0.94535310E-02 0.95599662E+02</pdfrwt>
<pdfrwt beam="1">  1       -3 0.57204732E-02 0.95599662E+02</pdfrwt>
<totfact> 0.30550004E+04</totfact>
</mgrwt>
</event>
<event>
 5    1  0.7431090E-001  0.8924272E+02  0.7818608E-02  0.1304696E+00
          3   -1    0    0  501    0  0.00000000000E+00  0.00000000000E+00  0.57674064861E+01  0.57681562545E+01  0.93000000000E-01 0. -1.
         -3   -1    0    0    0  501 -0.00000000000E+00 -0.00000000000E+00 -0.34520403456E+03  0.34520404709E+03  0.93000000000E-01 0.  1.
         23    2    1    2    0    0  0.00000000000E+00  0.00000000000E+00 -0.33943662808E+03  0.35097220335E+03  0.89242719818E+02 0.  0.
        -11    1    3    3    0    0 -0.44003766208E+02  0.52770369040E+01 -0.14932570842E+03  0.15576374981E+03  0.51100000000E-03 0.  1.
         11    1    3    3    0    0  0.44003766208E+02 -0.52770369040E+01 -0.19011091965E+03  0.19520845353E+03  0.51100000000E-03 0. -1.
<mgrwt>
<rscale>  0 0.89242720E+02</rscale>
<asrwt>0</asrwt>
<pdfrwt beam="1">  1        3 0.88735221E-03 0.89242720E+02</pdfrwt>
<pdfrwt beam="2">  1       -3 0.53108356E-01 0.89242720E+02</pdfrwt>
<totfact> 0.23480489E+04</totfact>
</mgrwt>
</event>
<event>
 5    1  0.7431090E-001  0.9027503E+02  0.7818608E-02  0.1302187E+00
         -3   -1    0    0    0  501 -0.00000000000E+00  0.00000000000E+00  0.79856911665E+02  0.79856965818E+02  0.93000000000E-01 0.  1.
          3   -1    0    0  501    0  0.00000000000E+00 -0.00000000000E+00 -0.25512925956E+02  0.25513095457E+02  0.93000000000E-01 0. -1.
         23    2    1    2    0    0  0.00000000000E+00  0.00000000000E+00  0.54343985709E+02  0.10537006128E+03  0.90275029939E+02 0.  0.
        -11    1    3    3    0    0 -0.15228850879E+02 -0.30918290302E+02 -0.68485046039E+01  0.35139160346E+02  0.51100000000E-03 0. -1.
         11    1    3    3    0    0  0.15228850879E+02  0.30918290302E+02  0.61192490313E+02  0.70230900929E+02  0.51100000000E-03 0.  1.
<mgrwt>
<rscale>  0 0.90275030E+02</rscale>
<asrwt>0</asrwt>
<pdfrwt beam="2">  1        3 0.39250827E-02 0.90275030E+02</pdfrwt>
<pdfrwt beam="1">  1       -3 0.12285696E-01 0.90275030E+02</pdfrwt>
<totfact> 0.35216722E+04</totfact>
</mgrwt>
</event>
<event>
 5    1  0.7431090E-001  0.9138374E+02  0.7818608E-02  0.1299535E+00
         -3   -1    0    0    0  501 -0.00000000000E+00  0.00000000000E+00  0.13245301420E+02  0.13245627909E+02  0.93000000000E-01 0.  1.
          3   -1    0    0  501    0  0.00000000000E+00 -0.00000000000E+00 -0.15761941891E+03  0.15761944635E+03  0.93000000000E-01 0. -1.
         23    2    1    2    0    0  0.00000000000E+00  0.00000000000E+00 -0.14437411749E+03  0.17086507426E+03  0.91383739250E+02 0.  0.
        -11    1    3    3    0    0 -0.37038899734E+02  0.26649416543E+02 -0.76641412250E+02  0.89196286736E+02  0.51100000000E-03 0. -1.
         11    1    3    3    0    0  0.37038899734E+02 -0.26649416543E+02 -0.67732705244E+02  0.81668787523E+02  0.51100000000E-03 0.  1.
<mgrwt>
<rscale>  0 0.91383739E+02</rscale>
<asrwt>0</asrwt>
<pdfrwt beam="2">  1        3 0.24249167E-01 0.91383739E+02</pdfrwt>
<pdfrwt beam="1">  1       -3 0.20377660E-02 0.91383739E+02</pdfrwt>
<totfact> 0.29893249E+04</totfact>
</mgrwt>
</event>
<event>
 5    1  0.7431090E-001  0.8842647E+02  0.7818608E-02  0.1306708E+00
          3   -1    0    0  501    0  0.00000000000E+00  0.00000000000E+00  0.10859475418E+03  0.10859479400E+03  0.93000000000E-01 0. -1.
         -3   -1    0    0    0  501 -0.00000000000E+00 -0.00000000000E+00 -0.18000797947E+02  0.18001038184E+02  0.93000000000E-01 0.  1.
         23    2    1    2    0    0  0.00000000000E+00  0.00000000000E+00  0.90593956229E+02  0.12659583218E+03  0.88426465612E+02 0.  0.
        -11    1    3    3    0    0  0.36019875607E+02  0.15467731159E+02  0.16022331070E+02  0.42348521098E+02  0.51100000000E-03 0.  1.
         11    1    3    3    0    0 -0.36019875607E+02 -0.15467731159E+02  0.74571625158E+02  0.84247311085E+02  0.51100000000E-03 0. -1.
<mgrwt>
<rscale>  0 0.88426466E+02</rscale>
<asrwt>0</asrwt>
<pdfrwt beam="1">  1        3 0.16706907E-01 0.88426466E+02</pdfrwt>
<pdfrwt beam="2">  1       -3 0.27693751E-02 0.88426466E+02</pdfrwt>
<totfact> 0.35634475E+04</totfact>
</mgrwt>
</event>
<event>
 5    1  0.7431090E-001  0.9147550E+02  0.7818608E-02  0.1299317E+00
          3   -1    0    0  501    0  0.00000000000E+00  0.00000000000E+00  0.20453139705E+02  0.20453351138E+02  0.93000000000E-01 0. -1.
         -3   -1    0    0    0  501 -0.00000000000E+00 -0.00000000000E+00 -0.10227898798E+03  0.10227903026E+03  0.93000000000E-01 0.  1.
         23    2    1    2    0    0  0.00000000000E+00  0.00000000000E+00 -0.81825848270E+02  0.12273238140E+03  0.91475504906E+02 0.  0.
        -11    1    3    3    0    0 -0.16879395371E+02 -0.12998630650E+02  0.13389563732E+02  0.25162647000E+02  0.51100000000E-03 0. -1.
         11    1    3    3    0    0  0.16879395371E+02  0.12998630650E+02 -0.95215412003E+02  0.97569734395E+02  0.51100000000E-03 0.  1.
<mgrwt>
<rscale>  0 0.91475505E+02</rscale>
<asrwt>0</asrwt>
<pdfrwt beam="1">  1        3 0.31466565E-02 0.91475505E+02</pdfrwt>
<pdfrwt beam="2">  1       -3 0.15735248E-01 0.91475505E+02</pdfrwt>
<totfact> 0.32769332E+04</totfact>
</mgrwt>
</event>
<event>
 5    1  0.7431090E-001  0.9025118E+02  0.7818608E-02  0.1302245E+00
          3   -1    0    0  501    0  0.00000000000E+00  0.00000000000E+00  0.98122192609E+02  0.98122236682E+02  0.93000000000E-01 0. -1.
         -3   -1    0    0    0  501 -0.00000000000E+00 -0.00000000000E+00 -0.20752734266E+02  0.20752942647E+02  0.93000000000E-01 0.  1.
         23    2    1    2    0    0  0.00000000000E+00  0.00000000000E+00  0.77369458344E+02  0.11887517933E+03  0.90251178253E+02 0.  0.
        -11    1    3    3    0    0  0.97589040567E+01  0.24342308245E+02 -0.96845208884E+01  0.27956647227E+02  0.51100000000E-03 0.  1.
         11    1    3    3    0    0 -0.97589040567E+01 -0.24342308245E+02  0.87053979232E+02  0.90918532101E+02  0.51100000000E-03 0. -1.
<mgrwt>
<rscale>  0 0.90251178E+02</rscale>
<asrwt>0</asrwt>
<pdfrwt beam="1">  1        3 0.15095742E-01 0.90251178E+02</pdfrwt>
<pdfrwt beam="2">  1       -3 0.31927477E-02 0.90251178E+02</pdfrwt>
<totfact> 0.34258164E+04</totfact>
</mgrwt>
</event>
<event>
 5    1  0.7431090E-001  0.9338573E+02  0.7818608E-02  0.1294854E+00
          3   -1    0    0  501    0  0.00000000000E+00  0.00000000000E+00  0.15821465486E+02  0.15821738815E+02  0.93000000000E-01 0. -1.
         -3   -1    0    0    0  501 -0.00000000000E+00 -0.00000000000E+00 -0.13780015562E+03  0.13780018700E+03  0.93000000000E-01 0.  1.
         23    2    1    2    0    0  0.00000000000E+00  0.00000000000E+00 -0.12197869013E+03  0.15362192582E+03  0.93385733628E+02 0.  0.
        -11    1    3    3    0    0  0.40087723796E+02 -0.23861773195E+02 -0.57776701423E+02  0.74260063606E+02  0.51100000000E-03 0.  1.
         11    1    3    3    0    0 -0.40087723796E+02  0.23861773195E+02 -0.64201988710E+02  0.79361862211E+02  0.51100000000E-03 0. -1.
<mgrwt>
<rscale>  0 0.93385734E+02</rscale>
<asrwt>0</asrwt>
<pdfrwt beam="1">  1        3 0.24340951E-02 0.93385734E+02</pdfrwt>
<pdfrwt beam="2">  1       -3 0.21200047E-01 0.93385734E+02</pdfrwt>
<totfact> 0.29131581E+04</totfact>
</mgrwt>
</event>
<event>
 5    1  0.7431090E-001  0.1051807E+03  0.7818608E-02  0.1269764E+00
         -3   -1    0    0    0  501 -0.00000000000E+00  0.00000000000E+00  0.12942333350E+02  0.12942667482E+02  0.93000000000E-01 0.  1.
          3   -1    0    0  501    0  0.00000000000E+00 -0.00000000000E+00 -0.21369434708E+03  0.21369436732E+03  0.93000000000E-01 0. -1.
         23    2    1    2    0    0  0.00000000000E+00  0.00000000000E+00 -0.20075201373E+03  0.22663703480E+03  0.10518067563E+03 0.  0.
        -11    1    3    3    0    0  0.15308215884E+02  0.33113012685E+02 -0.18199859548E+03  0.18561870013E+03  0.51100000000E-03 0. -1.
         11    1    3    3    0    0 -0.15308215884E+02 -0.33113012685E+02 -0.18753418257E+02  0.41018334672E+02  0.51100000000E-03 0.  1.
<mgrwt>
<rscale>  0 0.10518068E+03</rscale>
<asrwt>0</asrwt>
<pdfrwt beam="2">  1        3 0.32876078E-01 0.10518068E+03</pdfrwt>
<pdfrwt beam="1">  1       -3 0.19911556E-02 0.10518068E+03</pdfrwt>
<totfact> 0.18430931E+04</totfact>
</mgrwt>
</event>
<event>
 5    1  0.7431090E-001  0.8893451E+02  0.7818608E-02  0.1305453E+00
         -3   -1    0    0    0  501 -0.00000000000E+00  0.00000000000E+00  0.22231751910E+03  0.22231753855E+03  0.93000000000E-01 0.  1.
          3   -1    0    0  501    0  0.00000000000E+00 -0.00000000000E+00 -0.88939387051E+01  0.88944249219E+01  0.93000000000E-01 0. -1.
         23    2    1    2    0    0  0.00000000000E+00  0.00000000000E+00  0.21342358040E+03  0.23121196348E+03  0.88934511776E+02 0.  0.
        -11    1    3    3    0    0  0.42326796672E+02  0.30611307126E+00  0.71285238335E+02  0.82904985534E+02  0.51100000000E-03 0. -1.
         11    1    3    3    0    0 -0.42326796672E+02 -0.30611307126E+00  0.14213834206E+03  0.14830697794E+03  0.51100000000E-03 0.  1.
<mgrwt>
<rscale>  0 0.88934512E+02</rscale>
<asrwt>0</asrwt>
<pdfrwt beam="2">  1        3 0.13683371E-02 0.88934512E+02</pdfrwt>
<pdfrwt beam="1">  1       -3 0.34202736E-01 0.88934512E+02</pdfrwt>
<totfact> 0.28822749E+04</totfact>
</mgrwt>
</event>
<event>
 5    1  0.7431090E-001  0.9239827E+02  0.7818608E-02  0.1297146E+00
          3   -1    0    0  501    0  0.00000000000E+00  0.00000000000E+00  0.17966793616E+02  0.17967034308E+02  0.93000000000E-01 0. -1.
         -3   -1    0    0    0  501 -0.00000000000E+00 -0.00000000000E+00 -0.11879364637E+03  0.11879368278E+03  0.93000000000E-01 0.  1.
         23    2    1    2    0    0  0.00000000000E+00  0.00000000000E+00 -0.10082685276E+03  0.13676071709E+03  0.92398265680E+02 0.  0.
        -11    1    3    3    0    0 -0.38311924380E+01  0.30367099526E+02  0.80652217569E+00  0.30618446195E+02  0.51100000000E-03 0.  1.
         11    1    3    3    0    0  0.38311924380E+01 -0.30367099526E+02 -0.10163337493E+03  0.10614227089E+03  0.51100000000E-03 0. -1.
<mgrwt>
<rscale>  0 0.92398266E+02</rscale>
<asrwt>0</asrwt>
<pdfrwt beam="1">  1        3 0.27641435E-02 0.92398266E+02</pdfrwt>
<pdfrwt beam="2">  1       -3 0.18275966E-01 0.92398266E+02</pdfrwt>
<totfact> 0.30996772E+04</totfact>
</mgrwt>
</event>
<event>
 5    1  0.7431090E-001  0.9510013E+02  0.7818608E-02  0.1290951E+00
          3   -1    0    0  501    0  0.00000000000E+00  0.00000000000E+00  0.10866242504E+02  0.10866640473E+02  0.93000000000E-01 0. -1.
         -3   -1    0    0    0  501 -0.00000000000E+00 -0.00000000000E+00 -0.20807220303E+03  0.20807222381E+03  0.93000000000E-01 0.  1.
         23    2    1    2    0    0  0.00000000000E+00  0.00000000000E+00 -0.19720596052E+03  0.21893886428E+03  0.95100133690E+02 0.  0.
        -11    1    3    3    0    0 -0.15503426513E+02 -0.38096665998E+02 -0.43672796427E+02  0.59991877299E+02  0.51100000000E-03 0. -1.
         11    1    3    3    0    0  0.15503426513E+02  0.38096665998E+02 -0.15353316409E+03  0.15894698698E+03  0.51100000000E-03 0.  1.
<mgrwt>
<rscale>  0 0.95100134E+02</rscale>
<asrwt>0</asrwt>
<pdfrwt beam="1">  1        3 0.16717620E-02 0.95100134E+02</pdfrwt>
<pdfrwt beam="2">  1       -3 0.32011137E-01 0.95100134E+02</pdfrwt>
<totfact> 0.24578958E+04</totfact>
</mgrwt>
</event>
<event>
 5    1  0.7431090E-001  0.8465798E+02  0.7818608E-02  0.1316329E+00
          3   -1    0    0  501    0  0.00000000000E+00  0.00000000000E+00  0.89302019302E+02  0.89302067727E+02  0.93000000000E-01 0. -1.
         -3   -1    0    0    0  501 -0.00000000000E+00 -0.00000000000E+00 -0.20063698198E+02  0.20063913736E+02  0.93000000000E-01 0.  1.
         23    2    1    2    0    0  0.00000000000E+00  0.00000000000E+00  0.69238321104E+02  0.10936598146E+03  0.84657975360E+02 0.  0.
        -11    1    3    3    0    0 -0.34125087227E+02 -0.14358077915E+02  0.81103590993E+01  0.37900579213E+02  0.51100000000E-03 0.  1.
         11    1    3    3    0    0  0.34125087227E+02  0.14358077915E+02  0.61127962004E+02  0.71465402250E+02  0.51100000000E-03 0. -1.
<mgrwt>
<rscale>  0 0.84657975E+02</rscale>
<asrwt>0</asrwt>
<pdfrwt beam="1">  1        3 0.13738793E-01 0.84657975E+02</pdfrwt>
<pdfrwt beam="2">  1       -3 0.30867431E-02 0.84657975E+02</pdfrwt>
<totfact> 0.41536773E+04</totfact>
</mgrwt>
</event>
<event>
 5    1  0.7431090E-001  0.8761474E+02  0.7818608E-02  0.1308733E+00
         -3   -1    0    0    0  501 -0.00000000000E+00  0.00000000000E+00  0.86018741416E+01  0.86023768662E+01  0.93000000000E-01 0.  1.
          3   -1    0    0  501    0  0.00000000000E+00 -0.00000000000E+00 -0.22309385779E+03  0.22309387718E+03  0.93000000000E-01 0. -1.
         23    2    1    2    0    0  0.00000000000E+00  0.00000000000E+00 -0.21449198365E+03  0.23169625404E+03  0.87614742407E+02 0.  0.
        -11    1    3    3    0    0  0.41502945263E+02  0.11936608961E+02 -0.12669848464E+03  0.13385620310E+03  0.51100000000E-03 0.  1.
         11    1    3    3    0    0 -0.41502945263E+02 -0.11936608961E+02 -0.87793499011E+02  0.97840050939E+02  0.51100000000E-03 0. -1.
<mgrwt>
<rscale>  0 0.87614742E+02</rscale>
<asrwt>0</asrwt>
<pdfrwt beam="2">  1        3 0.34322168E-01 0.87614742E+02</pdfrwt>
<pdfrwt beam="1">  1       -3 0.13234056E-02 0.87614742E+02</pdfrwt>
<totfact> 0.29978660E+04</totfact>
</mgrwt>
</event>
<event>
 5    1  0.7431090E-001  0.9198536E+02  0.7818608E-02  0.1298114E+00
          3   -1    0    0  501    0  0.00000000000E+00  0.00000000000E+00  0.40764276042E+02  0.40764382127E+02  0.93000000000E-01 0. -1.
         -3   -1    0    0    0  501 -0.00000000000E+00 -0.00000000000E+00 -0.51891463807E+02  0.51891547144E+02  0.93000000000E-01 0.  1.
         23    2    1    2    0    0  0.00000000000E+00  0.00000000000E+00 -0.11127187765E+02  0.92655929271E+02  0.91985362540E+02 0.  0.
        -11    1    3    3    0    0 -0.15309773322E+02 -0.21018615770E+02 -0.43776347291E+02  0.50916990784E+02  0.51100000000E-03 0.  1.
         11    1    3    3    0    0  0.15309773322E+02  0.21018615770E+02  0.32649159526E+02  0.41738938487E+02  0.51100000000E-03 0. -1.
<mgrwt>
<rscale>  0 0.91985363E+02</rscale>
<asrwt>0</asrwt>
<pdfrwt beam="1">  1        3 0.62714416E-02 0.91985363E+02</pdfrwt>
<pdfrwt beam="2">  1       -3 0.79833167E-02 0.91985363E+02</pdfrwt>
<totfact> 0.34386892E+04</totfact>
</mgrwt>
</event>
<event>
 5    1  0.7431090E-001  0.8935788E+02  0.7818608E-02  0.1304414E+00
         -3   -1    0    0    0  501 -0.00000000000E+00  0.00000000000E+00  0.30107445633E+02  0.30107589268E+02  0.93000000000E-01 0.  1.
          3   -1    0    0  501    0  0.00000000000E+00 -0.00000000000E+00 -0.66302455297E+02  0.66302520521E+02  0.93000000000E-01 0. -1.
         23    2    1    2    0    0  0.00000000000E+00  0.00000000000E+00 -0.36195009664E+02  0.96410109789E+02  0.89357879031E+02 0.  0.
        -11    1    3    3    0    0  0.72514281110E+01  0.11731005484E+02  0.27753573374E+02  0.30991297723E+02  0.51100000000E-03 0.  1.
         11    1    3    3    0    0 -0.72514281110E+01 -0.11731005484E+02 -0.63948583037E+02  0.65418812065E+02  0.51100000000E-03 0. -1.
<mgrwt>
<rscale>  0 0.89357879E+02</rscale>
<asrwt>0</asrwt>
<pdfrwt beam="2">  1        3 0.10200394E-01 0.89357879E+02</pdfrwt>
<pdfrwt beam="1">  1       -3 0.46319308E-02 0.89357879E+02</pdfrwt>
<totfact> 0.36904680E+04</totfact>
</mgrwt>
</event>
<event>
 5    1  0.7431090E-001  0.9192922E+02  0.7818608E-02  0.1298246E+00
          3   -1    0    0  501    0  0.00000000000E+00  0.00000000000E+00  0.24222385792E+02  0.24222564324E+02  0.93000000000E-01 0. -1.
         -3   -1    0    0    0  501 -0.00000000000E+00 -0.00000000000E+00 -0.87222326062E+02  0.87222375642E+02  0.93000000000E-01 0.  1.
         23    2    1    2    0    0  0.00000000000E+00  0.00000000000E+00 -0.62999940270E+02  0.11144493997E+03  0.91929223700E+02 0.  0.
        -11    1    3    3    0    0  0.97917367050E+01 -0.42971530123E+02 -0.15678994780E+02  0.46778856189E+02  0.51100000000E-03 0. -1.
         11    1    3    3    0    0 -0.97917367050E+01  0.42971530123E+02 -0.47320945490E+02  0.64666083778E+02  0.51100000000E-03 0.  1.
<mgrwt>
<rscale>  0 0.91929224E+02</rscale>
<asrwt>0</asrwt>
<pdfrwt beam="1">  1        3 0.37265385E-02 0.91929224E+02</pdfrwt>
<pdfrwt beam="2">  1       -3 0.13418837E-01 0.91929224E+02</pdfrwt>
<totfact> 0.33094511E+04</totfact>
</mgrwt>
</event>
<event>
 5    1  0.7431090E-001  0.9241969E+02  0.7818608E-02  0.1297096E+00
          3   -1    0    0  501    0  0.00000000000E+00  0.00000000000E+00  0.13793952908E+03  0.13793956043E+03  0.93000000000E-01 0. -1.
         -3   -1    0    0    0  501 -0.00000000000E+00 -0.00000000000E+00 -0.15480158621E+02  0.15480437976E+02  0.93000000000E-01 0.  1.
         23    2    1    2    0    0  0.00000000000E+00  0.00000000000E+00  0.12245937046E+03  0.15341999841E+03  0.92419686745E+02 0.  0.
        -11    1    3    3    0    0  0.83997269711E+00 -0.46168316558E+02  0.58292492795E+02  0.74365541244E+02  0.51100000000E-03 0.  1.
         11    1    3    3    0    0 -0.83997269711E+00  0.46168316558E+02  0.64166877663E+02  0.79054457162E+02  0.51100000000E-03 0. -1.
<mgrwt>
<rscale>  0 0.92419687E+02</rscale>
<asrwt>0</asrwt>
<pdfrwt beam="1">  1        3 0.21221491E-01 0.92419687E+02</pdfrwt>
<pdfrwt beam="2">  1       -3 0.23815867E-02 0.92419687E+02</pdfrwt>
<totfact> 0.29977242E+04</totfact>
</mgrwt>
</event>
<event>
 5    1  0.7431090E-001  0.9204907E+02  0.7818608E-02  0.1297964E+00
          3   -1    0    0  501    0  0.00000000000E+00  0.00000000000E+00  0.13507348884E+02  0.13507669040E+02  0.93000000000E-01 0. -1.
         -3   -1    0    0    0  501 -0.00000000000E+00 -0.00000000000E+00 -0.15682043795E+03  0.15682046552E+03  0.93000000000E-01 0.  1.
         23    2    1    2    0    0  0.00000000000E+00  0.00000000000E+00 -0.14331308906E+03  0.17032813456E+03  0.92049073472E+02 0.  0.
        -11    1    3    3    0    0  0.44205100795E+02  0.10382756217E+02 -0.57764270655E+02  0.73475189877E+02  0.51100000000E-03 0.  1.
         11    1    3    3    0    0 -0.44205100795E+02 -0.10382756217E+02 -0.85548818409E+02  0.96852944686E+02  0.51100000000E-03 0. -1.
<mgrwt>
<rscale>  0 0.92049073E+02</rscale>
<asrwt>0</asrwt>
<pdfrwt beam="1">  1        3 0.20780805E-02 0.92049073E+02</pdfrwt>
<pdfrwt beam="2">  1       -3 0.24126247E-01 0.92049073E+02</pdfrwt>
<totfact> 0.29341341E+04</totfact>
</mgrwt>
</event>
<event>
 5    1  0.7431090E-001  0.9600690E+02  0.7818608E-02  0.1288924E+00
         -3   -1    0    0    0  501 -0.00000000000E+00  0.00000000000E+00  0.17062964342E+03  0.17062966877E+03  0.93000000000E-01 0.  1.
          3   -1    0    0  501    0  0.00000000000E+00 -0.00000000000E+00 -0.13504684396E+02  0.13505004615E+02  0.93000000000E-01 0. -1.
         23    2    1    2    0    0  0.00000000000E+00  0.00000000000E+00  0.15712495903E+03  0.18413467338E+03  0.96006901796E+02 0.  0.
        -11    1    3    3    0    0 -0.42445286414E+02  0.17490469288E+02  0.51655843909E+02  0.69107489209E+02  0.51100000000E-03 0.  1.
         11    1    3    3    0    0  0.42445286414E+02 -0.17490469288E+02  0.10546911512E+03  0.11502718417E+03  0.51100000000E-03 0. -1.
<mgrwt>
<rscale>  0 0.96006902E+02</rscale>
<asrwt>0</asrwt>
<pdfrwt beam="2">  1        3 0.20776704E-02 0.96006902E+02</pdfrwt>
<pdfrwt beam="1">  1       -3 0.26250740E-01 0.96006902E+02</pdfrwt>
<totfact> 0.25505949E+04</totfact>
</mgrwt>
</event>
<event>
 5    1  0.7431090E-001  0.9234994E+02  0.7818608E-02  0.1297259E+00
          3   -1    0    0  501    0  0.00000000000E+00  0.00000000000E+00  0.18869599869E+03  0.18869602160E+03  0.93000000000E-01 0. -1.
         -3   -1    0    0    0  501 -0.00000000000E+00 -0.00000000000E+00 -0.11299059127E+02  0.11299441851E+02  0.93000000000E-01 0.  1.
         23    2    1    2    0    0  0.00000000000E+00  0.00000000000E+00  0.17739693956E+03  0.19999546345E+03  0.92349939023E+02 0.  0.
        -11    1    3    3    0    0 -0.26124400080E+02  0.36242241660E+02  0.11396711198E+03  0.12241113909E+03  0.51100000000E-03 0.  1.
         11    1    3    3    0    0  0.26124400080E+02 -0.36242241660E+02  0.63429827579E+02  0.77584324364E+02  0.51100000000E-03 0. -1.
<mgrwt>
<rscale>  0 0.92349939E+02</rscale>
<asrwt>0</asrwt>
<pdfrwt beam="1">  1        3 0.29030184E-01 0.92349939E+02</pdfrwt>
<pdfrwt beam="2">  1       -3 0.17383480E-02 0.92349939E+02</pdfrwt>
<totfact> 0.27530508E+04</totfact>
</mgrwt>
</event>
<event>
 5    1  0.7431090E-001  0.9097404E+02  0.7818608E-02  0.1300510E+00
          3   -1    0    0  501    0  0.00000000000E+00  0.00000000000E+00  0.84268073451E+02  0.84268124769E+02  0.93000000000E-01 0. -1.
         -3   -1    0    0    0  501 -0.00000000000E+00 -0.00000000000E+00 -0.24553269376E+02  0.24553445503E+02  0.93000000000E-01 0.  1.
         23    2    1    2    0    0  0.00000000000E+00  0.00000000000E+00  0.59714804075E+02  0.10882157027E+03  0.90974042071E+02 0.  0.
        -11    1    3    3    0    0  0.40043524897E+02  0.14724911689E+02  0.48723829370E+02  0.64763558110E+02  0.51100000000E-03 0. -1.
         11    1    3    3    0    0 -0.40043524897E+02 -0.14724911689E+02  0.10990974705E+02  0.44058012162E+02  0.51100000000E-03 0.  1.
<mgrwt>
<rscale>  0 0.90974042E+02</rscale>
<asrwt>0</asrwt>
<pdfrwt beam="1">  1        3 0.12964336E-01 0.90974042E+02</pdfrwt>
<pdfrwt beam="2">  1       -3 0.37774437E-02 0.90974042E+02</pdfrwt>
<totfact> 0.34235766E+04</totfact>
</mgrwt>
</event>
<event>
 5    1  0.7431090E-001  0.9083497E+02  0.7818608E-02  0.1300842E+00
         -3   -1    0    0    0  501 -0.00000000000E+00  0.00000000000E+00  0.11599925349E+02  0.11600298147E+02  0.93000000000E-01 0.  1.
          3   -1    0    0  501    0  0.00000000000E+00 -0.00000000000E+00 -0.17782098685E+03  0.17782101117E+03  0.93000000000E-01 0. -1.
         23    2    1    2    0    0  0.00000000000E+00  0.00000000000E+00 -0.16622106150E+03  0.18942130931E+03  0.90834966486E+02 0.  0.
        -11    1    3    3    0    0  0.29686611812E+02  0.11747465408E+02 -0.15047200429E+03  0.15382172129E+03  0.51100000000E-03 0. -1.
         11    1    3    3    0    0 -0.29686611812E+02 -0.11747465408E+02 -0.15749057206E+02  0.35599588024E+02  0.51100000000E-03 0.  1.
<mgrwt>
<rscale>  0 0.90834966E+02</rscale>
<asrwt>0</asrwt>
<pdfrwt beam="2">  1        3 0.27357104E-01 0.90834966E+02</pdfrwt>
<pdfrwt beam="1">  1       -3 0.17846346E-02 0.90834966E+02</pdfrwt>
<totfact> 0.29350926E+04</totfact>
</mgrwt>
</event>
<event>
 5    1  0.7431090E-001  0.8965135E+02  0.7818608E-02  0.1303698E+00
          3   -1    0    0  501    0  0.00000000000E+00  0.00000000000E+00  0.75524966470E+02  0.75525023729E+02  0.93000000000E-01 0. -1.
         -3   -1    0    0    0  501 -0.00000000000E+00 -0.00000000000E+00 -0.26604844990E+02  0.26605007535E+02  0.93000000000E-01 0.  1.
         23    2    1    2    0    0  0.00000000000E+00  0.00000000000E+00  0.48920121480E+02  0.10213003126E+03  0.89651352474E+02 0.  0.
        -11    1    3    3    0    0  0.13162467129E+02 -0.35700398831E+02 -0.25359400282E+01  0.38133974481E+02  0.51100000000E-03 0.  1.
         11    1    3    3    0    0 -0.13162467129E+02  0.35700398831E+02  0.51456061508E+02  0.63996056783E+02  0.51100000000E-03 0. -1.
<mgrwt>
<rscale>  0 0.89651352E+02</rscale>
<asrwt>0</asrwt>
<pdfrwt beam="1">  1        3 0.11619242E-01 0.89651352E+02</pdfrwt>
<pdfrwt beam="2">  1       -3 0.40930701E-02 0.89651352E+02</pdfrwt>
<totfact> 0.36131379E+04</totfact>
</mgrwt>
</event>
<event>
 5    1  0.7431090E-001  0.9139678E+02  0.7818608E-02  0.1299504E+00
          3   -1    0    0  501    0  0.00000000000E+00  0.00000000000E+00  0.16890022549E+02  0.16890278586E+02  0.93000000000E-01 0. -1.
         -3   -1    0    0    0  501 -0.00000000000E+00 -0.00000000000E+00 -0.12364237456E+03  0.12364240954E+03  0.93000000000E-01 0.  1.
         23    2    1    2    0    0  0.00000000000E+00  0.00000000000E+00 -0.10675235201E+03  0.14053268812E+03  0.91396782061E+02 0.  0.
        -11    1    3    3    0    0 -0.23233280669E+02 -0.27116407129E+02 -0.97225271656E+02  0.10357527849E+03  0.51100000000E-03 0.  1.
         11    1    3    3    0    0  0.23233280669E+02  0.27116407129E+02 -0.95270803575E+01  0.36957409631E+02  0.51100000000E-03 0. -1.
<mgrwt>
<rscale>  0 0.91396782E+02</rscale>
<asrwt>0</asrwt>
<pdfrwt beam="1">  1        3 0.25984875E-02 0.91396782E+02</pdfrwt>
<pdfrwt beam="2">  1       -3 0.19021926E-01 0.91396782E+02</pdfrwt>
<totfact> 0.31689824E+04</totfact>
</mgrwt>
</event>
<event>
 5    1  0.7431090E-001  0.9579830E+02  0.7818608E-02  0.1289388E+00
         -3   -1    0    0    0  501 -0.00000000000E+00  0.00000000000E+00  0.10247568979E+03  0.10247573199E+03  0.93000000000E-01 0.  1.
          3   -1    0    0  501    0  0.00000000000E+00 -0.00000000000E+00 -0.22388861722E+02  0.22389054875E+02  0.93000000000E-01 0. -1.
         23    2    1    2    0    0  0.00000000000E+00  0.00000000000E+00  0.80086828072E+02  0.12486478687E+03  0.95798303582E+02 0.  0.
        -11    1    3    3    0    0  0.23472371124E+02  0.37525321311E+02  0.16178958800E+02  0.47126008252E+02  0.51100000000E-03 0. -1.
         11    1    3    3    0    0 -0.23472371124E+02 -0.37525321311E+02  0.63907869272E+02  0.77738778617E+02  0.51100000000E-03 0.  1.
<mgrwt>
<rscale>  0 0.95798304E+02</rscale>
<asrwt>0</asrwt>
<pdfrwt beam="2">  1        3 0.34444584E-02 0.95798304E+02</pdfrwt>
<pdfrwt beam="1">  1       -3 0.15765509E-01 0.95798304E+02</pdfrwt>
<totfact> 0.28767014E+04</totfact>
</mgrwt>
</event>
<event>
 5    1  0.7431090E-001  0.8119246E+02  0.7818608E-02  0.1325701E+00
         -3   -1    0    0    0  501 -0.00000000000E+00  0.00000000000E+00  0.22671313374E+03  0.22671315281E+03  0.93000000000E-01 0.  1.
          3   -1    0    0  501    0  0.00000000000E+00 -0.00000000000E+00 -0.72690193949E+01  0.72696142927E+01  0.93000000000E-01 0. -1.
         23    2    1    2    0    0  0.00000000000E+00  0.00000000000E+00  0.21944411434E+03  0.23398276710E+03  0.81192462596E+02 0.  0.
        -11    1    3    3    0    0  0.21140032574E+02  0.25216681196E+02  0.17823882988E+03  0.18125082749E+03  0.51100000000E-03 0.  1.
         11    1    3    3    0    0 -0.21140032574E+02 -0.25216681196E+02  0.41205284457E+02  0.52731939612E+02  0.51100000000E-03 0. -1.
<mgrwt>
<rscale>  0 0.81192463E+02</rscale>
<asrwt>0</asrwt>
<pdfrwt beam="2">  1        3 0.11183581E-02 0.81192463E+02</pdfrwt>
<pdfrwt beam="1">  1       -3 0.34878986E-01 0.81192463E+02</pdfrwt>
<totfact> 0.36572906E+04</totfact>
</mgrwt>
</event>
<event>
 5    1  0.7431090E-001  0.9783177E+02  0.7818608E-02  0.1284923E+00
         -3   -1    0    0    0  501 -0.00000000000E+00  0.00000000000E+00  0.20508502450E+02  0.20508713312E+02  0.93000000000E-01 0.  1.
          3   -1    0    0  501    0  0.00000000000E+00 -0.00000000000E+00 -0.11667097826E+03  0.11667101533E+03  0.93000000000E-01 0. -1.
         23    2    1    2    0    0  0.00000000000E+00  0.00000000000E+00 -0.96162475815E+02  0.13717972864E+03  0.97831774979E+02 0.  0.
        -11    1    3    3    0    0  0.20855744441E+02 -0.35347583174E+02 -0.10761888971E+02  0.42429140539E+02  0.51100000000E-03 0.  1.
         11    1    3    3    0    0 -0.20855744441E+02  0.35347583174E+02 -0.85400586844E+02  0.94750588104E+02  0.51100000000E-03 0. -1.
<mgrwt>
<rscale>  0 0.97831775E+02</rscale>
<asrwt>0</asrwt>
<pdfrwt beam="2">  1        3 0.17949400E-01 0.97831775E+02</pdfrwt>
<pdfrwt beam="1">  1       -3 0.31551734E-02 0.97831775E+02</pdfrwt>
<totfact> 0.26499405E+04</totfact>
</mgrwt>
</event>
<event>
 5    1  0.7431090E-001  0.9106514E+02  0.7818608E-02  0.1300293E+00
         -3   -1    0    0    0  501 -0.00000000000E+00  0.00000000000E+00  0.33400224041E+02  0.33400353516E+02  0.93000000000E-01 0.  1.
          3   -1    0    0  501    0  0.00000000000E+00 -0.00000000000E+00 -0.62071608441E+02  0.62071678111E+02  0.93000000000E-01 0. -1.
         23    2    1    2    0    0  0.00000000000E+00  0.00000000000E+00 -0.28671384400E+02  0.95472031627E+02  0.91065144482E+02 0.  0.
        -11    1    3    3    0    0  0.42733664201E+02 -0.38321785499E+01 -0.30316838423E+02  0.52535343729E+02  0.51100000000E-03 0.  1.
         11    1    3    3    0    0 -0.42733664201E+02  0.38321785499E+01  0.16454540236E+01  0.42936687898E+02  0.51100000000E-03 0. -1.
<mgrwt>
<rscale>  0 0.91065144E+02</rscale>
<asrwt>0</asrwt>
<pdfrwt beam="2">  1        3 0.95494935E-02 0.91065144E+02</pdfrwt>
<pdfrwt beam="1">  1       -3 0.51385113E-02 0.91065144E+02</pdfrwt>
<totfact> 0.35127710E+04</totfact>
</mgrwt>
</event>
<event>
 5    1  0.7431090E-001  0.9286901E+02  0.7818608E-02  0.1296049E+00
         -3   -1    0    0    0  501 -0.00000000000E+00  0.00000000000E+00  0.21239776706E+03  0.21239778742E+03  0.93000000000E-01 0.  1.
          3   -1    0    0  501    0  0.00000000000E+00 -0.00000000000E+00 -0.10151299821E+02  0.10151725817E+02  0.93000000000E-01 0. -1.
         23    2    1    2    0    0  0.00000000000E+00  0.00000000000E+00  0.20224646724E+03  0.22254951324E+03  0.92869006303E+02 0.  0.
        -11    1    3    3    0    0  0.10145007984E+02  0.38608372334E+02  0.15796524122E+03  0.16293110518E+03  0.51100000000E-03 0.  1.
         11    1    3    3    0    0 -0.10145007984E+02 -0.38608372334E+02  0.44281226018E+02  0.59618408057E+02  0.51100000000E-03 0. -1.
<mgrwt>
<rscale>  0 0.92869006E+02</rscale>
<asrwt>0</asrwt>
<pdfrwt beam="2">  1        3 0.15617727E-02 0.92869006E+02</pdfrwt>
<pdfrwt beam="1">  1       -3 0.32676615E-01 0.92869006E+02</pdfrwt>
<totfact> 0.26044438E+04</totfact>
</mgrwt>
</event>
<event>
 5    1  0.7431090E-001  0.9027873E+02  0.7818608E-02  0.1302178E+00
          3   -1    0    0  501    0  0.00000000000E+00  0.00000000000E+00  0.75655555395E+02  0.75655612556E+02  0.93000000000E-01 0. -1.
         -3   -1    0    0    0  501 -0.00000000000E+00 -0.00000000000E+00 -0.26931942150E+02  0.26932102720E+02  0.93000000000E-01 0.  1.
         23    2    1    2    0    0  0.00000000000E+00  0.00000000000E+00  0.48723613246E+02  0.10258771528E+03  0.90278728601E+02 0.  0.
        -11    1    3    3    0    0 -0.30389609471E+02 -0.33148449460E+02  0.19929460353E+02  0.49188733015E+02  0.51100000000E-03 0. -1.
         11    1    3    3    0    0  0.30389609471E+02  0.33148449460E+02  0.28794152893E+02  0.53398982261E+02  0.51100000000E-03 0.  1.
<mgrwt>
<rscale>  0 0.90278729E+02</rscale>
<asrwt>0</asrwt>
<pdfrwt beam="1">  1        3 0.11639333E-01 0.90278729E+02</pdfrwt>
<pdfrwt beam="2">  1       -3 0.41433924E-02 0.90278729E+02</pdfrwt>
<totfact> 0.35419961E+04</totfact>
</mgrwt>
</event>
<event>
 5    1  0.7431090E-001  0.9178447E+02  0.7818608E-02  0.1298587E+00
         -3   -1    0    0    0  501 -0.00000000000E+00  0.00000000000E+00  0.35946944174E+03  0.35946945377E+03  0.93000000000E-01 0.  1.
          3   -1    0    0  501    0  0.00000000000E+00 -0.00000000000E+00 -0.58585240428E+01  0.58592621515E+01  0.93000000000E-01 0. -1.
         23    2    1    2    0    0  0.00000000000E+00  0.00000000000E+00  0.35361091770E+03  0.36532871592E+03  0.91784473428E+02 0.  0.
        -11    1    3    3    0    0  0.42349352462E+02  0.83238726164E+01  0.23889578091E+03  0.24276315339E+03  0.51100000000E-03 0.  1.
         11    1    3    3    0    0 -0.42349352462E+02 -0.83238726164E+01  0.11471513679E+03  0.12256556253E+03  0.51100000000E-03 0. -1.
<mgrwt>
<rscale>  0 0.91784473E+02</rscale>
<asrwt>0</asrwt>
<pdfrwt beam="2">  1        3 0.90136912E-03 0.91784473E+02</pdfrwt>
<pdfrwt beam="1">  1       -3 0.55303047E-01 0.91784473E+02</pdfrwt>
<totfact> 0.21310079E+04</totfact>
</mgrwt>
</event>
<event>
 5    1  0.7431090E-001  0.9143945E+02  0.7818608E-02  0.1299403E+00
          3   -1    0    0  501    0  0.00000000000E+00  0.00000000000E+00  0.70382805630E+01  0.70388949618E+01  0.93000000000E-01 0. -1.
         -3   -1    0    0    0  501 -0.00000000000E+00 -0.00000000000E+00 -0.29697561177E+03  0.29697562633E+03  0.93000000000E-01 0.  1.
         23    2    1    2    0    0  0.00000000000E+00  0.00000000000E+00 -0.28993733121E+03  0.30401452130E+03  0.91439450622E+02 0.  0.
        -11    1    3    3    0    0  0.41023476865E+02 -0.71003417368E+01 -0.20778406156E+03  0.21191403149E+03  0.51100000000E-03 0.  1.
         11    1    3    3    0    0 -0.41023476865E+02  0.71003417368E+01 -0.82153269653E+02  0.92100489802E+02  0.51100000000E-03 0. -1.
<mgrwt>
<rscale>  0 0.91439451E+02</rscale>
<asrwt>0</asrwt>
<pdfrwt beam="1">  1        3 0.10828610E-02 0.91439451E+02</pdfrwt>
<pdfrwt beam="2">  1       -3 0.45688594E-01 0.91439451E+02</pdfrwt>
<totfact> 0.23684941E+04</totfact>
</mgrwt>
</event>
<event>
 5    1  0.7431090E-001  0.8963504E+02  0.7818608E-02  0.1303738E+00
         -3   -1    0    0    0  501 -0.00000000000E+00  0.00000000000E+00  0.24178511458E+03  0.24178513247E+03  0.93000000000E-01 0.  1.
          3   -1    0    0  501    0  0.00000000000E+00 -0.00000000000E+00 -0.83071391380E+01  0.83076596980E+01  0.93000000000E-01 0. -1.
         23    2    1    2    0    0  0.00000000000E+00  0.00000000000E+00  0.23347797544E+03  0.25009279217E+03  0.89635035984E+02 0.  0.
        -11    1    3    3    0    0  0.11601995384E+01  0.34100554564E+02  0.35661251588E+02  0.49355027602E+02  0.51100000000E-03 0. -1.
         11    1    3    3    0    0 -0.11601995384E+01 -0.34100554564E+02  0.19781672386E+03  0.20073776456E+03  0.51100000000E-03 0.  1.
<mgrwt>
<rscale>  0 0.89635036E+02</rscale>
<asrwt>0</asrwt>
<pdfrwt beam="2">  1        3 0.12780631E-02 0.89635036E+02</pdfrwt>
<pdfrwt beam="1">  1       -3 0.37197743E-01 0.89635036E+02</pdfrwt>
<totfact> 0.27317612E+04</totfact>
</mgrwt>
</event>
<event>
 5    1  0.7431090E-001  0.8648869E+02  0.7818608E-02  0.1311585E+00
          3   -1    0    0  501    0  0.00000000000E+00  0.00000000000E+00  0.10587092411E+02  0.10587500872E+02  0.93000000000E-01 0. -1.
         -3   -1    0    0    0  501 -0.00000000000E+00 -0.00000000000E+00 -0.17663326983E+03  0.17663329431E+03  0.93000000000E-01 0.  1.
         23    2    1    2    0    0  0.00000000000E+00  0.00000000000E+00 -0.16604617742E+03  0.18722079519E+03  0.86488687784E+02 0.  0.
        -11    1    3    3    0    0 -0.81998012151E+01 -0.25967795574E+02 -0.10304153898E+02  0.29115953269E+02  0.51100000000E-03 0. -1.
         11    1    3    3    0    0  0.81998012151E+01  0.25967795574E+02 -0.15574202352E+03  0.15810484192E+03  0.51100000000E-03 0.  1.
<mgrwt>
<rscale>  0 0.86488688E+02</rscale>
<asrwt>0</asrwt>
<pdfrwt beam="1">  1        3 0.16288169E-02 0.86488688E+02</pdfrwt>
<pdfrwt beam="2">  1       -3 0.27174380E-01 0.86488688E+02</pdfrwt>
<totfact> 0.33620350E+04</totfact>
</mgrwt>
</event>
<event>
 5    1  0.7431090E-001  0.9057069E+02  0.7818608E-02  0.1301476E+00
         -3   -1    0    0    0  501 -0.00000000000E+00  0.00000000000E+00  0.18756382274E+03  0.18756384579E+03  0.93000000000E-01 0.  1.
          3   -1    0    0  501    0  0.00000000000E+00 -0.00000000000E+00 -0.10933455696E+02  0.10933851218E+02  0.93000000000E-01 0. -1.
         23    2    1    2    0    0  0.00000000000E+00  0.00000000000E+00  0.17663036704E+03  0.19849769701E+03  0.90570685972E+02 0.  0.
        -11    1    3    3    0    0 -0.27735256780E+02  0.27968412750E+02  0.13728656808E+03  0.14282534214E+03  0.51100000000E-03 0.  1.
         11    1    3    3    0    0  0.27735256780E+02 -0.27968412750E+02  0.39343798957E+02  0.55672354872E+02  0.51100000000E-03 0. -1.
<mgrwt>
<rscale>  0 0.90570686E+02</rscale>
<asrwt>0</asrwt>
<pdfrwt beam="2">  1        3 0.16821023E-02 0.90570686E+02</pdfrwt>
<pdfrwt beam="1">  1       -3 0.28856005E-01 0.90570686E+02</pdfrwt>
<totfact> 0.29093519E+04</totfact>
</mgrwt>
</event>
<event>
 5    1  0.7431090E-001  0.8679859E+02  0.7818608E-02  0.1310795E+00
         -3   -1    0    0    0  501 -0.00000000000E+00  0.00000000000E+00  0.48568102854E+02  0.48568191894E+02  0.93000000000E-01 0.  1.
          3   -1    0    0  501    0  0.00000000000E+00 -0.00000000000E+00 -0.38780391231E+02  0.38780502744E+02  0.93000000000E-01 0. -1.
         23    2    1    2    0    0  0.00000000000E+00  0.00000000000E+00  0.97877116227E+01  0.87348694638E+02  0.86798589597E+02 0.  0.
        -11    1    3    3    0    0 -0.12012398848E+02  0.37474217118E+02  0.23309674226E+02  0.45737900995E+02  0.51100000000E-03 0.  1.
         11    1    3    3    0    0  0.12012398848E+02 -0.37474217118E+02 -0.13521962603E+02  0.41610793643E+02  0.51100000000E-03 0. -1.
<mgrwt>
<rscale>  0 0.86798590E+02</rscale>
<asrwt>0</asrwt>
<pdfrwt beam="2">  1        3 0.59662295E-02 0.86798590E+02</pdfrwt>
<pdfrwt beam="1">  1       -3 0.74720312E-02 0.86798590E+02</pdfrwt>
<totfact> 0.40728228E+04</totfact>
</mgrwt>
</event>
<event>
 5    1  0.7431090E-001  0.9116170E+02  0.7818608E-02  0.1300063E+00
         -3   -1    0    0    0  501 -0.00000000000E+00  0.00000000000E+00  0.10338256379E+02  0.10338674672E+02  0.93000000000E-01 0.  1.
          3   -1    0    0  501    0  0.00000000000E+00 -0.00000000000E+00 -0.20095917825E+03  0.20095919977E+03  0.93000000000E-01 0. -1.
         23    2    1    2    0    0  0.00000000000E+00  0.00000000000E+00 -0.19062092187E+03  0.21129787445E+03  0.91161701875E+02 0.  0.
        -11    1    3    3    0    0  0.32200120568E+02 -0.65199734199E+01 -0.16854293426E+03  0.17171510855E+03  0.51100000000E-03 0. -1.
         11    1    3    3    0    0 -0.32200120568E+02  0.65199734199E+01 -0.22077987618E+02  0.39582765890E+02  0.51100000000E-03 0.  1.
<mgrwt>
<rscale>  0 0.91161702E+02</rscale>
<asrwt>0</asrwt>
<pdfrwt beam="2">  1        3 0.30916828E-01 0.91161702E+02</pdfrwt>
<pdfrwt beam="1">  1       -3 0.15905350E-02 0.91161702E+02</pdfrwt>
<totfact> 0.27937356E+04</totfact>
</mgrwt>
</event>
<event>
 5    1  0.7431090E-001  0.9121297E+02  0.7818608E-02  0.1299941E+00
         -3   -1    0    0    0  501 -0.00000000000E+00  0.00000000000E+00  0.73268174824E+01  0.73274076876E+01  0.93000000000E-01 0.  1.
          3   -1    0    0  501    0  0.00000000000E+00 -0.00000000000E+00 -0.28386996626E+03  0.28386998150E+03  0.93000000000E-01 0. -1.
         23    2    1    2    0    0  0.00000000000E+00  0.00000000000E+00 -0.27654314878E+03  0.29119738918E+03  0.91212972380E+02 0.  0.
        -11    1    3    3    0    0 -0.27963516253E+02 -0.26961648801E+02 -0.61980660568E+02  0.73147050740E+02  0.51100000000E-03 0.  1.
         11    1    3    3    0    0  0.27963516253E+02  0.26961648801E+02 -0.21456248821E+03  0.21805033844E+03  0.51100000000E-03 0. -1.
<mgrwt>
<rscale>  0 0.91212972E+02</rscale>
<asrwt>0</asrwt>
<pdfrwt beam="2">  1        3 0.43672341E-01 0.91212972E+02</pdfrwt>
<pdfrwt beam="1">  1       -3 0.11272495E-02 0.91212972E+02</pdfrwt>
<totfact> 0.24349868E+04</totfact>
</mgrwt>
</event>
<event>
 5    1  0.7431090E-001  0.8803079E+02  0.7818608E-02  0.1307692E+00
          3   -1    0    0  501    0  0.00000000000E+00  0.00000000000E+00  0.70052500860E+02  0.70052562592E+02  0.93000000000E-01 0. -1.
         -3   -1    0    0    0  501 -0.00000000000E+00 -0.00000000000E+00 -0.27655604050E+02  0.27655760420E+02  0.93000000000E-01 0.  1.
         23    2    1    2    0    0  0.00000000000E+00  0.00000000000E+00  0.42396896809E+02  0.97708323011E+02  0.88030787379E+02 0.  0.
        -11    1    3    3    0    0 -0.38713858094E+02  0.20694394628E+02  0.17630378249E+02  0.47305930019E+02  0.51100000000E-03 0. -1.
         11    1    3    3    0    0  0.38713858094E+02 -0.20694394628E+02  0.24766518561E+02  0.50402392993E+02  0.51100000000E-03 0.  1.
<mgrwt>
<rscale>  0 0.88030787E+02</rscale>
<asrwt>0</asrwt>
<pdfrwt beam="1">  1        3 0.10777324E-01 0.88030787E+02</pdfrwt>
<pdfrwt beam="2">  1       -3 0.42547252E-02 0.88030787E+02</pdfrwt>
<totfact> 0.38324088E+04</totfact>
</mgrwt>
</event>
<event>
 5    1  0.7431090E-001  0.9163185E+02  0.7818608E-02  0.1298947E+00
          3   -1    0    0  501    0  0.00000000000E+00  0.00000000000E+00  0.19571252053E+02  0.19571473014E+02  0.93000000000E-01 0. -1.
         -3   -1    0    0    0  501 -0.00000000000E+00 -0.00000000000E+00 -0.10725335399E+03  0.10725339431E+03  0.93000000000E-01 0.  1.
         23    2    1    2    0    0  0.00000000000E+00  0.00000000000E+00 -0.87682101941E+02  0.12682486733E+03  0.91631850205E+02 0.  0.
        -11    1    3    3    0    0 -0.88312000685E+01  0.40812145588E+02 -0.17745641031E+02  0.45371016056E+02  0.51100000000E-03 0. -1.
         11    1    3    3    0    0  0.88312000685E+01 -0.40812145588E+02 -0.69936460911E+02  0.81453851272E+02  0.51100000000E-03 0.  1.
<mgrwt>
<rscale>  0 0.91631850E+02</rscale>
<asrwt>0</asrwt>
<pdfrwt beam="1">  1        3 0.30109820E-02 0.91631850E+02</pdfrwt>
<pdfrwt beam="2">  1       -3 0.16500536E-01 0.91631850E+02</pdfrwt>
<totfact> 0.32346715E+04</totfact>
</mgrwt>
</event>
<event>
 5    1  0.7431090E-001  0.1002849E+03  0.7818608E-02  0.1279698E+00
         -3   -1    0    0    0  501 -0.00000000000E+00  0.00000000000E+00  0.26632167513E+02  0.26632329891E+02  0.93000000000E-01 0.  1.
          3   -1    0    0  501    0  0.00000000000E+00 -0.00000000000E+00 -0.94406524050E+02  0.94406569857E+02  0.93000000000E-01 0. -1.
         23    2    1    2    0    0  0.00000000000E+00  0.00000000000E+00 -0.67774356537E+02  0.12103889975E+03  0.10028485353E+03 0.  0.
        -11    1    3    3    0    0  0.29327446376E+02  0.22652878351E+02 -0.74656597931E+02  0.83347823147E+02  0.51100000000E-03 0. -1.
         11    1    3    3    0    0 -0.29327446376E+02 -0.22652878351E+02  0.68822413939E+01  0.37691076601E+02  0.51100000000E-03 0.  1.
<mgrwt>
<rscale>  0 0.10028485E+03</rscale>
<asrwt>0</asrwt>
<pdfrwt beam="2">  1        3 0.14524096E-01 0.10028485E+03</pdfrwt>
<pdfrwt beam="1">  1       -3 0.40972726E-02 0.10028485E+03</pdfrwt>
<totfact> 0.25572356E+04</totfact>
</mgrwt>
</event>
<event>
 5    1  0.7431090E-001  0.8998995E+02  0.7818608E-02  0.1302876E+00
          3   -1    0    0  501    0  0.00000000000E+00  0.00000000000E+00  0.43390188799E+02  0.43390288464E+02  0.93000000000E-01 0. -1.
         -3   -1    0    0    0  501 -0.00000000000E+00 -0.00000000000E+00 -0.46658919714E+02  0.46659012397E+02  0.93000000000E-01 0.  1.
         23    2    1    2    0    0  0.00000000000E+00  0.00000000000E+00 -0.32687309149E+01  0.90049300861E+02  0.89989954904E+02 0.  0.
        -11    1    3    3    0    0 -0.39754572694E+02 -0.16789169176E+02  0.11111606768E+02  0.44561979948E+02  0.51100000000E-03 0. -1.
         11    1    3    3    0    0  0.39754572694E+02  0.16789169176E+02 -0.14380337683E+02  0.45487320913E+02  0.51100000000E-03 0.  1.
<mgrwt>
<rscale>  0 0.89989955E+02</rscale>
<asrwt>0</asrwt>
<pdfrwt beam="1">  1        3 0.66754284E-02 0.89989955E+02</pdfrwt>
<pdfrwt beam="2">  1       -3 0.71783101E-02 0.89989955E+02</pdfrwt>
<totfact> 0.36710741E+04</totfact>
</mgrwt>
</event>
<event>
 5    1  0.7431090E-001  0.9078619E+02  0.7818608E-02  0.1300959E+00
          3   -1    0    0  501    0  0.00000000000E+00  0.00000000000E+00  0.44123096881E+01  0.44132896782E+01  0.93000000000E-01 0. -1.
         -3   -1    0    0    0  501 -0.00000000000E+00 -0.00000000000E+00 -0.46694361922E+03  0.46694362848E+03  0.93000000000E-01 0.  1.
         23    2    1    2    0    0  0.00000000000E+00  0.00000000000E+00 -0.46253130953E+03  0.47135691816E+03  0.90786188374E+02 0.  0.
        -11    1    3    3    0    0  0.38734210193E+02  0.23378017108E+02 -0.25045639103E+03  0.25450987118E+03  0.51100000000E-03 0. -1.
         11    1    3    3    0    0 -0.38734210193E+02 -0.23378017108E+02 -0.21207491851E+03  0.21684704698E+03  0.51100000000E-03 0.  1.
<mgrwt>
<rscale>  0 0.90786188E+02</rscale>
<asrwt>0</asrwt>
<pdfrwt beam="1">  1        3 0.67889334E-03 0.90786188E+02</pdfrwt>
<pdfrwt beam="2">  1       -3 0.71837517E-01 0.90786188E+02</pdfrwt>
<totfact> 0.18821782E+04</totfact>
</mgrwt>
</event>
<event>
 5    1  0.7431090E-001  0.9268851E+02  0.7818608E-02  0.1296469E+00
         -3   -1    0    0    0  501 -0.00000000000E+00  0.00000000000E+00  0.11836599674E+02  0.11836965018E+02  0.93000000000E-01 0.  1.
          3   -1    0    0  501    0  0.00000000000E+00 -0.00000000000E+00 -0.18145011625E+03  0.18145014008E+03  0.93000000000E-01 0. -1.
         23    2    1    2    0    0  0.00000000000E+00  0.00000000000E+00 -0.16961351657E+03  0.19328710510E+03  0.92688510578E+02 0.  0.
        -11    1    3    3    0    0  0.17962783167E+02 -0.22671468148E+02 -0.92974756861E+01  0.30382562458E+02  0.51100000000E-03 0.  1.
         11    1    3    3    0    0 -0.17962783167E+02  0.22671468148E+02 -0.16031604089E+03  0.16290454264E+03  0.51100000000E-03 0. -1.
<mgrwt>
<rscale>  0 0.92688511E+02</rscale>
<asrwt>0</asrwt>
<pdfrwt beam="2">  1        3 0.27915430E-01 0.92688511E+02</pdfrwt>
<pdfrwt beam="1">  1       -3 0.18210454E-02 0.92688511E+02</pdfrwt>
<totfact> 0.27594037E+04</totfact>
</mgrwt>
</event>
<event>
 5    1  0.7431090E-001  0.9165445E+02  0.7818608E-02  0.1298894E+00
          3   -1    0    0  501    0  0.00000000000E+00  0.00000000000E+00  0.15056548972E+02  0.15056836187E+02  0.93000000000E-01 0. -1.
         -3   -1    0    0    0  501 -0.00000000000E+00 -0.00000000000E+00 -0.13948149859E+03  0.13948152960E+03  0.93000000000E-01 0.  1.
         23    2    1    2    0    0  0.00000000000E+00  0.00000000000E+00 -0.12442494962E+03  0.15453836578E+03  0.91654451124E+02 0.  0.
        -11    1    3    3    0    0  0.16805373918E+01 -0.37029248438E+02 -0.16777062145E+02  0.40687335380E+02  0.51100000000E-03 0. -1.
         11    1    3    3    0    0 -0.16805373918E+01  0.37029248438E+02 -0.10764788747E+03  0.11385103040E+03  0.51100000000E-03 0.  1.
<mgrwt>
<rscale>  0 0.91654451E+02</rscale>
<asrwt>0</asrwt>
<pdfrwt beam="1">  1        3 0.23164167E-02 0.91654451E+02</pdfrwt>
<pdfrwt beam="2">  1       -3 0.21458716E-01 0.91654451E+02</pdfrwt>
<totfact> 0.30595956E+04</totfact>
</mgrwt>
</event>
<event>
 5    1  0.7431090E-001  0.7969721E+02  0.7818608E-02  0.1329913E+00
          3   -1    0    0  501    0  0.00000000000E+00  0.00000000000E+00  0.88435396099E+02  0.88435444999E+02  0.93000000000E-01 0. -1.
         -3   -1    0    0    0  501 -0.00000000000E+00 -0.00000000000E+00 -0.17955433356E+02  0.17955674201E+02  0.93000000000E-01 0.  1.
         23    2    1    2    0    0  0.00000000000E+00  0.00000000000E+00  0.70479962743E+02  0.10639111920E+03  0.79697208837E+02 0.  0.
        -11    1    3    3    0    0 -0.15994614289E+02  0.95015727789E+01 -0.11802339617E+02  0.22031858574E+02  0.51100000000E-03 0.  1.
         11    1    3    3    0    0  0.15994614289E+02 -0.95015727789E+01  0.82282302360E+02  0.84359260626E+02  0.51100000000E-03 0. -1.
<mgrwt>
<rscale>  0 0.79697209E+02</rscale>
<asrwt>0</asrwt>
<pdfrwt beam="1">  1        3 0.13605468E-01 0.79697209E+02</pdfrwt>
<pdfrwt beam="2">  1       -3 0.27623966E-02 0.79697209E+02</pdfrwt>
<totfact> 0.49155111E+04</totfact>
</mgrwt>
</event>
<event>
 5    1  0.7431090E-001  0.8649676E+02  0.7818608E-02  0.1311564E+00
          3   -1    0    0  501    0  0.00000000000E+00  0.00000000000E+00  0.73027014680E+02  0.73027073898E+02  0.93000000000E-01 0. -1.
         -3   -1    0    0    0  501 -0.00000000000E+00 -0.00000000000E+00 -0.25612590106E+02  0.25612758948E+02  0.93000000000E-01 0.  1.
         23    2    1    2    0    0  0.00000000000E+00  0.00000000000E+00  0.47414424574E+02  0.98639832845E+02  0.86496756969E+02 0.  0.
        -11    1    3    3    0    0 -0.17670441893E+02  0.11423751744E+02  0.66796297558E+02  0.70032078281E+02  0.51100000000E-03 0. -1.
         11    1    3    3    0    0  0.17670441893E+02 -0.11423751744E+02 -0.19381872984E+02  0.28607754565E+02  0.51100000000E-03 0.  1.
<mgrwt>
<rscale>  0 0.86496757E+02</rscale>
<asrwt>0</asrwt>
<pdfrwt beam="1">  1        3 0.11234943E-01 0.86496757E+02</pdfrwt>
<pdfrwt beam="2">  1       -3 0.39404160E-02 0.86496757E+02</pdfrwt>
<totfact> 0.40108805E+04</totfact>
</mgrwt>
</event>
<event>
 5    1  0.7431090E-001  0.9681937E+02  0.7818608E-02  0.1287130E+00
          3   -1    0    0  501    0  0.00000000000E+00  0.00000000000E+00  0.18014799993E+02  0.18015040044E+02  0.93000000000E-01 0. -1.
         -3   -1    0    0    0  501 -0.00000000000E+00 -0.00000000000E+00 -0.13008622251E+03  0.13008625576E+03  0.93000000000E-01 0.  1.
         23    2    1    2    0    0  0.00000000000E+00  0.00000000000E+00 -0.11207142252E+03  0.14810129580E+03  0.96819368269E+02 0.  0.
        -11    1    3    3    0    0  0.42498369228E+02  0.18765575819E+02 -0.35216552678E+02  0.58296344703E+02  0.51100000000E-03 0. -1.
         11    1    3    3    0    0 -0.42498369228E+02 -0.18765575819E+02 -0.76854869844E+02  0.89804951099E+02  0.51100000000E-03 0.  1.
<mgrwt>
<rscale>  0 0.96819368E+02</rscale>
<asrwt>0</asrwt>
<pdfrwt beam="1">  1        3 0.27715288E-02 0.96819368E+02</pdfrwt>
<pdfrwt beam="2">  1       -3 0.20013285E-01 0.96819368E+02</pdfrwt>
<totfact> 0.26686959E+04</totfact>
</mgrwt>
</event>
<event>
 5    1  0.7431090E-001  0.9162630E+02  0.7818608E-02  0.1298960E+00
         -3   -1    0    0    0  501 -0.00000000000E+00  0.00000000000E+00  0.18435942195E+03  0.18435944541E+03  0.93000000000E-01 0.  1.
          3   -1    0    0  501    0  0.00000000000E+00 -0.00000000000E+00 -0.11384312987E+02  0.11384692845E+02  0.93000000000E-01 0. -1.
         23    2    1    2    0    0  0.00000000000E+00  0.00000000000E+00  0.17297510897E+03  0.19574413826E+03  0.91626302661E+02 0.  0.
        -11    1    3    3    0    0 -0.35917294944E+01 -0.40438483032E+02  0.41135228238E+02  0.57795141951E+02  0.51100000000E-03 0. -1.
         11    1    3    3    0    0  0.35917294944E+01  0.40438483032E+02  0.13183988073E+03  0.13794899630E+03  0.51100000000E-03 0.  1.
<mgrwt>
<rscale>  0 0.91626303E+02</rscale>
<asrwt>0</asrwt>
<pdfrwt beam="2">  1        3 0.17514638E-02 0.91626303E+02</pdfrwt>
<pdfrwt beam="1">  1       -3 0.28363019E-01 0.91626303E+02</pdfrwt>
<totfact> 0.28339799E+04</totfact>
</mgrwt>
</event>
<event>
 5    1  0.7431090E-001  0.9420556E+02  0.7818608E-02  0.1292975E+00
          3   -1    0    0  501    0  0.00000000000E+00  0.00000000000E+00  0.48727527795E+02  0.48727616543E+02  0.93000000000E-01 0.  1.
         -3   -1    0    0    0  501 -0.00000000000E+00 -0.00000000000E+00 -0.45532027624E+02  0.45532122601E+02  0.93000000000E-01 0. -1.
         23    2    1    2    0    0  0.00000000000E+00  0.00000000000E+00  0.31955001710E+01  0.94259739144E+02  0.94205558234E+02 0.  0.
        -11    1    3    3    0    0  0.51506418602E+01  0.27296356474E+02 -0.36464259722E+02  0.45839529073E+02  0.51100000000E-03 0. -1.
         11    1    3    3    0    0 -0.51506418602E+01 -0.27296356474E+02  0.39659759893E+02  0.48420210071E+02  0.51100000000E-03 0.  1.
<mgrwt>
<rscale>  0 0.94205558E+02</rscale>
<asrwt>0</asrwt>
<pdfrwt beam="1">  1        3 0.74965569E-02 0.94205558E+02</pdfrwt>
<pdfrwt beam="2">  1       -3 0.70049415E-02 0.94205558E+02</pdfrwt>
<totfact> 0.32103376E+04</totfact>
</mgrwt>
</event>
<event>
 5    1  0.7431090E-001  0.9417651E+02  0.7818608E-02  0.1293042E+00
          3   -1    0    0  501    0  0.00000000000E+00  0.00000000000E+00  0.11408052413E+03  0.11408056204E+03  0.93000000000E-01 0. -1.
         -3   -1    0    0    0  501 -0.00000000000E+00 -0.00000000000E+00 -0.19436152693E+02  0.19436375190E+02  0.93000000000E-01 0.  1.
         23    2    1    2    0    0  0.00000000000E+00  0.00000000000E+00  0.94644371438E+02  0.13351693723E+03  0.94176512369E+02 0.  0.
        -11    1    3    3    0    0 -0.30467122972E+02 -0.25604018707E+02  0.11638927572E+02  0.41464153089E+02  0.51100000000E-03 0.  1.
         11    1    3    3    0    0  0.30467122972E+02  0.25604018707E+02  0.83005443866E+02  0.92052784139E+02  0.51100000000E-03 0. -1.
<mgrwt>
<rscale>  0 0.94176512E+02</rscale>
<asrwt>0</asrwt>
<pdfrwt beam="1">  1        3 0.17550870E-01 0.94176512E+02</pdfrwt>
<pdfrwt beam="2">  1       -3 0.29901973E-02 0.94176512E+02</pdfrwt>
<totfact> 0.29618628E+04</totfact>
</mgrwt>
</event>
<event>
 5    1  0.7431090E-001  0.9237686E+02  0.7818608E-02  0.1297196E+00
         -3   -1    0    0    0  501 -0.00000000000E+00  0.00000000000E+00  0.62555077924E+02  0.62555147055E+02  0.93000000000E-01 0.  1.
          3   -1    0    0  501    0  0.00000000000E+00 -0.00000000000E+00 -0.34103731617E+02  0.34103858421E+02  0.93000000000E-01 0. -1.
         23    2    1    2    0    0  0.00000000000E+00  0.00000000000E+00  0.28451346307E+02  0.96659005476E+02  0.92376859835E+02 0.  0.
        -11    1    3    3    0    0  0.29964561172E+02  0.35124229354E+02  0.15623505006E+02  0.48740951189E+02  0.51100000000E-03 0.  1.
         11    1    3    3    0    0 -0.29964561172E+02 -0.35124229354E+02  0.12827841301E+02  0.47918054287E+02  0.51100000000E-03 0. -1.
<mgrwt>
<rscale>  0 0.92376860E+02</rscale>
<asrwt>0</asrwt>
<pdfrwt beam="2">  1        3 0.52467431E-02 0.92376860E+02</pdfrwt>
<pdfrwt beam="1">  1       -3 0.96238731E-02 0.92376860E+02</pdfrwt>
<totfact> 0.33697564E+04</totfact>
</mgrwt>
</event>
<event>
 5    1  0.7431090E-001  0.9057590E+02  0.7818608E-02  0.1301463E+00
          3   -1    0    0  501    0  0.00000000000E+00  0.00000000000E+00  0.37459839518E+02  0.37459954962E+02  0.93000000000E-01 0. -1.
         -3   -1    0    0    0  501 -0.00000000000E+00 -0.00000000000E+00 -0.54751683530E+02  0.54751762514E+02  0.93000000000E-01 0.  1.
         23    2    1    2    0    0  0.00000000000E+00  0.00000000000E+00 -0.17291844012E+02  0.92211717476E+02  0.90575896190E+02 0.  0.
        -11    1    3    3    0    0 -0.18571593106E+02  0.31201099805E+02 -0.36201063353E+02  0.51273089313E+02  0.51100000000E-03 0.  1.
         11    1    3    3    0    0  0.18571593106E+02 -0.31201099805E+02  0.18909219341E+02  0.40938628163E+02  0.51100000000E-03 0. -1.
<mgrwt>
<rscale>  0 0.90575896E+02</rscale>
<asrwt>0</asrwt>
<pdfrwt beam="1">  1        3 0.57630671E-02 0.90575896E+02</pdfrwt>
<pdfrwt beam="2">  1       -3 0.84233509E-02 0.90575896E+02</pdfrwt>
<totfact> 0.35900033E+04</totfact>
</mgrwt>
</event>
<event>
 5    1  0.7431090E-001  0.9136894E+02  0.7818608E-02  0.1299570E+00
          3   -1    0    0  501    0  0.00000000000E+00  0.00000000000E+00  0.33376050000E+02  0.33376179568E+02  0.93000000000E-01 0. -1.
         -3   -1    0    0    0  501 -0.00000000000E+00 -0.00000000000E+00 -0.62531701735E+02  0.62531770892E+02  0.93000000000E-01 0.  1.
         23    2    1    2    0    0  0.00000000000E+00  0.00000000000E+00 -0.29155651736E+02  0.95907950460E+02  0.91368938559E+02 0.  0.
        -11    1    3    3    0    0  0.19531775947E+02  0.20791338048E+02 -0.52033836835E+02  0.59340459937E+02  0.51100000000E-03 0.  1.
         11    1    3    3    0    0 -0.19531775947E+02 -0.20791338048E+02  0.22878185100E+02  0.36567490523E+02  0.51100000000E-03 0. -1.
<mgrwt>
<rscale>  0 0.91368939E+02</rscale>
<asrwt>0</asrwt>
<pdfrwt beam="1">  1        3 0.51347922E-02 0.91368939E+02</pdfrwt>
<pdfrwt beam="2">  1       -3 0.96202770E-02 0.91368939E+02</pdfrwt>
<totfact> 0.34778238E+04</totfact>
</mgrwt>
</event>
<event>
 5    1  0.7431090E-001  0.9052184E+02  0.7818608E-02  0.1301593E+00
         -3   -1    0    0    0  501 -0.00000000000E+00  0.00000000000E+00  0.18646325847E+02  0.18646557768E+02  0.93000000000E-01 0.  1.
          3   -1    0    0  501    0  0.00000000000E+00 -0.00000000000E+00 -0.10986257973E+03  0.10986261910E+03  0.93000000000E-01 0. -1.
         23    2    1    2    0    0  0.00000000000E+00  0.00000000000E+00 -0.91216253885E+02  0.12850917686E+03  0.90521840266E+02 0.  0.
        -11    1    3    3    0    0 -0.18291690231E+02  0.80518657643E+01  0.12043096997E+02  0.23333552222E+02  0.51100000000E-03 0.  1.
         11    1    3    3    0    0  0.18291690231E+02 -0.80518657643E+01 -0.10325935088E+03  0.10517562464E+03  0.51100000000E-03 0. -1.
<mgrwt>
<rscale>  0 0.90521840E+02</rscale>
<asrwt>0</asrwt>
<pdfrwt beam="2">  1        3 0.16901956E-01 0.90521840E+02</pdfrwt>
<pdfrwt beam="1">  1       -3 0.28686864E-02 0.90521840E+02</pdfrwt>
<totfact> 0.33318731E+04</totfact>
</mgrwt>
</event>
<event>
 5    1  0.7431090E-001  0.9090863E+02  0.7818608E-02  0.1300666E+00
          3   -1    0    0  501    0  0.00000000000E+00  0.00000000000E+00  0.33458280052E+02  0.33458409302E+02  0.93000000000E-01 0. -1.
         -3   -1    0    0    0  501 -0.00000000000E+00 -0.00000000000E+00 -0.61751094160E+02  0.61751164191E+02  0.93000000000E-01 0.  1.
         23    2    1    2    0    0  0.00000000000E+00  0.00000000000E+00 -0.28292814108E+02  0.95209573493E+02  0.90908633004E+02 0.  0.
        -11    1    3    3    0    0 -0.11306201911E+02 -0.27311052979E+02 -0.50310802369E+02  0.58351526559E+02  0.51100000000E-03 0.  1.
         11    1    3    3    0    0  0.11306201911E+02  0.27311052979E+02  0.22017988261E+02  0.36858046935E+02  0.51100000000E-03 0. -1.
<mgrwt>
<rscale>  0 0.90908633E+02</rscale>
<asrwt>0</asrwt>
<pdfrwt beam="1">  1        3 0.51474430E-02 0.90908633E+02</pdfrwt>
<pdfrwt beam="2">  1       -3 0.95001837E-02 0.90908633E+02</pdfrwt>
<totfact> 0.35313506E+04</totfact>
</mgrwt>
</event>
<event>
 4    1  0.7431090E-001  0.1650811E+03  0.7818608E-02  0.1183077E+00
         -3   -1    0    0    0  501 -0.00000000000E+00  0.00000000000E+00  0.72100942095E+02  0.72101002073E+02  0.93000000000E-01 0.  1.
          3   -1    0    0  501    0  0.00000000000E+00 -0.00000000000E+00 -0.94491615169E+02  0.94491660935E+02  0.93000000000E-01 0. -1.
        -11    1    1    2    0    0 -0.21466948489E+01 -0.61470420015E+02  0.44351574182E+02  0.75830620255E+02  0.51100000000E-03 0.  1.
         11    1    1    2    0    0  0.21466948489E+01  0.61470420015E+02 -0.66742247257E+02  0.90762042753E+02  0.51100000000E-03 0. -1.
<mgrwt>
<rscale>  0 0.16508111E+03</rscale>
<asrwt>0</asrwt>
<pdfrwt beam="2">  1        3 0.14537180E-01 0.16508111E+03</pdfrwt>
<pdfrwt beam="1">  1       -3 0.11092461E-01 0.16508111E+03</pdfrwt>
<totfact> 0.57326419E+03</totfact>
</mgrwt>
</event>
<event>
 5    1  0.7431090E-001  0.1005294E+03  0.7818608E-02  0.1279187E+00
         -3   -1    0    0    0  501 -0.00000000000E+00  0.00000000000E+00  0.96669089710E+02  0.96669134445E+02  0.93000000000E-01 0.  1.
          3   -1    0    0  501    0  0.00000000000E+00 -0.00000000000E+00 -0.26135837892E+02  0.26136003354E+02  0.93000000000E-01 0. -1.
         23    2    1    2    0    0  0.00000000000E+00  0.00000000000E+00  0.70533251817E+02  0.12280513780E+03  0.10052940992E+03 0.  0.
        -11    1    3    3    0    0 -0.77629193589E+01  0.15186905549E+02  0.93026189950E+02  0.94576831381E+02  0.51100000000E-03 0.  1.
         11    1    3    3    0    0  0.77629193589E+01 -0.15186905549E+02 -0.22492938133E+02  0.28228306418E+02  0.51100000000E-03 0. -1.
<mgrwt>
<rscale>  0 0.10052941E+03</rscale>
<asrwt>0</asrwt>
<pdfrwt beam="2">  1        3 0.40209143E-02 0.10052941E+03</pdfrwt>
<pdfrwt beam="1">  1       -3 0.14872184E-01 0.10052941E+03</pdfrwt>
<totfact> 0.25312050E+04</totfact>
</mgrwt>
</event>
<event>
 5    1  0.7431090E-001  0.8920320E+02  0.7818608E-02  0.1304793E+00
         -3   -1    0    0    0  501 -0.00000000000E+00  0.00000000000E+00  0.68849302342E+02  0.68849365153E+02  0.93000000000E-01 0.  1.
          3   -1    0    0  501    0  0.00000000000E+00 -0.00000000000E+00 -0.28893429879E+02  0.28893579549E+02  0.93000000000E-01 0. -1.
         23    2    1    2    0    0  0.00000000000E+00  0.00000000000E+00  0.39955872463E+02  0.97742944702E+02  0.89203203388E+02 0.  0.
        -11    1    3    3    0    0  0.77878979682E+00 -0.15343946663E+02  0.65858430566E+02  0.67626740936E+02  0.51100000000E-03 0.  1.
         11    1    3    3    0    0 -0.77878979682E+00  0.15343946663E+02 -0.25902558103E+02  0.30116203766E+02  0.51100000000E-03 0. -1.
<mgrwt>
<rscale>  0 0.89203203E+02</rscale>
<asrwt>0</asrwt>
<pdfrwt beam="2">  1        3 0.44451595E-02 0.89203203E+02</pdfrwt>
<pdfrwt beam="1">  1       -3 0.10592216E-01 0.89203203E+02</pdfrwt>
<totfact> 0.36973380E+04</totfact>
</mgrwt>
</event>
<event>
 5    1  0.7431090E-001  0.9051202E+02  0.7818608E-02  0.1301616E+00
         -3   -1    0    0    0  501 -0.00000000000E+00  0.00000000000E+00  0.74159370641E+01  0.74165201772E+01  0.93000000000E-01 0.  1.
          3   -1    0    0  501    0  0.00000000000E+00 -0.00000000000E+00 -0.27616492822E+03  0.27616494388E+03  0.93000000000E-01 0. -1.
         23    2    1    2    0    0  0.00000000000E+00  0.00000000000E+00 -0.26874899115E+03  0.28358146405E+03  0.90512024113E+02 0.  0.
        -11    1    3    3    0    0 -0.20108237303E+02 -0.38933239851E+02 -0.98932131222E+02  0.10820214860E+03  0.51100000000E-03 0. -1.
         11    1    3    3    0    0  0.20108237303E+02  0.38933239851E+02 -0.16981685993E+03  0.17537931546E+03  0.51100000000E-03 0.  1.
<mgrwt>
<rscale>  0 0.90512024E+02</rscale>
<asrwt>0</asrwt>
<pdfrwt beam="2">  1        3 0.42486950E-01 0.90512024E+02</pdfrwt>
<pdfrwt beam="1">  1       -3 0.11409597E-02 0.90512024E+02</pdfrwt>
<totfact> 0.25169904E+04</totfact>
</mgrwt>
</event>
<event>
 5    1  0.7431090E-001  0.9450019E+02  0.7818608E-02  0.1292306E+00
         -3   -1    0    0    0  501 -0.00000000000E+00  0.00000000000E+00  0.21231500402E+02  0.21231704084E+02  0.93000000000E-01 0.  1.
          3   -1    0    0  501    0  0.00000000000E+00 -0.00000000000E+00 -0.10515299470E+03  0.10515303583E+03  0.93000000000E-01 0. -1.
         23    2    1    2    0    0  0.00000000000E+00  0.00000000000E+00 -0.83921494302E+02  0.12638473991E+03  0.94500186651E+02 0.  0.
        -11    1    3    3    0    0  0.38505070161E+02  0.41256759984E+01 -0.57541921679E+01  0.39150636755E+02  0.51100000000E-03 0.  1.
         11    1    3    3    0    0 -0.38505070161E+02 -0.41256759984E+01 -0.78167302134E+02  0.87234103158E+02  0.51100000000E-03 0. -1.
<mgrwt>
<rscale>  0 0.94500187E+02</rscale>
<asrwt>0</asrwt>
<pdfrwt beam="2">  1        3 0.16177402E-01 0.94500187E+02</pdfrwt>
<pdfrwt beam="1">  1       -3 0.32664036E-02 0.94500187E+02</pdfrwt>
<totfact> 0.29766143E+04</totfact>
</mgrwt>
</event>
<event>
 5    1  0.7431090E-001  0.8651375E+02  0.7818608E-02  0.1311521E+00
          3   -1    0    0  501    0  0.00000000000E+00  0.00000000000E+00  0.50569341344E+02  0.50569426861E+02  0.93000000000E-01 0. -1.
         -3   -1    0    0    0  501 -0.00000000000E+00 -0.00000000000E+00 -0.37001632244E+02  0.37001749117E+02  0.93000000000E-01 0.  1.
         23    2    1    2    0    0  0.00000000000E+00  0.00000000000E+00  0.13567709100E+02  0.87571175978E+02  0.86513745335E+02 0.  0.
        -11    1    3    3    0    0 -0.34373829435E+02 -0.21879872598E+02 -0.79149314477E+01  0.41508253577E+02  0.51100000000E-03 0.  1.
         11    1    3    3    0    0  0.34373829435E+02  0.21879872598E+02  0.21482640548E+02  0.46062922401E+02  0.51100000000E-03 0. -1.
<mgrwt>
<rscale>  0 0.86513745E+02</rscale>
<asrwt>0</asrwt>
<pdfrwt beam="1">  1        3 0.77799142E-02 0.86513745E+02</pdfrwt>
<pdfrwt beam="2">  1       -3 0.56925744E-02 0.86513745E+02</pdfrwt>
<totfact> 0.41071041E+04</totfact>
</mgrwt>
</event>
<event>
 5    1  0.7431090E-001  0.9140312E+02  0.7818608E-02  0.1299489E+00
         -3   -1    0    0    0  501 -0.00000000000E+00  0.00000000000E+00  0.17807926913E+03  0.17807929341E+03  0.93000000000E-01 0.  1.
          3   -1    0    0  501    0  0.00000000000E+00 -0.00000000000E+00 -0.11728459556E+02  0.11728828269E+02  0.93000000000E-01 0. -1.
         23    2    1    2    0    0  0.00000000000E+00  0.00000000000E+00  0.16635080957E+03  0.18980812168E+03  0.91403124733E+02 0.  0.
        -11    1    3    3    0    0 -0.29754699388E+02  0.34599924739E+02  0.78031510955E+02  0.90395871752E+02  0.51100000000E-03 0. -1.
         11    1    3    3    0    0  0.29754699388E+02 -0.34599924739E+02  0.88319298617E+02  0.99412249929E+02  0.51100000000E-03 0.  1.
<mgrwt>
<rscale>  0 0.91403125E+02</rscale>
<asrwt>0</asrwt>
<pdfrwt beam="2">  1        3 0.18044087E-02 0.91403125E+02</pdfrwt>
<pdfrwt beam="1">  1       -3 0.27396840E-01 0.91403125E+02</pdfrwt>
<totfact> 0.28839588E+04</totfact>
</mgrwt>
</event>
<event>
 5    1  0.7431090E-001  0.9104493E+02  0.7818608E-02  0.1300341E+00
         -3   -1    0    0    0  501 -0.00000000000E+00  0.00000000000E+00  0.13460110281E+02  0.13460431559E+02  0.93000000000E-01 0.  1.
          3   -1    0    0  501    0  0.00000000000E+00 -0.00000000000E+00 -0.15395606580E+03  0.15395609389E+03  0.93000000000E-01 0. -1.
         23    2    1    2    0    0  0.00000000000E+00  0.00000000000E+00 -0.14049595552E+03  0.16741652545E+03  0.91044931085E+02 0.  0.
        -11    1    3    3    0    0  0.36216385604E+02  0.20015850711E+02 -0.10513904971E+03  0.11298885184E+03  0.51100000000E-03 0. -1.
         11    1    3    3    0    0 -0.36216385604E+02 -0.20015850711E+02 -0.35356905812E+02  0.54427673612E+02  0.51100000000E-03 0.  1.
<mgrwt>
<rscale>  0 0.91044931E+02</rscale>
<asrwt>0</asrwt>
<pdfrwt beam="2">  1        3 0.23685574E-01 0.91044931E+02</pdfrwt>
<pdfrwt beam="1">  1       -3 0.20708132E-02 0.91044931E+02</pdfrwt>
<totfact> 0.30393315E+04</totfact>
</mgrwt>
</event>
<event>
 5    1  0.7431090E-001  0.8702122E+02  0.7818608E-02  0.1310230E+00
         -3   -1    0    0    0  501 -0.00000000000E+00  0.00000000000E+00  0.46188819849E+02  0.46188913475E+02  0.93000000000E-01 0. -1.
          3   -1    0    0  501    0  0.00000000000E+00 -0.00000000000E+00 -0.40987509633E+02  0.40987615141E+02  0.93000000000E-01 0.  1.
         23    2    1    2    0    0  0.00000000000E+00  0.00000000000E+00  0.52013102157E+01  0.87176528616E+02  0.87021224500E+02 0.  0.
        -11    1    3    3    0    0 -0.27385655132E+02  0.13403937535E+02  0.33696892451E+02  0.45443593713E+02  0.51100000000E-03 0. -1.
         11    1    3    3    0    0  0.27385655132E+02 -0.13403937535E+02 -0.28495582235E+02  0.41732934903E+02  0.51100000000E-03 0.  1.
<mgrwt>
<rscale>  0 0.87021225E+02</rscale>
<asrwt>0</asrwt>
<pdfrwt beam="2">  1        3 0.63057860E-02 0.87021225E+02</pdfrwt>
<pdfrwt beam="1">  1       -3 0.71059876E-02 0.87021225E+02</pdfrwt>
<totfact> 0.40462199E+04</totfact>
</mgrwt>
</event>
<event>
 5    1  0.7431090E-001  0.9377178E+02  0.7818608E-02  0.1293967E+00
         -3   -1    0    0    0  501 -0.00000000000E+00  0.00000000000E+00  0.43123081301E+02  0.43123181584E+02  0.93000000000E-01 0.  1.
          3   -1    0    0  501    0  0.00000000000E+00 -0.00000000000E+00 -0.50976829179E+02  0.50976914011E+02  0.93000000000E-01 0. -1.
         23    2    1    2    0    0  0.00000000000E+00  0.00000000000E+00 -0.78537478771E+01  0.94100095595E+02  0.93771779525E+02 0.  0.
        -11    1    3    3    0    0  0.23008218497E+02 -0.23422502836E+02 -0.37514869452E+02  0.49853356836E+02  0.51100000000E-03 0. -1.
         11    1    3    3    0    0 -0.23008218497E+02  0.23422502836E+02  0.29661121575E+02  0.44246738760E+02  0.51100000000E-03 0.  1.
<mgrwt>
<rscale>  0 0.93771780E+02</rscale>
<asrwt>0</asrwt>
<pdfrwt beam="2">  1        3 0.78426033E-02 0.93771780E+02</pdfrwt>
<pdfrwt beam="1">  1       -3 0.66343344E-02 0.93771780E+02</pdfrwt>
<totfact> 0.32522888E+04</totfact>
</mgrwt>
</event>
<event>
 5    1  0.7431090E-001  0.9039108E+02  0.7818608E-02  0.1301907E+00
          3   -1    0    0  501    0  0.00000000000E+00  0.00000000000E+00  0.78928268927E+01  0.78933747763E+01  0.93000000000E-01 0. -1.
         -3   -1    0    0    0  501 -0.00000000000E+00 -0.00000000000E+00 -0.25878708461E+03  0.25878710132E+03  0.93000000000E-01 0.  1.
         23    2    1    2    0    0  0.00000000000E+00  0.00000000000E+00 -0.25089425772E+03  0.26668047610E+03  0.90391082391E+02 0.  0.
        -11    1    3    3    0    0  0.29058907191E+02 -0.28170860683E+02 -0.18479279657E+03  0.18917292392E+03  0.51100000000E-03 0.  1.
         11    1    3    3    0    0 -0.29058907191E+02  0.28170860683E+02 -0.66101461141E+02  0.77507552174E+02  0.51100000000E-03 0. -1.
<mgrwt>
<rscale>  0 0.90391082E+02</rscale>
<asrwt>0</asrwt>
<pdfrwt beam="1">  1        3 0.12143247E-02 0.90391082E+02</pdfrwt>
<pdfrwt beam="2">  1       -3 0.39813435E-01 0.90391082E+02</pdfrwt>
<totfact> 0.25971258E+04</totfact>
</mgrwt>
</event>
<event>
 5    1  0.7431090E-001  0.9235094E+02  0.7818608E-02  0.1297256E+00
          3   -1    0    0  501    0  0.00000000000E+00  0.00000000000E+00  0.21799997406E+02  0.21800195777E+02  0.93000000000E-01 0. -1.
         -3   -1    0    0    0  501 -0.00000000000E+00 -0.00000000000E+00 -0.97805503139E+02  0.97805547355E+02  0.93000000000E-01 0.  1.
         23    2    1    2    0    0  0.00000000000E+00  0.00000000000E+00 -0.76005505733E+02  0.11960574313E+03  0.92350944166E+02 0.  0.
        -11    1    3    3    0    0  0.12758762164E+02 -0.11845609648E+02 -0.93392046475E+02  0.95000941179E+02  0.51100000000E-03 0.  1.
         11    1    3    3    0    0 -0.12758762164E+02  0.11845609648E+02  0.17386540742E+02  0.24604801953E+02  0.51100000000E-03 0. -1.
<mgrwt>
<rscale>  0 0.92350944E+02</rscale>
<asrwt>0</asrwt>
<pdfrwt beam="1">  1        3 0.33538645E-02 0.92350944E+02</pdfrwt>
<pdfrwt beam="2">  1       -3 0.15047019E-01 0.92350944E+02</pdfrwt>
<totfact> 0.32135847E+04</totfact>
</mgrwt>
</event>
<event>
 5    1  0.7431090E-001  0.9431883E+02  0.7818608E-02  0.1292718E+00
          3   -1    0    0  501    0  0.00000000000E+00  0.00000000000E+00  0.25401047329E+02  0.25401217578E+02  0.93000000000E-01 0. -1.
         -3   -1    0    0    0  501 -0.00000000000E+00 -0.00000000000E+00 -0.87555367012E+02  0.87555416404E+02  0.93000000000E-01 0.  1.
         23    2    1    2    0    0  0.00000000000E+00  0.00000000000E+00 -0.62154319683E+02  0.11295663398E+03  0.94318830067E+02 0.  0.
        -11    1    3    3    0    0 -0.25270532715E+02  0.39071820983E+02 -0.21893525504E+02  0.51425027739E+02  0.51100000000E-03 0. -1.
         11    1    3    3    0    0  0.25270532715E+02 -0.39071820983E+02 -0.40260794179E+02  0.61531606243E+02  0.51100000000E-03 0.  1.
<mgrwt>
<rscale>  0 0.94318830E+02</rscale>
<asrwt>0</asrwt>
<pdfrwt beam="1">  1        3 0.39078704E-02 0.94318830E+02</pdfrwt>
<pdfrwt beam="2">  1       -3 0.13470073E-01 0.94318830E+02</pdfrwt>
<totfact> 0.30759443E+04</totfact>
</mgrwt>
</event>
<event>
 5    1  0.7431090E-001  0.8969568E+02  0.7818608E-02  0.1303590E+00
          3   -1    0    0  501    0  0.00000000000E+00  0.00000000000E+00  0.19096280999E+02  0.19096507456E+02  0.93000000000E-01 0. -1.
         -3   -1    0    0    0  501 -0.00000000000E+00 -0.00000000000E+00 -0.10532481675E+03  0.10532485781E+03  0.93000000000E-01 0.  1.
         23    2    1    2    0    0  0.00000000000E+00  0.00000000000E+00 -0.86228535752E+02  0.12442136527E+03  0.89695684158E+02 0.  0.
        -11    1    3    3    0    0 -0.21336668620E+02 -0.19273256311E+02  0.46290300160E+01  0.29122839075E+02  0.51100000000E-03 0. -1.
         11    1    3    3    0    0  0.21336668620E+02  0.19273256311E+02 -0.90857565768E+02  0.95298526191E+02  0.51100000000E-03 0.  1.
<mgrwt>
<rscale>  0 0.89695684E+02</rscale>
<asrwt>0</asrwt>
<pdfrwt beam="1">  1        3 0.29379100E-02 0.89695684E+02</pdfrwt>
<pdfrwt beam="2">  1       -3 0.16203838E-01 0.89695684E+02</pdfrwt>
<totfact> 0.34442804E+04</totfact>
</mgrwt>
</event>
<event>
 5    1  0.7431090E-001  0.9332071E+02  0.7818608E-02  0.1295004E+00
          3   -1    0    0  501    0  0.00000000000E+00  0.00000000000E+00  0.14771727689E+03  0.14771730617E+03  0.93000000000E-01 0. -1.
         -3   -1    0    0    0  501 -0.00000000000E+00 -0.00000000000E+00 -0.14738714081E+02  0.14739007489E+02  0.93000000000E-01 0.  1.
         23    2    1    2    0    0  0.00000000000E+00  0.00000000000E+00  0.13297856281E+03  0.16245631366E+03  0.93320714097E+02 0.  0.
        -11    1    3    3    0    0 -0.61860929232E+01 -0.38291208830E+02  0.11164062802E+03  0.11818677695E+03  0.51100000000E-03 0. -1.
         11    1    3    3    0    0  0.61860929232E+01  0.38291208830E+02  0.21337934789E+02  0.44269536711E+02  0.51100000000E-03 0.  1.
<mgrwt>
<rscale>  0 0.93320714E+02</rscale>
<asrwt>0</asrwt>
<pdfrwt beam="1">  1        3 0.22725759E-01 0.93320714E+02</pdfrwt>
<pdfrwt beam="2">  1       -3 0.22675194E-02 0.93320714E+02</pdfrwt>
<totfact> 0.28694342E+04</totfact>
</mgrwt>
</event>
<event>
 5    1  0.7431090E-001  0.9434577E+02  0.7818608E-02  0.1292656E+00
          3   -1    0    0  501    0  0.00000000000E+00  0.00000000000E+00  0.10877847383E+02  0.10878244927E+02  0.93000000000E-01 0. -1.
         -3   -1    0    0    0  501 -0.00000000000E+00 -0.00000000000E+00 -0.20456583743E+03  0.20456585857E+03  0.93000000000E-01 0.  1.
         23    2    1    2    0    0  0.00000000000E+00  0.00000000000E+00 -0.19368799004E+03  0.21544410349E+03  0.94345769609E+02 0.  0.
        -11    1    3    3    0    0  0.29905270364E+02 -0.47227054096E+00 -0.18014641456E+03  0.18261237338E+03  0.51100000000E-03 0.  1.
         11    1    3    3    0    0 -0.29905270364E+02  0.47227054096E+00 -0.13541575485E+02  0.32831730108E+02  0.51100000000E-03 0. -1.
<mgrwt>
<rscale>  0 0.94345770E+02</rscale>
<asrwt>0</asrwt>
<pdfrwt beam="1">  1        3 0.16735473E-02 0.94345770E+02</pdfrwt>
<pdfrwt beam="2">  1       -3 0.31471697E-01 0.94345770E+02</pdfrwt>
<totfact> 0.25270936E+04</totfact>
</mgrwt>
</event>
<event>
 5    1  0.7431090E-001  0.9183096E+02  0.7818608E-02  0.1298477E+00
          3   -1    0    0  501    0  0.00000000000E+00  0.00000000000E+00  0.16364775426E+02  0.16365039681E+02  0.93000000000E-01 0. -1.
         -3   -1    0    0    0  501 -0.00000000000E+00 -0.00000000000E+00 -0.12882608001E+03  0.12882611357E+03  0.93000000000E-01 0.  1.
         23    2    1    2    0    0  0.00000000000E+00  0.00000000000E+00 -0.11246130458E+03  0.14519115326E+03  0.91830964036E+02 0.  0.
        -11    1    3    3    0    0  0.78014285374E+01  0.44224664766E+02 -0.41102845048E+02  0.60877969186E+02  0.51100000000E-03 0.  1.
         11    1    3    3    0    0 -0.78014285374E+01 -0.44224664766E+02 -0.71358459532E+02  0.84313184069E+02  0.51100000000E-03 0. -1.
<mgrwt>
<rscale>  0 0.91830964E+02</rscale>
<asrwt>0</asrwt>
<pdfrwt beam="1">  1        3 0.25176808E-02 0.91830964E+02</pdfrwt>
<pdfrwt beam="2">  1       -3 0.19819419E-01 0.91830964E+02</pdfrwt>
<totfact> 0.30997646E+04</totfact>
</mgrwt>
</event>
<event>
 5    1  0.7431090E-001  0.9100494E+02  0.7818608E-02  0.1300436E+00
         -3   -1    0    0    0  501 -0.00000000000E+00  0.00000000000E+00  0.32036326655E+02  0.32036461642E+02  0.93000000000E-01 0.  1.
          3   -1    0    0  501    0  0.00000000000E+00 -0.00000000000E+00 -0.64628660760E+02  0.64628727673E+02  0.93000000000E-01 0. -1.
         23    2    1    2    0    0  0.00000000000E+00  0.00000000000E+00 -0.32592334105E+02  0.96665189315E+02  0.91004937135E+02 0.  0.
        -11    1    3    3    0    0 -0.49124713541E+01  0.14268159306E+02 -0.61893533935E+02  0.63706532538E+02  0.51100000000E-03 0. -1.
         11    1    3    3    0    0  0.49124713541E+01 -0.14268159306E+02  0.29301199830E+02  0.32958656777E+02  0.51100000000E-03 0.  1.
<mgrwt>
<rscale>  0 0.91004937E+02</rscale>
<asrwt>0</asrwt>
<pdfrwt beam="2">  1        3 0.99428863E-02 0.91004937E+02</pdfrwt>
<pdfrwt beam="1">  1       -3 0.49286812E-02 0.91004937E+02</pdfrwt>
<totfact> 0.35100301E+04</totfact>
</mgrwt>
</event>
<event>
 5    1  0.7431090E-001  0.9038410E+02  0.7818608E-02  0.1301924E+00
          3   -1    0    0  501    0  0.00000000000E+00  0.00000000000E+00  0.11876831781E+03  0.11876835423E+03  0.93000000000E-01 0. -1.
         -3   -1    0    0    0  501 -0.00000000000E+00 -0.00000000000E+00 -0.17195679273E+02  0.17195930759E+02  0.93000000000E-01 0.  1.
         23    2    1    2    0    0  0.00000000000E+00  0.00000000000E+00  0.10157263854E+03  0.13596428499E+03  0.90384101983E+02 0.  0.
        -11    1    3    3    0    0 -0.27620603438E+02  0.20909461915E+02  0.94442434943E+02  0.10059561049E+03  0.51100000000E-03 0. -1.
         11    1    3    3    0    0  0.27620603438E+02 -0.20909461915E+02  0.71302035979E+01  0.35368674494E+02  0.51100000000E-03 0.  1.
<mgrwt>
<rscale>  0 0.90384102E+02</rscale>
<asrwt>0</asrwt>
<pdfrwt beam="1">  1        3 0.18272071E-01 0.90384102E+02</pdfrwt>
<pdfrwt beam="2">  1       -3 0.26455112E-02 0.90384102E+02</pdfrwt>
<totfact> 0.32957812E+04</totfact>
</mgrwt>
</event>
<event>
 5    1  0.7431090E-001  0.8898839E+02  0.7818608E-02  0.1305320E+00
          3   -1    0    0  501    0  0.00000000000E+00  0.00000000000E+00  0.21530822588E+02  0.21531023438E+02  0.93000000000E-01 0. -1.
         -3   -1    0    0    0  501 -0.00000000000E+00 -0.00000000000E+00 -0.91948143383E+02  0.91948190415E+02  0.93000000000E-01 0.  1.
         23    2    1    2    0    0  0.00000000000E+00  0.00000000000E+00 -0.70417320796E+02  0.11347921385E+03  0.88988386370E+02 0.  0.
        -11    1    3    3    0    0 -0.10685587465E+02 -0.26853525116E+02  0.79312692027E+01  0.29969961997E+02  0.51100000000E-03 0. -1.
         11    1    3    3    0    0  0.10685587465E+02  0.26853525116E+02 -0.78348589999E+02  0.83509251857E+02  0.51100000000E-03 0.  1.
<mgrwt>
<rscale>  0 0.88988386E+02</rscale>
<asrwt>0</asrwt>
<pdfrwt beam="1">  1        3 0.33124534E-02 0.88988386E+02</pdfrwt>
<pdfrwt beam="2">  1       -3 0.14145887E-01 0.88988386E+02</pdfrwt>
<totfact> 0.35993294E+04</totfact>
</mgrwt>
</event>
<event>
 5    1  0.7431090E-001  0.9222710E+02  0.7818608E-02  0.1297546E+00
         -3   -1    0    0    0  501 -0.00000000000E+00  0.00000000000E+00  0.40050088126E+02  0.40050196103E+02  0.93000000000E-01 0.  1.
          3   -1    0    0  501    0  0.00000000000E+00 -0.00000000000E+00 -0.53094776581E+02  0.53094858029E+02  0.93000000000E-01 0. -1.
         23    2    1    2    0    0  0.00000000000E+00  0.00000000000E+00 -0.13044688454E+02  0.93145054133E+02  0.92227095869E+02 0.  0.
        -11    1    3    3    0    0  0.16970071468E+02  0.53243011213E+01 -0.49491407345E+02  0.52590216860E+02  0.51100000000E-03 0. -1.
         11    1    3    3    0    0 -0.16970071468E+02 -0.53243011213E+01  0.36446718891E+02  0.40554837273E+02  0.51100000000E-03 0.  1.
<mgrwt>
<rscale>  0 0.92227096E+02</rscale>
<asrwt>0</asrwt>
<pdfrwt beam="2">  1        3 0.81684418E-02 0.92227096E+02</pdfrwt>
<pdfrwt beam="1">  1       -3 0.61615666E-02 0.92227096E+02</pdfrwt>
<totfact> 0.34104834E+04</totfact>
</mgrwt>
</event>
<event>
 5    1  0.7431090E-001  0.9284052E+02  0.7818608E-02  0.1296115E+00
          3   -1    0    0  501    0  0.00000000000E+00  0.00000000000E+00  0.62766706746E+02  0.62766775644E+02  0.93000000000E-01 0. -1.
         -3   -1    0    0    0  501 -0.00000000000E+00 -0.00000000000E+00 -0.34330800423E+02  0.34330926389E+02  0.93000000000E-01 0.  1.
         23    2    1    2    0    0  0.00000000000E+00  0.00000000000E+00  0.28435906323E+02  0.97097702032E+02  0.92840524404E+02 0.  0.
        -11    1    3    3    0    0 -0.45795931333E+01 -0.43795068054E+02 -0.11479303778E+01  0.44048818413E+02  0.51100000000E-03 0.  1.
         11    1    3    3    0    0  0.45795931333E+01  0.43795068054E+02  0.29583836701E+02  0.53048883620E+02  0.51100000000E-03 0. -1.
<mgrwt>
<rscale>  0 0.92840524E+02</rscale>
<asrwt>0</asrwt>
<pdfrwt beam="1">  1        3 0.96564314E-02 0.92840524E+02</pdfrwt>
<pdfrwt beam="2">  1       -3 0.52816766E-02 0.92840524E+02</pdfrwt>
<totfact> 0.33207538E+04</totfact>
</mgrwt>
</event>
<event>
 5    1  0.7431090E-001  0.9122657E+02  0.7818608E-02  0.1299908E+00
          3   -1    0    0  501    0  0.00000000000E+00  0.00000000000E+00  0.12406005645E+02  0.12406354222E+02  0.93000000000E-01 0. -1.
         -3   -1    0    0    0  501 -0.00000000000E+00 -0.00000000000E+00 -0.16770410198E+03  0.16770412777E+03  0.93000000000E-01 0.  1.
         23    2    1    2    0    0  0.00000000000E+00  0.00000000000E+00 -0.15529809634E+03  0.18011048199E+03  0.91226569578E+02 0.  0.
        -11    1    3    3    0    0 -0.23259530751E+02 -0.35078913210E+02 -0.42941649928E+02  0.60129204398E+02  0.51100000000E-03 0. -1.
         11    1    3    3    0    0  0.23259530751E+02  0.35078913210E+02 -0.11235644641E+03  0.11998127759E+03  0.51100000000E-03 0.  1.
<mgrwt>
<rscale>  0 0.91226570E+02</rscale>
<asrwt>0</asrwt>
<pdfrwt beam="1">  1        3 0.19086452E-02 0.91226570E+02</pdfrwt>
<pdfrwt beam="2">  1       -3 0.25800658E-01 0.91226570E+02</pdfrwt>
<totfact> 0.29516253E+04</totfact>
</mgrwt>
</event>
<event>
 5    1  0.7431090E-001  0.9217847E+02  0.7818608E-02  0.1297660E+00
         -3   -1    0    0    0  501 -0.00000000000E+00  0.00000000000E+00  0.26488799128E+02  0.26488962386E+02  0.93000000000E-01 0.  1.
          3   -1    0    0  501    0  0.00000000000E+00 -0.00000000000E+00 -0.80192605484E+02  0.80192659411E+02  0.93000000000E-01 0. -1.
         23    2    1    2    0    0  0.00000000000E+00  0.00000000000E+00 -0.53703806356E+02  0.10668162180E+03  0.92178466097E+02 0.  0.
        -11    1    3    3    0    0 -0.29640311781E+02 -0.26024374895E+02  0.74037993457E+00  0.39450783692E+02  0.51100000000E-03 0.  1.
         11    1    3    3    0    0  0.29640311781E+02  0.26024374895E+02 -0.54444186290E+02  0.67230838105E+02  0.51100000000E-03 0. -1.
<mgrwt>
<rscale>  0 0.92178466E+02</rscale>
<asrwt>0</asrwt>
<pdfrwt beam="2">  1        3 0.12337341E-01 0.92178466E+02</pdfrwt>
<pdfrwt beam="1">  1       -3 0.40752166E-02 0.92178466E+02</pdfrwt>
<totfact> 0.33179712E+04</totfact>
</mgrwt>
</event>
<event>
 5    1  0.7431090E-001  0.9375222E+02  0.7818608E-02  0.1294011E+00
          3   -1    0    0  501    0  0.00000000000E+00  0.00000000000E+00  0.51178446370E+02  0.51178530868E+02  0.93000000000E-01 0. -1.
         -3   -1    0    0    0  501 -0.00000000000E+00 -0.00000000000E+00 -0.42935280493E+02  0.42935381214E+02  0.93000000000E-01 0.  1.
         23    2    1    2    0    0  0.00000000000E+00  0.00000000000E+00  0.82431658765E+01  0.94113912082E+02  0.93752219514E+02 0.  0.
        -11    1    3    3    0    0  0.17686333778E+02  0.18506058767E+02  0.43542524689E+02  0.50509722531E+02  0.51100000000E-03 0. -1.
         11    1    3    3    0    0 -0.17686333778E+02 -0.18506058767E+02 -0.35299358813E+02  0.43604189551E+02  0.51100000000E-03 0.  1.
<mgrwt>
<rscale>  0 0.93752220E+02</rscale>
<asrwt>0</asrwt>
<pdfrwt beam="1">  1        3 0.78736213E-02 0.93752220E+02</pdfrwt>
<pdfrwt beam="2">  1       -3 0.66054420E-02 0.93752220E+02</pdfrwt>
<totfact> 0.32540515E+04</totfact>
</mgrwt>
</event>
<event>
 5    1  0.7431090E-001  0.8546710E+02  0.7818608E-02  0.1314216E+00
         -3   -1    0    0    0  501 -0.00000000000E+00  0.00000000000E+00  0.15549677424E+02  0.15549955530E+02  0.93000000000E-01 0. -1.
          3   -1    0    0  501    0  0.00000000000E+00 -0.00000000000E+00 -0.11743878262E+03  0.11743881945E+03  0.93000000000E-01 0.  1.
         23    2    1    2    0    0  0.00000000000E+00  0.00000000000E+00 -0.10188910520E+03  0.13298877498E+03  0.85467096074E+02 0.  0.
        -11    1    3    3    0    0 -0.33849090886E+02  0.48058978958E+01 -0.90837613902E+02  0.97058382987E+02  0.51100000000E-03 0.  1.
         11    1    3    3    0    0  0.33849090886E+02 -0.48058978958E+01 -0.11051491299E+02  0.35930391991E+02  0.51100000000E-03 0. -1.
<mgrwt>
<rscale>  0 0.85467096E+02</rscale>
<asrwt>0</asrwt>
<pdfrwt beam="2">  1        3 0.18067529E-01 0.85467096E+02</pdfrwt>
<pdfrwt beam="1">  1       -3 0.23922824E-02 0.85467096E+02</pdfrwt>
<totfact> 0.38552897E+04</totfact>
</mgrwt>
</event>
<event>
 5    1  0.7431090E-001  0.9043595E+02  0.7818608E-02  0.1301799E+00
          3   -1    0    0  501    0  0.00000000000E+00  0.00000000000E+00  0.72721061790E+02  0.72721121257E+02  0.93000000000E-01 0. -1.
         -3   -1    0    0    0  501 -0.00000000000E+00 -0.00000000000E+00 -0.28116400506E+02  0.28116554313E+02  0.93000000000E-01 0.  1.
         23    2    1    2    0    0  0.00000000000E+00  0.00000000000E+00  0.44604661284E+02  0.10083767557E+03  0.90435949744E+02 0.  0.
        -11    1    3    3    0    0  0.76480218916E+01 -0.32059400080E+02 -0.12215846004E+02  0.35150025124E+02  0.51100000000E-03 0.  1.
         11    1    3    3    0    0 -0.76480218916E+01  0.32059400080E+02  0.56820507288E+02  0.65687650446E+02  0.51100000000E-03 0. -1.
<mgrwt>
<rscale>  0 0.90435950E+02</rscale>
<asrwt>0</asrwt>
<pdfrwt beam="1">  1        3 0.11187872E-01 0.90435950E+02</pdfrwt>
<pdfrwt beam="2">  1       -3 0.43256165E-02 0.90435950E+02</pdfrwt>
<totfact> 0.35384999E+04</totfact>
</mgrwt>
</event>
<event>
 5    1  0.7431090E-001  0.8710620E+02  0.7818608E-02  0.1310015E+00
          3   -1    0    0  501    0  0.00000000000E+00  0.00000000000E+00  0.32885300884E+02  0.32885432387E+02  0.93000000000E-01 0. -1.
         -3   -1    0    0    0  501 -0.00000000000E+00 -0.00000000000E+00 -0.57681191405E+02  0.57681266377E+02  0.93000000000E-01 0.  1.
         23    2    1    2    0    0  0.00000000000E+00  0.00000000000E+00 -0.24795890521E+02  0.90566698764E+02  0.87106203788E+02 0.  0.
        -11    1    3    3    0    0  0.23292885686E+02  0.25917454478E+02 -0.39562494424E+02  0.52720621539E+02  0.51100000000E-03 0.  1.
         11    1    3    3    0    0 -0.23292885686E+02 -0.25917454478E+02  0.14766603903E+02  0.37846077225E+02  0.51100000000E-03 0. -1.
<mgrwt>
<rscale>  0 0.87106204E+02</rscale>
<asrwt>0</asrwt>
<pdfrwt beam="1">  1        3 0.50592929E-02 0.87106204E+02</pdfrwt>
<pdfrwt beam="2">  1       -3 0.88740453E-02 0.87106204E+02</pdfrwt>
<totfact> 0.40055401E+04</totfact>
</mgrwt>
</event>
<event>
 5    1  0.7431090E-001  0.9080338E+02  0.7818608E-02  0.1300918E+00
          3   -1    0    0  501    0  0.00000000000E+00  0.00000000000E+00  0.26840881206E+03  0.26840882817E+03  0.93000000000E-01 0. -1.
         -3   -1    0    0    0  501 -0.00000000000E+00 -0.00000000000E+00 -0.76794546023E+01  0.76800177075E+01  0.93000000000E-01 0.  1.
         23    2    1    2    0    0  0.00000000000E+00  0.00000000000E+00  0.26072935746E+03  0.27608884588E+03  0.90803375370E+02 0.  0.
        -11    1    3    3    0    0 -0.44751393945E+01 -0.36264772906E+02  0.21229804953E+03  0.21541964270E+03  0.51100000000E-03 0.  1.
         11    1    3    3    0    0  0.44751393945E+01  0.36264772906E+02  0.48431307928E+02  0.60669203180E+02  0.51100000000E-03 0. -1.
<mgrwt>
<rscale>  0 0.90803375E+02</rscale>
<asrwt>0</asrwt>
<pdfrwt beam="1">  1        3 0.41293703E-01 0.90803375E+02</pdfrwt>
<pdfrwt beam="2">  1       -3 0.11814993E-02 0.90803375E+02</pdfrwt>
<totfact> 0.25263688E+04</totfact>
</mgrwt>
</event>
<event>
 5    1  0.7431090E-001  0.9130830E+02  0.7818608E-02  0.1299714E+00
          3   -1    0    0  501    0  0.00000000000E+00  0.00000000000E+00  0.43990356334E+03  0.43990357317E+03  0.93000000000E-01 0. -1.
         -3   -1    0    0    0  501 -0.00000000000E+00 -0.00000000000E+00 -0.47376209840E+01  0.47385336960E+01  0.93000000000E-01 0.  1.
         23    2    1    2    0    0  0.00000000000E+00  0.00000000000E+00  0.43516594236E+03  0.44464210687E+03  0.91308300894E+02 0.  0.
        -11    1    3    3    0    0 -0.36800020928E+02 -0.26499794268E+02  0.19189763469E+03  0.19718312006E+03  0.51100000000E-03 0.  1.
         11    1    3    3    0    0  0.36800020928E+02  0.26499794268E+02  0.24326830767E+03  0.24745898681E+03  0.51100000000E-03 0. -1.
<mgrwt>
<rscale>  0 0.91308301E+02</rscale>
<asrwt>0</asrwt>
<pdfrwt beam="1">  1        3 0.67677555E-01 0.91308301E+02</pdfrwt>
<pdfrwt beam="2">  1       -3 0.72893559E-03 0.91308301E+02</pdfrwt>
<totfact> 0.19259621E+04</totfact>
</mgrwt>
</event>
<event>
 5    1  0.7431090E-001  0.9119259E+02  0.7818608E-02  0.1299989E+00
          3   -1    0    0  501    0  0.00000000000E+00  0.00000000000E+00  0.59991034243E+02  0.59991106329E+02  0.93000000000E-01 0. -1.
         -3   -1    0    0    0  501 -0.00000000000E+00 -0.00000000000E+00 -0.34655388525E+02  0.34655513311E+02  0.93000000000E-01 0.  1.
         23    2    1    2    0    0  0.00000000000E+00  0.00000000000E+00  0.25335645718E+02  0.94646619640E+02  0.91192585583E+02 0.  0.
        -11    1    3    3    0    0  0.24537651680E+02 -0.42825262183E+00 -0.27216104431E+02  0.36646911069E+02  0.51100000000E-03 0.  1.
         11    1    3    3    0    0 -0.24537651680E+02  0.42825262183E+00  0.52551750149E+02  0.57999708571E+02  0.51100000000E-03 0. -1.
<mgrwt>
<rscale>  0 0.91192586E+02</rscale>
<asrwt>0</asrwt>
<pdfrwt beam="1">  1        3 0.92294049E-02 0.91192586E+02</pdfrwt>
<pdfrwt beam="2">  1       -3 0.53316135E-02 0.91192586E+02</pdfrwt>
<totfact> 0.35056782E+04</totfact>
</mgrwt>
</event>
<event>
 5    1  0.7431090E-001  0.9168110E+02  0.7818608E-02  0.1298831E+00
          3   -1    0    0  501    0  0.00000000000E+00  0.00000000000E+00  0.11768317243E+03  0.11768320918E+03  0.93000000000E-01 0. -1.
         -3   -1    0    0    0  501 -0.00000000000E+00 -0.00000000000E+00 -0.17855884802E+02  0.17856126990E+02  0.93000000000E-01 0.  1.
         23    2    1    2    0    0  0.00000000000E+00  0.00000000000E+00  0.99827287628E+02  0.13553933617E+03  0.91681101070E+02 0.  0.
        -11    1    3    3    0    0  0.37466857041E+01  0.26243674483E+02 -0.53742986264E+01  0.27049051557E+02  0.51100000000E-03 0.  1.
         11    1    3    3    0    0 -0.37466857041E+01 -0.26243674483E+02  0.10520158625E+03  0.10849028461E+03  0.51100000000E-03 0. -1.
<mgrwt>
<rscale>  0 0.91681101E+02</rscale>
<asrwt>0</asrwt>
<pdfrwt beam="1">  1        3 0.18105125E-01 0.91681101E+02</pdfrwt>
<pdfrwt beam="2">  1       -3 0.27470807E-02 0.91681101E+02</pdfrwt>
<totfact> 0.31736143E+04</totfact>
</mgrwt>
</event>
<event>
 5    1  0.7431090E-001  0.1012511E+03  0.7818608E-02  0.1277687E+00
          3   -1    0    0  501    0  0.00000000000E+00  0.00000000000E+00  0.17230704114E+02  0.17230955089E+02  0.93000000000E-01 0. -1.
         -3   -1    0    0    0  501 -0.00000000000E+00 -0.00000000000E+00 -0.14874162291E+03  0.14874165199E+03  0.93000000000E-01 0.  1.
         23    2    1    2    0    0  0.00000000000E+00  0.00000000000E+00 -0.13151091880E+03  0.16597260708E+03  0.10125109647E+03 0.  0.
        -11    1    3    3    0    0  0.45149051244E+01  0.45721944765E+02 -0.10060823569E+03  0.11060243076E+03  0.51100000000E-03 0.  1.
         11    1    3    3    0    0 -0.45149051244E+01 -0.45721944765E+02 -0.30902683107E+02  0.55370176312E+02  0.51100000000E-03 0. -1.
<mgrwt>
<rscale>  0 0.10125110E+03</rscale>
<asrwt>0</asrwt>
<pdfrwt beam="1">  1        3 0.26508992E-02 0.10125110E+03</pdfrwt>
<pdfrwt beam="2">  1       -3 0.22883347E-01 0.10125110E+03</pdfrwt>
<totfact> 0.22818112E+04</totfact>
</mgrwt>
</event>
<event>
 5    1  0.7431090E-001  0.9082971E+02  0.7818608E-02  0.1300855E+00
         -3   -1    0    0    0  501 -0.00000000000E+00  0.00000000000E+00  0.24765005545E+03  0.24765007292E+03  0.93000000000E-01 0.  1.
          3   -1    0    0  501    0  0.00000000000E+00 -0.00000000000E+00 -0.83280426560E+01  0.83285619095E+01  0.93000000000E-01 0. -1.
         23    2    1    2    0    0  0.00000000000E+00  0.00000000000E+00  0.23932201280E+03  0.25597863483E+03  0.90829707021E+02 0.  0.
        -11    1    3    3    0    0 -0.39806973361E+02  0.12184723458E+02  0.68508357782E+02  0.80165190078E+02  0.51100000000E-03 0. -1.
         11    1    3    3    0    0  0.39806973361E+02 -0.12184723458E+02  0.17081365502E+03  0.17581344475E+03  0.51100000000E-03 0.  1.
<mgrwt>
<rscale>  0 0.90829707E+02</rscale>
<asrwt>0</asrwt>
<pdfrwt beam="2">  1        3 0.12812787E-02 0.90829707E+02</pdfrwt>
<pdfrwt beam="1">  1       -3 0.38100047E-01 0.90829707E+02</pdfrwt>
<totfact> 0.26102085E+04</totfact>
</mgrwt>
</event>
<event>
 5    1  0.7431090E-001  0.9176818E+02  0.7818608E-02  0.1298625E+00
         -3   -1    0    0    0  501 -0.00000000000E+00  0.00000000000E+00  0.24119197469E+02  0.24119376766E+02  0.93000000000E-01 0.  1.
          3   -1    0    0  501    0  0.00000000000E+00 -0.00000000000E+00 -0.87288851061E+02  0.87288900604E+02  0.93000000000E-01 0. -1.
         23    2    1    2    0    0  0.00000000000E+00  0.00000000000E+00 -0.63169653592E+02  0.11140827737E+03  0.91768181476E+02 0.  0.
        -11    1    3    3    0    0  0.17456294407E+01 -0.40588024035E+02 -0.56913482459E+01  0.41022266665E+02  0.51100000000E-03 0.  1.
         11    1    3    3    0    0 -0.17456294407E+01  0.40588024035E+02 -0.57478305346E+02  0.70386010705E+02  0.51100000000E-03 0. -1.
<mgrwt>
<rscale>  0 0.91768181E+02</rscale>
<asrwt>0</asrwt>
<pdfrwt beam="2">  1        3 0.13429071E-01 0.91768181E+02</pdfrwt>
<pdfrwt beam="1">  1       -3 0.37106634E-02 0.91768181E+02</pdfrwt>
<totfact> 0.33253911E+04</totfact>
</mgrwt>
</event>
<event>
 5    1  0.7431090E-001  0.9245630E+02  0.7818608E-02  0.1297010E+00
          3   -1    0    0  501    0  0.00000000000E+00  0.00000000000E+00  0.71351209405E+02  0.71351270014E+02  0.93000000000E-01 0. -1.
         -3   -1    0    0    0  501 -0.00000000000E+00 -0.00000000000E+00 -0.29950881668E+02  0.29951026054E+02  0.93000000000E-01 0.  1.
         23    2    1    2    0    0  0.00000000000E+00  0.00000000000E+00  0.41400327737E+02  0.10130229607E+03  0.92456303473E+02 0.  0.
        -11    1    3    3    0    0 -0.31607509203E+02  0.61042582355E+01 -0.15651659880E+02  0.35794846890E+02  0.51100000000E-03 0. -1.
         11    1    3    3    0    0  0.31607509203E+02 -0.61042582355E+01  0.57051987617E+02  0.65507449179E+02  0.51100000000E-03 0.  1.
<mgrwt>
<rscale>  0 0.92456303E+02</rscale>
<asrwt>0</asrwt>
<pdfrwt beam="1">  1        3 0.10977125E-01 0.92456303E+02</pdfrwt>
<pdfrwt beam="2">  1       -3 0.46078438E-02 0.92456303E+02</pdfrwt>
<totfact> 0.33284943E+04</totfact>
</mgrwt>
</event>
<event>
 5    1  0.7431090E-001  0.9138005E+02  0.7818608E-02  0.1299544E+00
         -3   -1    0    0    0  501 -0.00000000000E+00  0.00000000000E+00  0.47555049650E+02  0.47555140587E+02  0.93000000000E-01 0.  1.
          3   -1    0    0  501    0  0.00000000000E+00 -0.00000000000E+00 -0.43897963679E+02  0.43898062191E+02  0.93000000000E-01 0. -1.
         23    2    1    2    0    0  0.00000000000E+00  0.00000000000E+00  0.36570859711E+01  0.91453202778E+02  0.91380052640E+02 0.  0.
        -11    1    3    3    0    0 -0.26661387151E+02  0.15786710828E+02  0.35434117036E+02  0.47070441404E+02  0.51100000000E-03 0.  1.
         11    1    3    3    0    0  0.26661387151E+02 -0.15786710828E+02 -0.31777031065E+02  0.44382761374E+02  0.51100000000E-03 0. -1.
<mgrwt>
<rscale>  0 0.91380053E+02</rscale>
<asrwt>0</asrwt>
<pdfrwt beam="2">  1        3 0.67535475E-02 0.91380053E+02</pdfrwt>
<pdfrwt beam="1">  1       -3 0.73161760E-02 0.91380053E+02</pdfrwt>
<totfact> 0.35103441E+04</totfact>
</mgrwt>
</event>
<event>
 5    1  0.7431090E-001  0.1018862E+03  0.7818608E-02  0.1276379E+00
          3   -1    0    0  501    0  0.00000000000E+00  0.00000000000E+00  0.67965855648E+01  0.67972218104E+01  0.93000000000E-01 0. -1.
         -3   -1    0    0    0  501 -0.00000000000E+00 -0.00000000000E+00 -0.38182052442E+03  0.38182053575E+03  0.93000000000E-01 0.  1.
         23    2    1    2    0    0  0.00000000000E+00  0.00000000000E+00 -0.37502393885E+03  0.38861775756E+03  0.10188624428E+03 0.  0.
        -11    1    3    3    0    0  0.16252812099E+02 -0.43084227585E+02 -0.27062347091E+03  0.27451314645E+03  0.51100000000E-03 0.  1.
         11    1    3    3    0    0 -0.16252812099E+02  0.43084227585E+02 -0.10440046794E+03  0.11410461110E+03  0.51100000000E-03 0. -1.
<mgrwt>
<rscale>  0 0.10188624E+03</rscale>
<asrwt>0</asrwt>
<pdfrwt beam="1">  1        3 0.10456787E-02 0.10188624E+03</pdfrwt>
<pdfrwt beam="2">  1       -3 0.58741652E-01 0.10188624E+03</pdfrwt>
<totfact> 0.15531026E+04</totfact>
</mgrwt>
</event>
<event>
 5    1  0.7431090E-001  0.8950253E+02  0.7818608E-02  0.1304061E+00
         -3   -1    0    0    0  501 -0.00000000000E+00  0.00000000000E+00  0.13442269942E+03  0.13442273159E+03  0.93000000000E-01 0.  1.
          3   -1    0    0  501    0  0.00000000000E+00 -0.00000000000E+00 -0.14898167162E+02  0.14898457429E+02  0.93000000000E-01 0. -1.
         23    2    1    2    0    0  0.00000000000E+00  0.00000000000E+00  0.11952453226E+03  0.14932118902E+03  0.89502534481E+02 0.  0.
        -11    1    3    3    0    0  0.26182151111E+02 -0.35082052885E+02  0.75271643472E+02  0.87075115748E+02  0.51100000000E-03 0. -1.
         11    1    3    3    0    0 -0.26182151111E+02  0.35082052885E+02  0.44252888784E+02  0.62246073269E+02  0.51100000000E-03 0.  1.
<mgrwt>
<rscale>  0 0.89502534E+02</rscale>
<asrwt>0</asrwt>
<pdfrwt beam="2">  1        3 0.22920504E-02 0.89502534E+02</pdfrwt>
<pdfrwt beam="1">  1       -3 0.20680441E-01 0.89502534E+02</pdfrwt>
<totfact> 0.32959383E+04</totfact>
</mgrwt>
</event>
<event>
 5    1  0.7431090E-001  0.8977827E+02  0.7818608E-02  0.1303390E+00
         -3   -1    0    0    0  501 -0.00000000000E+00  0.00000000000E+00  0.19001980321E+02  0.19002207902E+02  0.93000000000E-01 0.  1.
          3   -1    0    0  501    0  0.00000000000E+00 -0.00000000000E+00 -0.10604249836E+03  0.10604253914E+03  0.93000000000E-01 0. -1.
         23    2    1    2    0    0  0.00000000000E+00  0.00000000000E+00 -0.87040518038E+02  0.12504474704E+03  0.89778265646E+02 0.  0.
        -11    1    3    3    0    0 -0.37227089453E+02 -0.22859203368E+02 -0.57903073487E+02  0.72533890612E+02  0.51100000000E-03 0. -1.
         11    1    3    3    0    0  0.37227089453E+02  0.22859203368E+02 -0.29137444550E+02  0.52510856429E+02  0.51100000000E-03 0.  1.
<mgrwt>
<rscale>  0 0.89778266E+02</rscale>
<asrwt>0</asrwt>
<pdfrwt beam="2">  1        3 0.16314251E-01 0.89778266E+02</pdfrwt>
<pdfrwt beam="1">  1       -3 0.29234023E-02 0.89778266E+02</pdfrwt>
<totfact> 0.34311635E+04</totfact>
</mgrwt>
</event>
<event>
 5    1  0.7431090E-001  0.9389251E+02  0.7818608E-02  0.1293690E+00
         -3   -1    0    0    0  501 -0.00000000000E+00  0.00000000000E+00  0.18427423415E+02  0.18427658091E+02  0.93000000000E-01 0.  1.
          3   -1    0    0  501    0  0.00000000000E+00 -0.00000000000E+00 -0.11960068073E+03  0.11960071689E+03  0.93000000000E-01 0. -1.
         23    2    1    2    0    0  0.00000000000E+00  0.00000000000E+00 -0.10117325732E+03  0.13802837498E+03  0.93892514632E+02 0.  0.
        -11    1    3    3    0    0 -0.26598205674E+02 -0.25447963896E+02 -0.77552044252E+01  0.37619231883E+02  0.51100000000E-03 0.  1.
         11    1    3    3    0    0  0.26598205674E+02  0.25447963896E+02 -0.93418052891E+02  0.10040914310E+03  0.51100000000E-03 0. -1.
<mgrwt>
<rscale>  0 0.93892515E+02</rscale>
<asrwt>0</asrwt>
<pdfrwt beam="2">  1        3 0.18400125E-01 0.93892515E+02</pdfrwt>
<pdfrwt beam="1">  1       -3 0.28350091E-02 0.93892515E+02</pdfrwt>
<totfact> 0.29596542E+04</totfact>
</mgrwt>
</event>
<event>
 5    1  0.7431090E-001  0.9206391E+02  0.7818608E-02  0.1297929E+00
          3   -1    0    0  501    0  0.00000000000E+00  0.00000000000E+00  0.26015472011E+02  0.26015638239E+02  0.93000000000E-01 0. -1.
         -3   -1    0    0    0  501 -0.00000000000E+00 -0.00000000000E+00 -0.81448800182E+02  0.81448853277E+02  0.93000000000E-01 0.  1.
         23    2    1    2    0    0  0.00000000000E+00  0.00000000000E+00 -0.55433328171E+02  0.10746449152E+03  0.92063907502E+02 0.  0.
        -11    1    3    3    0    0 -0.18028747355E+02 -0.16979706641E+01 -0.77116560248E+02  0.79214157197E+02  0.51100000000E-03 0.  1.
         11    1    3    3    0    0  0.18028747355E+02  0.16979706641E+01  0.21683232077E+02  0.28250334319E+02  0.51100000000E-03 0. -1.
<mgrwt>
<rscale>  0 0.92063908E+02</rscale>
<asrwt>0</asrwt>
<pdfrwt beam="1">  1        3 0.40023972E-02 0.92063908E+02</pdfrwt>
<pdfrwt beam="2">  1       -3 0.12530601E-01 0.92063908E+02</pdfrwt>
<totfact> 0.33239134E+04</totfact>
</mgrwt>
</event>
<event>
 5    1  0.7431090E-001  0.9125562E+02  0.7818608E-02  0.1299839E+00
          3   -1    0    0  501    0  0.00000000000E+00  0.00000000000E+00  0.25641559695E+02  0.25641728347E+02  0.93000000000E-01 0. -1.
         -3   -1    0    0    0  501 -0.00000000000E+00 -0.00000000000E+00 -0.81191825159E+02  0.81191878421E+02  0.93000000000E-01 0.  1.
         23    2    1    2    0    0  0.00000000000E+00  0.00000000000E+00 -0.55550265463E+02  0.10683360677E+03  0.91255616496E+02 0.  0.
        -11    1    3    3    0    0  0.12935132763E+01 -0.26832530954E+02 -0.70952474088E+02  0.75867723529E+02  0.51100000000E-03 0.  1.
         11    1    3    3    0    0 -0.12935132763E+01  0.26832530954E+02  0.15402208625E+02  0.30965883239E+02  0.51100000000E-03 0. -1.
<mgrwt>
<rscale>  0 0.91255616E+02</rscale>
<asrwt>0</asrwt>
<pdfrwt beam="1">  1        3 0.39448724E-02 0.91255616E+02</pdfrwt>
<pdfrwt beam="2">  1       -3 0.12491067E-01 0.91255616E+02</pdfrwt>
<totfact> 0.34092971E+04</totfact>
</mgrwt>
</event>
<event>
 5    1  0.7431090E-001  0.8586515E+02  0.7818608E-02  0.1313185E+00
          3   -1    0    0  501    0  0.00000000000E+00  0.00000000000E+00  0.93818185346E+02  0.93818231440E+02  0.93000000000E-01 0. -1.
         -3   -1    0    0    0  501 -0.00000000000E+00 -0.00000000000E+00 -0.19646413368E+02  0.19646633483E+02  0.93000000000E-01 0.  1.
         23    2    1    2    0    0  0.00000000000E+00  0.00000000000E+00  0.74171771978E+02  0.11346486492E+03  0.85865149006E+02 0.  0.
        -11    1    3    3    0    0 -0.17055118846E+02  0.38858455777E+02  0.28486498200E+02  0.51111028597E+02  0.51100000000E-03 0.  1.
         11    1    3    3    0    0  0.17055118846E+02 -0.38858455777E+02  0.45685273778E+02  0.62353836327E+02  0.51100000000E-03 0. -1.
<mgrwt>
<rscale>  0 0.85865149E+02</rscale>
<asrwt>0</asrwt>
<pdfrwt beam="1">  1        3 0.14433587E-01 0.85865149E+02</pdfrwt>
<pdfrwt beam="2">  1       -3 0.30225457E-02 0.85865149E+02</pdfrwt>
<totfact> 0.39637894E+04</totfact>
</mgrwt>
</event>
<event>
 5    1  0.7431090E-001  0.9173717E+02  0.7818608E-02  0.1298699E+00
          3   -1    0    0  501    0  0.00000000000E+00  0.00000000000E+00  0.19061750118E+02  0.19061976984E+02  0.93000000000E-01 0.  1.
         -3   -1    0    0    0  501 -0.00000000000E+00 -0.00000000000E+00 -0.11037338164E+03  0.11037342082E+03  0.93000000000E-01 0. -1.
         23    2    1    2    0    0  0.00000000000E+00  0.00000000000E+00 -0.91311631524E+02  0.12943539781E+03  0.91737168878E+02 0.  0.
        -11    1    3    3    0    0 -0.44751783745E+02  0.92406700912E+01 -0.40044805819E+02  0.60759349942E+02  0.51100000000E-03 0.  1.
         11    1    3    3    0    0  0.44751783745E+02 -0.92406700912E+01 -0.51266825705E+02  0.68676047864E+02  0.51100000000E-03 0. -1.
<mgrwt>
<rscale>  0 0.91737169E+02</rscale>
<asrwt>0</asrwt>
<pdfrwt beam="1">  1        3 0.29325975E-02 0.91737169E+02</pdfrwt>
<pdfrwt beam="2">  1       -3 0.16980540E-01 0.91737169E+02</pdfrwt>
<totfact> 0.32075944E+04</totfact>
</mgrwt>
</event>
<event>
 5    1  0.7431090E-001  0.9091979E+02  0.7818608E-02  0.1300639E+00
          3   -1    0    0  501    0  0.00000000000E+00  0.00000000000E+00  0.91802240930E+02  0.91802288037E+02  0.93000000000E-01 0. -1.
         -3   -1    0    0    0  501 -0.00000000000E+00 -0.00000000000E+00 -0.22511308602E+02  0.22511500705E+02  0.93000000000E-01 0.  1.
         23    2    1    2    0    0  0.00000000000E+00  0.00000000000E+00  0.69290932328E+02  0.11431378874E+03  0.90919794290E+02 0.  0.
        -11    1    3    3    0    0  0.30715113630E+02 -0.26238580450E+02  0.60860200087E+02  0.73046870325E+02  0.51100000000E-03 0.  1.
         11    1    3    3    0    0 -0.30715113630E+02  0.26238580450E+02  0.84307322405E+01  0.41266918417E+02  0.51100000000E-03 0. -1.
<mgrwt>
<rscale>  0 0.90919794E+02</rscale>
<asrwt>0</asrwt>
<pdfrwt beam="1">  1        3 0.14123440E-01 0.90919794E+02</pdfrwt>
<pdfrwt beam="2">  1       -3 0.34632966E-02 0.90919794E+02</pdfrwt>
<totfact> 0.33898853E+04</totfact>
</mgrwt>
</event>
<event>
 5    1  0.7431090E-001  0.9055227E+02  0.7818608E-02  0.1301520E+00
         -3   -1    0    0    0  501 -0.00000000000E+00  0.00000000000E+00  0.93458537960E+02  0.93458584232E+02  0.93000000000E-01 0.  1.
          3   -1    0    0  501    0  0.00000000000E+00 -0.00000000000E+00 -0.21933944941E+02  0.21934142101E+02  0.93000000000E-01 0. -1.
         23    2    1    2    0    0  0.00000000000E+00  0.00000000000E+00  0.71524593019E+02  0.11539272633E+03  0.90552271556E+02 0.  0.
        -11    1    3    3    0    0  0.69594409227E+00 -0.23551242245E+02 -0.13506071608E+02  0.27158043376E+02  0.51100000000E-03 0. -1.
         11    1    3    3    0    0 -0.69594409227E+00  0.23551242245E+02  0.85030664627E+02  0.88234682957E+02  0.51100000000E-03 0.  1.
<mgrwt>
<rscale>  0 0.90552272E+02</rscale>
<asrwt>0</asrwt>
<pdfrwt beam="2">  1        3 0.33744719E-02 0.90552272E+02</pdfrwt>
<pdfrwt beam="1">  1       -3 0.14378255E-01 0.90552272E+02</pdfrwt>
<totfact> 0.34198038E+04</totfact>
</mgrwt>
</event>
<event>
 5    1  0.7431090E-001  0.8225384E+02  0.7818608E-02  0.1322774E+00
          3   -1    0    0  501    0  0.00000000000E+00  0.00000000000E+00  0.20666651389E+03  0.20666653481E+03  0.93000000000E-01 0. -1.
         -3   -1    0    0    0  501 -0.00000000000E+00 -0.00000000000E+00 -0.81840285423E+01  0.81845569325E+01  0.93000000000E-01 0.  1.
         23    2    1    2    0    0  0.00000000000E+00  0.00000000000E+00  0.19848248535E+03  0.21485109175E+03  0.82253842678E+02 0.  0.
        -11    1    3    3    0    0  0.36397834643E+02  0.16000139450E+02  0.71769135518E+02  0.82046423703E+02  0.51100000000E-03 0.  1.
         11    1    3    3    0    0 -0.36397834643E+02 -0.16000139450E+02  0.12671334983E+03  0.13280466804E+03  0.51100000000E-03 0. -1.
<mgrwt>
<rscale>  0 0.82253843E+02</rscale>
<asrwt>0</asrwt>
<pdfrwt beam="1">  1        3 0.31794888E-01 0.82253843E+02</pdfrwt>
<pdfrwt beam="2">  1       -3 0.12591237E-02 0.82253843E+02</pdfrwt>
<totfact> 0.36554725E+04</totfact>
</mgrwt>
</event>
<event>
 5    1  0.7431090E-001  0.9135292E+02  0.7818608E-02  0.1299608E+00
          3   -1    0    0  501    0  0.00000000000E+00  0.00000000000E+00  0.27301792338E+03  0.27301793922E+03  0.93000000000E-01 0. -1.
         -3   -1    0    0    0  501 -0.00000000000E+00 -0.00000000000E+00 -0.76414663853E+01  0.76420322897E+01  0.93000000000E-01 0.  1.
         23    2    1    2    0    0  0.00000000000E+00  0.00000000000E+00  0.26537645700E+03  0.28065997151E+03  0.91352918293E+02 0.  0.
        -11    1    3    3    0    0  0.30282163637E+02  0.22844387253E+02  0.21086283105E+03  0.21424754137E+03  0.51100000000E-03 0. -1.
         11    1    3    3    0    0 -0.30282163637E+02 -0.22844387253E+02  0.54513625948E+02  0.66412430145E+02  0.51100000000E-03 0.  1.
<mgrwt>
<rscale>  0 0.91352918E+02</rscale>
<asrwt>0</asrwt>
<pdfrwt beam="1">  1        3 0.42002807E-01 0.91352918E+02</pdfrwt>
<pdfrwt beam="2">  1       -3 0.11756548E-02 0.91352918E+02</pdfrwt>
<totfact> 0.24670885E+04</totfact>
</mgrwt>
</event>
<event>
 5    1  0.7431090E-001  0.9167910E+02  0.7818608E-02  0.1298836E+00
          3   -1    0    0  501    0  0.00000000000E+00  0.00000000000E+00  0.32685689557E+02  0.32685821863E+02  0.93000000000E-01 0. -1.
         -3   -1    0    0    0  501 -0.00000000000E+00 -0.00000000000E+00 -0.64286689239E+02  0.64286756508E+02  0.93000000000E-01 0.  1.
         23    2    1    2    0    0  0.00000000000E+00  0.00000000000E+00 -0.31600999682E+02  0.96972578371E+02  0.91679102172E+02 0.  0.
        -11    1    3    3    0    0  0.35981969562E+02  0.28325842745E+02 -0.13630473036E+02  0.47779130342E+02  0.51100000000E-03 0.  1.
         11    1    3    3    0    0 -0.35981969562E+02 -0.28325842745E+02 -0.17970526646E+02  0.49193448029E+02  0.51100000000E-03 0. -1.
<mgrwt>
<rscale>  0 0.91679102E+02</rscale>
<asrwt>0</asrwt>
<pdfrwt beam="1">  1        3 0.50285830E-02 0.91679102E+02</pdfrwt>
<pdfrwt beam="2">  1       -3 0.98902752E-02 0.91679102E+02</pdfrwt>
<totfact> 0.34379081E+04</totfact>
</mgrwt>
</event>
<event>
 5    1  0.7431090E-001  0.9152662E+02  0.7818608E-02  0.1299196E+00
          3   -1    0    0  501    0  0.00000000000E+00  0.00000000000E+00  0.86069897348E+02  0.86069947592E+02  0.93000000000E-01 0. -1.
         -3   -1    0    0    0  501 -0.00000000000E+00 -0.00000000000E+00 -0.24332179335E+02  0.24332357062E+02  0.93000000000E-01 0.  1.
         23    2    1    2    0    0  0.00000000000E+00  0.00000000000E+00  0.61737718013E+02  0.11040230465E+03  0.91526624802E+02 0.  0.
        -11    1    3    3    0    0 -0.44031138505E+02 -0.12339919536E+02  0.28688951449E+02  0.53982133227E+02  0.51100000000E-03 0.  1.
         11    1    3    3    0    0  0.44031138505E+02  0.12339919536E+02  0.33048766564E+02  0.56420171427E+02  0.51100000000E-03 0. -1.
<mgrwt>
<rscale>  0 0.91526625E+02</rscale>
<asrwt>0</asrwt>
<pdfrwt beam="1">  1        3 0.13241540E-01 0.91526625E+02</pdfrwt>
<pdfrwt beam="2">  1       -3 0.37434298E-02 0.91526625E+02</pdfrwt>
<totfact> 0.33564240E+04</totfact>
</mgrwt>
</event>
<event>
 5    1  0.7431090E-001  0.9182237E+02  0.7818608E-02  0.1298498E+00
         -3   -1    0    0    0  501 -0.00000000000E+00  0.00000000000E+00  0.15283508998E+02  0.15283791947E+02  0.93000000000E-01 0.  1.
          3   -1    0    0  501    0  0.00000000000E+00 -0.00000000000E+00 -0.13791420765E+03  0.13791423900E+03  0.93000000000E-01 0. -1.
         23    2    1    2    0    0  0.00000000000E+00  0.00000000000E+00 -0.12263069865E+03  0.15319803095E+03  0.91822374376E+02 0.  0.
        -11    1    3    3    0    0 -0.16131060983E+02 -0.42156955786E+02 -0.47314847368E+02  0.65392008925E+02  0.51100000000E-03 0.  1.
         11    1    3    3    0    0  0.16131060983E+02  0.42156955786E+02 -0.75315851281E+02  0.87806022026E+02  0.51100000000E-03 0. -1.
<mgrwt>
<rscale>  0 0.91822374E+02</rscale>
<asrwt>0</asrwt>
<pdfrwt beam="2">  1        3 0.21217594E-01 0.91822374E+02</pdfrwt>
<pdfrwt beam="1">  1       -3 0.23513334E-02 0.91822374E+02</pdfrwt>
<totfact> 0.30522720E+04</totfact>
</mgrwt>
</event>
<event>
 5    1  0.7431090E-001  0.9083629E+02  0.7818608E-02  0.1300839E+00
         -3   -1    0    0    0  501 -0.00000000000E+00  0.00000000000E+00  0.11180042841E+02  0.11180429640E+02  0.93000000000E-01 0.  1.
          3   -1    0    0  501    0  0.00000000000E+00 -0.00000000000E+00 -0.18450445401E+03  0.18450447745E+03  0.93000000000E-01 0. -1.
         23    2    1    2    0    0  0.00000000000E+00  0.00000000000E+00 -0.17332441117E+03  0.19568490709E+03  0.90836288757E+02 0.  0.
        -11    1    3    3    0    0 -0.41889970064E+02  0.25363104081E+01 -0.12407477085E+03  0.13097996497E+03  0.51100000000E-03 0. -1.
         11    1    3    3    0    0  0.41889970064E+02 -0.25363104081E+01 -0.49249640322E+02  0.64704942119E+02  0.51100000000E-03 0.  1.
<mgrwt>
<rscale>  0 0.90836289E+02</rscale>
<asrwt>0</asrwt>
<pdfrwt beam="2">  1        3 0.28385330E-01 0.90836289E+02</pdfrwt>
<pdfrwt beam="1">  1       -3 0.17200383E-02 0.90836289E+02</pdfrwt>
<totfact> 0.29014564E+04</totfact>
</mgrwt>
</event>
<event>
 5    1  0.7431090E-001  0.9121834E+02  0.7818608E-02  0.1299928E+00
         -3   -1    0    0    0  501 -0.00000000000E+00  0.00000000000E+00  0.32735097815E+03  0.32735099136E+03  0.93000000000E-01 0.  1.
          3   -1    0    0  501    0  0.00000000000E+00 -0.00000000000E+00 -0.63542832045E+01  0.63549637326E+01  0.93000000000E-01 0. -1.
         23    2    1    2    0    0  0.00000000000E+00  0.00000000000E+00  0.32099669495E+03  0.33370595510E+03  0.91218344092E+02 0.  0.
        -11    1    3    3    0    0  0.29569340924E+01 -0.45012635187E+02  0.13587162907E+03  0.14316417279E+03  0.51100000000E-03 0. -1.
         11    1    3    3    0    0 -0.29569340924E+01  0.45012635187E+02  0.18512506588E+03  0.19054178231E+03  0.51100000000E-03 0.  1.
<mgrwt>
<rscale>  0 0.91218344E+02</rscale>
<asrwt>0</asrwt>
<pdfrwt beam="2">  1        3 0.97763516E-03 0.91218344E+02</pdfrwt>
<pdfrwt beam="1">  1       -3 0.50361754E-01 0.91218344E+02</pdfrwt>
<totfact> 0.22745331E+04</totfact>
</mgrwt>
</event>
<event>
 5    1  0.7431090E-001  0.9137158E+02  0.7818608E-02  0.1299564E+00
          3   -1    0    0  501    0  0.00000000000E+00  0.00000000000E+00  0.18936712892E+03  0.18936715176E+03  0.93000000000E-01 0. -1.
         -3   -1    0    0    0  501 -0.00000000000E+00 -0.00000000000E+00 -0.11021710678E+02  0.11022103033E+02  0.93000000000E-01 0.  1.
         23    2    1    2    0    0  0.00000000000E+00  0.00000000000E+00  0.17834541824E+03  0.20038925479E+03  0.91371577788E+02 0.  0.
        -11    1    3    3    0    0 -0.27606174318E+02 -0.32019706349E+02  0.12714790446E+03  0.13399235823E+03  0.51100000000E-03 0. -1.
         11    1    3    3    0    0  0.27606174318E+02  0.32019706349E+02  0.51197513781E+02  0.66396896559E+02  0.51100000000E-03 0.  1.
<mgrwt>
<rscale>  0 0.91371578E+02</rscale>
<asrwt>0</asrwt>
<pdfrwt beam="1">  1        3 0.29133435E-01 0.91371578E+02</pdfrwt>
<pdfrwt beam="2">  1       -3 0.16956798E-02 0.91371578E+02</pdfrwt>
<totfact> 0.28314714E+04</totfact>
</mgrwt>
</event>
<event>
 5    1  0.7431090E-001  0.9684140E+02  0.7818608E-02  0.1287082E+00
         -3   -1    0    0    0  501 -0.00000000000E+00  0.00000000000E+00  0.30490661020E+02  0.30490802850E+02  0.93000000000E-01 0.  1.
          3   -1    0    0  501    0  0.00000000000E+00 -0.00000000000E+00 -0.76894159915E+02  0.76894216155E+02  0.93000000000E-01 0. -1.
         23    2    1    2    0    0  0.00000000000E+00  0.00000000000E+00 -0.46403498895E+02  0.10738501900E+03  0.96841404352E+02 0.  0.
        -11    1    3    3    0    0 -0.26135682033E+02  0.28158337828E+02  0.94790119119E+01  0.39570412326E+02  0.51100000000E-03 0.  1.
         11    1    3    3    0    0  0.26135682033E+02 -0.28158337828E+02 -0.55882510807E+02  0.67814606678E+02  0.51100000000E-03 0. -1.
<mgrwt>
<rscale>  0 0.96841404E+02</rscale>
<asrwt>0</asrwt>
<pdfrwt beam="2">  1        3 0.11829886E-01 0.96841404E+02</pdfrwt>
<pdfrwt beam="1">  1       -3 0.46908862E-02 0.96841404E+02</pdfrwt>
<totfact> 0.28948072E+04</totfact>
</mgrwt>
</event>
<event>
 5    1  0.7431090E-001  0.8977427E+02  0.7818608E-02  0.1303399E+00
         -3   -1    0    0    0  501 -0.00000000000E+00  0.00000000000E+00  0.20118371329E+03  0.20118373478E+03  0.93000000000E-01 0.  1.
          3   -1    0    0  501    0  0.00000000000E+00 -0.00000000000E+00 -0.10014762028E+02  0.10015193831E+02  0.93000000000E-01 0. -1.
         23    2    1    2    0    0  0.00000000000E+00  0.00000000000E+00  0.19116895126E+03  0.21119892861E+03  0.89774269822E+02 0.  0.
        -11    1    3    3    0    0 -0.24225940343E+02  0.23054309769E+02  0.25146854416E+02  0.41842104054E+02  0.51100000000E-03 0. -1.
         11    1    3    3    0    0  0.24225940343E+02 -0.23054309769E+02  0.16602209684E+03  0.16935682456E+03  0.51100000000E-03 0.  1.
<mgrwt>
<rscale>  0 0.89774270E+02</rscale>
<asrwt>0</asrwt>
<pdfrwt beam="2">  1        3 0.15407677E-02 0.89774270E+02</pdfrwt>
<pdfrwt beam="1">  1       -3 0.30951372E-01 0.89774270E+02</pdfrwt>
<totfact> 0.29117268E+04</totfact>
</mgrwt>
</event>
<event>
 5    1  0.7431090E-001  0.1261293E+03  0.7818608E-02  0.1233315E+00
         -3   -1    0    0    0  501 -0.00000000000E+00  0.00000000000E+00  0.41798109207E+02  0.41798212668E+02  0.93000000000E-01 0.  1.
          3   -1    0    0  501    0  0.00000000000E+00 -0.00000000000E+00 -0.95151119059E+02  0.95151164508E+02  0.93000000000E-01 0. -1.
         23    2    1    2    0    0  0.00000000000E+00  0.00000000000E+00 -0.53353009853E+02  0.13694937718E+03  0.12612925215E+03 0.  0.
        -11    1    3    3    0    0 -0.44054956515E+02 -0.26558411011E+02  0.12935472790E+02  0.53042575781E+02  0.51100000000E-03 0.  1.
         11    1    3    3    0    0  0.44054956515E+02  0.26558411011E+02 -0.66288482643E+02  0.83906801395E+02  0.51100000000E-03 0. -1.
<mgrwt>
<rscale>  0 0.12612925E+03</rscale>
<asrwt>0</asrwt>
<pdfrwt beam="2">  1        3 0.14638645E-01 0.12612925E+03</pdfrwt>
<pdfrwt beam="1">  1       -3 0.64304898E-02 0.12612925E+03</pdfrwt>
<totfact> 0.13087110E+04</totfact>
</mgrwt>
</event>
<event>
 5    1  0.7431090E-001  0.8420922E+02  0.7818608E-02  0.1317514E+00
         -3   -1    0    0    0  501 -0.00000000000E+00  0.00000000000E+00  0.86074479064E+02  0.86074529306E+02  0.93000000000E-01 0.  1.
          3   -1    0    0  501    0  0.00000000000E+00 -0.00000000000E+00 -0.20595932836E+02  0.20596142804E+02  0.93000000000E-01 0. -1.
         23    2    1    2    0    0  0.00000000000E+00  0.00000000000E+00  0.65478546228E+02  0.10667067211E+03  0.84209217263E+02 0.  0.
        -11    1    3    3    0    0  0.40933563514E+02  0.95973784813E+01  0.29869688189E+02  0.51573874863E+02  0.51100000000E-03 0. -1.
         11    1    3    3    0    0 -0.40933563514E+02 -0.95973784813E+01  0.35608858039E+02  0.55096797246E+02  0.51100000000E-03 0.  1.
<mgrwt>
<rscale>  0 0.84209217E+02</rscale>
<asrwt>0</asrwt>
<pdfrwt beam="2">  1        3 0.31686250E-02 0.84209217E+02</pdfrwt>
<pdfrwt beam="1">  1       -3 0.13242248E-01 0.84209217E+02</pdfrwt>
<totfact> 0.42380349E+04</totfact>
</mgrwt>
</event>
<event>
 5    1  0.7431090E-001  0.9403707E+02  0.7818608E-02  0.1293360E+00
         -3   -1    0    0    0  501 -0.00000000000E+00  0.00000000000E+00  0.86049719473E+02  0.86049769729E+02  0.93000000000E-01 0.  1.
          3   -1    0    0  501    0  0.00000000000E+00 -0.00000000000E+00 -0.25691314872E+02  0.25691483197E+02  0.93000000000E-01 0. -1.
         23    2    1    2    0    0  0.00000000000E+00  0.00000000000E+00  0.60358404601E+02  0.11174125293E+03  0.94037070347E+02 0.  0.
        -11    1    3    3    0    0  0.39184813507E+02 -0.25634012441E+02  0.35247196653E+02  0.58608165605E+02  0.51100000000E-03 0.  1.
         11    1    3    3    0    0 -0.39184813507E+02  0.25634012441E+02  0.25111207948E+02  0.53133087321E+02  0.51100000000E-03 0. -1.
<mgrwt>
<rscale>  0 0.94037070E+02</rscale>
<asrwt>0</asrwt>
<pdfrwt beam="2">  1        3 0.39525267E-02 0.94037070E+02</pdfrwt>
<pdfrwt beam="1">  1       -3 0.13238436E-01 0.94037070E+02</pdfrwt>
<totfact> 0.31090457E+04</totfact>
</mgrwt>
</event>
<event>
 5    1  0.7431090E-001  0.9067390E+02  0.7818608E-02  0.1301228E+00
         -3   -1    0    0    0  501 -0.00000000000E+00  0.00000000000E+00  0.18831607449E+03  0.18831609745E+03  0.93000000000E-01 0.  1.
          3   -1    0    0  501    0  0.00000000000E+00 -0.00000000000E+00 -0.10914614984E+02  0.10915011189E+02  0.93000000000E-01 0. -1.
         23    2    1    2    0    0  0.00000000000E+00  0.00000000000E+00  0.17740145950E+03  0.19923110864E+03  0.90673903722E+02 0.  0.
        -11    1    3    3    0    0  0.32004304256E+02 -0.13681469458E+02  0.15253313369E+03  0.15645387490E+03  0.51100000000E-03 0.  1.
         11    1    3    3    0    0 -0.32004304256E+02  0.13681469458E+02  0.24868325811E+02  0.42777233739E+02  0.51100000000E-03 0. -1.
<mgrwt>
<rscale>  0 0.90673904E+02</rscale>
<asrwt>0</asrwt>
<pdfrwt beam="2">  1        3 0.16792039E-02 0.90673904E+02</pdfrwt>
<pdfrwt beam="1">  1       -3 0.28971734E-01 0.90673904E+02</pdfrwt>
<totfact> 0.28965767E+04</totfact>
</mgrwt>
</event>
<event>
 5    1  0.7431090E-001  0.8643756E+02  0.7818608E-02  0.1311715E+00
         -3   -1    0    0    0  501 -0.00000000000E+00  0.00000000000E+00  0.10159867908E+02  0.10160293545E+02  0.93000000000E-01 0.  1.
          3   -1    0    0  501    0  0.00000000000E+00 -0.00000000000E+00 -0.18384289964E+03  0.18384292316E+03  0.93000000000E-01 0. -1.
         23    2    1    2    0    0  0.00000000000E+00  0.00000000000E+00 -0.17368303173E+03  0.19400321671E+03  0.86437564642E+02 0.  0.
        -11    1    3    3    0    0 -0.12747052848E+02 -0.29193964089E+02 -0.21286883128E+02  0.38313265185E+02  0.51100000000E-03 0.  1.
         11    1    3    3    0    0  0.12747052848E+02  0.29193964089E+02 -0.15239614860E+03  0.15568995152E+03  0.51100000000E-03 0. -1.
<mgrwt>
<rscale>  0 0.86437565E+02</rscale>
<asrwt>0</asrwt>
<pdfrwt beam="2">  1        3 0.28283555E-01 0.86437565E+02</pdfrwt>
<pdfrwt beam="1">  1       -3 0.15630913E-02 0.86437565E+02</pdfrwt>
<totfact> 0.33254894E+04</totfact>
</mgrwt>
</event>
<event>
 5    1  0.7431090E-001  0.9157236E+02  0.7818608E-02  0.1299088E+00
          3   -1    0    0  501    0  0.00000000000E+00  0.00000000000E+00  0.58464700831E+01  0.58472097134E+01  0.93000000000E-01 0. -1.
         -3   -1    0    0    0  501 -0.00000000000E+00 -0.00000000000E+00 -0.35854749560E+03  0.35854750766E+03  0.93000000000E-01 0.  1.
         23    2    1    2    0    0  0.00000000000E+00  0.00000000000E+00 -0.35270102551E+03  0.36439471737E+03  0.91572357454E+02 0.  0.
        -11    1    3    3    0    0  0.29466137223E+02  0.34941007311E+02 -0.16563816574E+03  0.17182877869E+03  0.51100000000E-03 0. -1.
         11    1    3    3    0    0 -0.29466137223E+02 -0.34941007311E+02 -0.18706285977E+03  0.19256593868E+03  0.51100000000E-03 0.  1.
<mgrwt>
<rscale>  0 0.91572357E+02</rscale>
<asrwt>0</asrwt>
<pdfrwt beam="1">  1        3 0.89951504E-03 0.91572357E+02</pdfrwt>
<pdfrwt beam="2">  1       -3 0.55161194E-01 0.91572357E+02</pdfrwt>
<totfact> 0.21473103E+04</totfact>
</mgrwt>
</event>
<event>
 5    1  0.7431090E-001  0.9001684E+02  0.7818608E-02  0.1302811E+00
          3   -1    0    0  501    0  0.00000000000E+00  0.00000000000E+00  0.39725791378E+02  0.39725900236E+02  0.93000000000E-01 0. -1.
         -3   -1    0    0    0  501 -0.00000000000E+00 -0.00000000000E+00 -0.50993294004E+02  0.50993378809E+02  0.93000000000E-01 0.  1.
         23    2    1    2    0    0  0.00000000000E+00  0.00000000000E+00 -0.11267502627E+02  0.90719279045E+02  0.90016837176E+02 0.  0.
        -11    1    3    3    0    0  0.34832994339E+02 -0.20677650110E+02  0.14137057067E+02  0.42904068472E+02  0.51100000000E-03 0. -1.
         11    1    3    3    0    0 -0.34832994339E+02  0.20677650110E+02 -0.25404559693E+02  0.47815210573E+02  0.51100000000E-03 0.  1.
<mgrwt>
<rscale>  0 0.90016837E+02</rscale>
<asrwt>0</asrwt>
<pdfrwt beam="1">  1        3 0.61116750E-02 0.90016837E+02</pdfrwt>
<pdfrwt beam="2">  1       -3 0.78451371E-02 0.90016837E+02</pdfrwt>
<totfact> 0.36627935E+04</totfact>
</mgrwt>
</event>
<event>
 5    1  0.7431090E-001  0.9208065E+02  0.7818608E-02  0.1297890E+00
         -3   -1    0    0    0  501 -0.00000000000E+00  0.00000000000E+00  0.22292815618E+02  0.22293009604E+02  0.93000000000E-01 0.  1.
          3   -1    0    0  501    0  0.00000000000E+00 -0.00000000000E+00 -0.95084332139E+02  0.95084377620E+02  0.93000000000E-01 0. -1.
         23    2    1    2    0    0  0.00000000000E+00  0.00000000000E+00 -0.72791516521E+02  0.11737738722E+03  0.92080650269E+02 0.  0.
        -11    1    3    3    0    0 -0.16150112656E+02 -0.11657644293E+02  0.16516558146E+02  0.25875152222E+02  0.51100000000E-03 0.  1.
         11    1    3    3    0    0  0.16150112656E+02  0.11657644293E+02 -0.89308074667E+02  0.91502235002E+02  0.51100000000E-03 0. -1.
<mgrwt>
<rscale>  0 0.92080650E+02</rscale>
<asrwt>0</asrwt>
<pdfrwt beam="2">  1        3 0.14628377E-01 0.92080650E+02</pdfrwt>
<pdfrwt beam="1">  1       -3 0.34296824E-02 0.92080650E+02</pdfrwt>
<totfact> 0.32540916E+04</totfact>
</mgrwt>
</event>
<event>
 5    1  0.7431090E-001  0.9127486E+02  0.7818608E-02  0.1299793E+00
         -3   -1    0    0    0  501 -0.00000000000E+00  0.00000000000E+00  0.45703672016E+02  0.45703766637E+02  0.93000000000E-01 0.  1.
          3   -1    0    0  501    0  0.00000000000E+00 -0.00000000000E+00 -0.45571098900E+02  0.45571193796E+02  0.93000000000E-01 0. -1.
         23    2    1    2    0    0  0.00000000000E+00  0.00000000000E+00  0.13257311623E+00  0.91274960432E+02  0.91274864154E+02 0.  0.
        -11    1    3    3    0    0 -0.29174388025E+02  0.56433273391E+01  0.34704209090E+02  0.45687790370E+02  0.51100000000E-03 0.  1.
         11    1    3    3    0    0  0.29174388025E+02 -0.56433273391E+01 -0.34571635974E+02  0.45587170062E+02  0.51100000000E-03 0. -1.
<mgrwt>
<rscale>  0 0.91274864E+02</rscale>
<asrwt>0</asrwt>
<pdfrwt beam="2">  1        3 0.70109529E-02 0.91274864E+02</pdfrwt>
<pdfrwt beam="1">  1       -3 0.70313487E-02 0.91274864E+02</pdfrwt>
<totfact> 0.35227525E+04</totfact>
</mgrwt>
</event>
<event>
 4    1  0.7431090E-001  0.2650156E+03  0.7818608E-02  0.1104167E+00
         -3   -1    0    0    0  501 -0.00000000000E+00  0.00000000000E+00  0.59444975543E+03  0.59444976270E+03  0.93000000000E-01 0.  1.
          3   -1    0    0  501    0  0.00000000000E+00 -0.00000000000E+00 -0.29537014162E+02  0.29537160571E+02  0.93000000000E-01 0. -1.
        -11    1    1    2    0    0 -0.72047711802E+02  0.88890856109E+02  0.43980271717E+03  0.45444349166E+03  0.51100000000E-03 0. -1.
         11    1    1    2    0    0  0.72047711802E+02 -0.88890856109E+02  0.12511002410E+03  0.16954343162E+03  0.51100000000E-03 0.  1.
<mgrwt>
<rscale>  0 0.26501561E+03</rscale>
<asrwt>0</asrwt>
<pdfrwt beam="2">  1        3 0.45441682E-02 0.26501561E+03</pdfrwt>
<pdfrwt beam="1">  1       -3 0.91453813E-01 0.26501561E+03</pdfrwt>
<totfact> 0.74398180E+02</totfact>
</mgrwt>
</event>
